                               Psi4 1.3.2 release

  ==> Input File <==

--------------------------------------------------------------------------
import numpy as np
set {scf_type pk
basis cc-pvdz
d_convergence 10
gdma_switch   0
gdma_limit    0
gdma_origin   [ 0.0,  0.0,  0.0 ]
}
molecule test {
    units Angstrom
    0 1
    --
    0 1
    C                3.105392277124693     0.874392350535201     2.261193781153267
    C               -0.510607722875307     1.471392350535201     1.353193781153267
    C                0.619392277124693     1.044392350535201     2.031193781153267
    C               -0.388607722875307     2.192392350535201     0.165193781153267
    C                1.883392277124692     1.334392350535201     1.525193781153267
    C                0.872392277124693     2.484392350535201    -0.341806218846733
    C                1.998392277124693     2.051392350535201     0.343193781153267
    H               -1.492607722875307     1.239392350535201     1.742193781153268
    H                0.517392277124693     0.485392350535201     2.949193781153267
    H               -1.272607722875307     2.516392350535201    -0.364806218846733
    H                0.970392277124693     3.042392350535201    -1.262806218846732
    H                2.865392277124693     0.766392350535201     3.319193781153267
    H                3.881392277124693     1.637392350535201     2.174193781153267
    H                2.974392277124693     2.286392350535201    -0.055806218846733
    H                3.491292277124693    -0.089987649464799     1.899183781153267
    C                0.357392277124693    -0.810607649464799    -2.828806218846732
    C               -0.932607722875307    -1.910607649464799     0.560193781153267
    C               -2.235607722875307    -2.261607649464799     0.248193781153267
    C               -0.104607722875307    -1.407607649464799    -0.423806218846733
    C               -0.546607722875307    -1.297607649464799    -1.737806218846733
    C               -2.695607722875307    -2.128607649464799    -1.045806218846733
    C               -1.852607722875308    -1.655607649464799    -2.042806218846733
    H               -0.576607722875307    -1.996607649464799     1.577193781153267
    H               -2.896607722875307    -2.636607649464799     1.015193781153267
    H                0.886392277124693    -1.087607649464799    -0.159806218846733
    H               -3.718607722875307    -2.393607649464799    -1.277806218846733
    H                1.101392277124692    -0.129607649464799    -2.410806218846733
    H               -0.251607722875307    -0.233607649464799    -3.527806218846732
    H               -2.217607722875307    -1.543607649464799    -3.051806218846733
    H                0.864202277124693    -1.630237649464799    -3.359236218846732

}
e, wfn = energy('scf', return_wfn=True)
gdma(wfn)
dmavals = variable('DMA DISTRIBUTED MULTIPOLES')
charges = np.array(dmavals)
print(charges)
np.save('SSI-194PHE-198PHE-1-dimer.npy', np.array(charges))--------------------------------------------------------------------------

*** tstart() called on ds3
*** at Mon Apr 27 19:45:02 2020

   => Loading Basis Set <=

    Name: CC-PVDZ
    Role: ORBITAL
    Keyword: BASIS
    atoms 1-7, 16-22  entry C          line   138 file /theoryfs2/ds/metcalf/miniconda2/envs/tf2gpu/share/psi4/basis/cc-pvdz.gbs
    atoms 8-15, 23-30 entry H          line    22 file /theoryfs2/ds/metcalf/miniconda2/envs/tf2gpu/share/psi4/basis/cc-pvdz.gbs

         ---------------------------------------------------------
                                   SCF
               by Justin Turney, Rob Parrish, Andy Simmonett
                          and Daniel G. A. Smith
                              RHF Reference
                        1 Threads,    500 MiB Core
         ---------------------------------------------------------

  ==> Geometry <==

    Molecular point group: c1
    Full point group: C1

    Geometry (in Angstrom), charge = 0, multiplicity = 1:

       Center              X                  Y                   Z               Mass
    ------------   -----------------  -----------------  -----------------  -----------------
         C            3.105392277125     0.874392350535     2.261193781153    12.000000000000
         C           -0.510607722875     1.471392350535     1.353193781153    12.000000000000
         C            0.619392277125     1.044392350535     2.031193781153    12.000000000000
         C           -0.388607722875     2.192392350535     0.165193781153    12.000000000000
         C            1.883392277125     1.334392350535     1.525193781153    12.000000000000
         C            0.872392277125     2.484392350535    -0.341806218847    12.000000000000
         C            1.998392277125     2.051392350535     0.343193781153    12.000000000000
         H           -1.492607722875     1.239392350535     1.742193781153     1.007825032230
         H            0.517392277125     0.485392350535     2.949193781153     1.007825032230
         H           -1.272607722875     2.516392350535    -0.364806218847     1.007825032230
         H            0.970392277125     3.042392350535    -1.262806218847     1.007825032230
         H            2.865392277125     0.766392350535     3.319193781153     1.007825032230
         H            3.881392277125     1.637392350535     2.174193781153     1.007825032230
         H            2.974392277125     2.286392350535    -0.055806218847     1.007825032230
         H            3.491292277125    -0.089987649465     1.899183781153     1.007825032230
         C            0.357392277125    -0.810607649465    -2.828806218847    12.000000000000
         C           -0.932607722875    -1.910607649465     0.560193781153    12.000000000000
         C           -2.235607722875    -2.261607649465     0.248193781153    12.000000000000
         C           -0.104607722875    -1.407607649465    -0.423806218847    12.000000000000
         C           -0.546607722875    -1.297607649465    -1.737806218847    12.000000000000
         C           -2.695607722875    -2.128607649465    -1.045806218847    12.000000000000
         C           -1.852607722875    -1.655607649465    -2.042806218847    12.000000000000
         H           -0.576607722875    -1.996607649465     1.577193781153     1.007825032230
         H           -2.896607722875    -2.636607649465     1.015193781153     1.007825032230
         H            0.886392277125    -1.087607649465    -0.159806218847     1.007825032230
         H           -3.718607722875    -2.393607649465    -1.277806218847     1.007825032230
         H            1.101392277125    -0.129607649465    -2.410806218847     1.007825032230
         H           -0.251607722875    -0.233607649465    -3.527806218847     1.007825032230
         H           -2.217607722875    -1.543607649465    -3.051806218847     1.007825032230
         H            0.864202277125    -1.630237649465    -3.359236218847     1.007825032230

  Running in c1 symmetry.

  Rotational constants: A =      0.03720  B =      0.01384  C =      0.01273 [cm^-1]
  Rotational constants: A =   1115.08193  B =    414.84746  C =    381.51932 [MHz]
  Nuclear repulsion =  812.418166665645572

  Charge       = 0
  Multiplicity = 1
  Electrons    = 100
  Nalpha       = 50
  Nbeta        = 50

  ==> Algorithm <==

  SCF Algorithm Type is PK.
  DIIS enabled.
  MOM disabled.
  Fractional occupation disabled.
  Guess Type is SAD.
  Energy threshold   = 1.00e-06
  Density threshold  = 1.00e-10
  Integral threshold = 0.00e+00

  ==> Primary Basis <==

  Basis Set: CC-PVDZ
    Blend: CC-PVDZ
    Number of shells: 132
    Number of basis function: 276
    Number of Cartesian functions: 290
    Spherical Harmonics?: true
    Max angular momentum: 2

  ==> Pre-Iterations <==

   -------------------------------------------------------
    Irrep   Nso     Nmo     Nalpha   Nbeta   Ndocc  Nsocc
   -------------------------------------------------------
     A        276     276       0       0       0       0
   -------------------------------------------------------
    Total     276     276      50      50      50       0
   -------------------------------------------------------

  ==> Integral Setup <==

  Using integral reordering PK algorithm.
  Sizing the integral batches needed.
  Building batch lookup table.
   Calculation information:
      Number of atoms:                  30
      Number of AO shells:             132
      Number of primitives:            388
      Number of atomic orbitals:       290
      Number of basis functions:       276

      Integral cutoff                 1.00e-12
      Number of threads:                 1

	Batch   1 pq = [       0,    9405] index = [             0,44231715] size =     44231715
	Batch   2 pq = [    9405,   13301] index = [      44231715,88464951] size =     44233236
	Batch   3 pq = [   13301,   16290] index = [      88464951,132690195] size =     44225244
	Batch   4 pq = [   16290,   18810] index = [     132690195,176917455] size =     44227260
	Batch   5 pq = [   18810,   21030] index = [     176917455,221140965] size =     44223510
	Batch   6 pq = [   21030,   23037] index = [     221140965,265363203] size =     44222238
	Batch   7 pq = [   23037,   24883] index = [     265363203,309594286] size =     44231083
	Batch   8 pq = [   24883,   26601] index = [     309594286,353819901] size =     44225615
	Batch   9 pq = [   26601,   28214] index = [     353819901,398029005] size =     44209104
	Batch  10 pq = [   28214,   29740] index = [     398029005,442248670] size =     44219665
	Batch  11 pq = [   29740,   31191] index = [     442248670,486454836] size =     44206166
	Batch  12 pq = [   31191,   32578] index = [     486454836,530679331] size =     44224495
	Batch  13 pq = [   32578,   33908] index = [     530679331,574893186] size =     44213855
	Batch  14 pq = [   33908,   35188] index = [     574893186,619115266] size =     44222080
	Batch  15 pq = [   35188,   36423] index = [     619115266,663335676] size =     44220410
	Batch  16 pq = [   36423,   37617] index = [     663335676,707538153] size =     44202477
	Batch  17 pq = [   37617,   38226] index = [     707538153,730632651] size =     23094498
  Task number: 67
  Buffer size: 11059200
  Buffer per thread: 2
  We computed 44821392 shell quartets total.
  Whereas there are 38531031 unique shell quartets.
    16.33 percent of shell quartets recomputed by reordering.

  ==> DiskJK: Disk-Based J/K Matrices <==

    J tasked:                  Yes
    K tasked:                  Yes
    wK tasked:                  No
    Memory [MiB]:              375
    Schwarz Cutoff:          1E-12

    OpenMP threads:              1

  Minimum eigenvalue in the overlap matrix is 2.8724560294E-04.
  Using Symmetric Orthogonalization.

  SCF Guess: Superposition of Atomic Densities via on-the-fly atomic UHF.

  ==> Iterations <==

                        Total Energy        Delta E     RMS |[F,P]|

   @RHF iter SAD:  -538.53994236345738   -5.38540e+02   0.00000e+00
   @RHF iter   1:  -539.21999152137494   -6.80049e-01   2.33618e-03 DIIS
   @RHF iter   2:  -539.47486914094986   -2.54878e-01   9.72616e-04 DIIS
   @RHF iter   3:  -539.51397867984383   -3.91095e-02   2.22744e-04 DIIS
   @RHF iter   4:  -539.51720907715446   -3.23040e-03   6.09437e-05 DIIS
   @RHF iter   5:  -539.51738378531888   -1.74708e-04   1.65952e-05 DIIS
   @RHF iter   6:  -539.51739751999412   -1.37347e-05   4.69015e-06 DIIS
   @RHF iter   7:  -539.51739874964164   -1.22965e-06   1.02797e-06 DIIS
   @RHF iter   8:  -539.51739884555980   -9.59182e-08   3.50922e-07 DIIS
   @RHF iter   9:  -539.51739886419398   -1.86342e-08   1.77840e-07 DIIS
   @RHF iter  10:  -539.51739886876624   -4.57226e-09   8.78481e-08 DIIS
   @RHF iter  11:  -539.51739887046074   -1.69450e-09   3.41910e-08 DIIS
   @RHF iter  12:  -539.51739887065537   -1.94632e-10   1.49252e-08 DIIS
   @RHF iter  13:  -539.51739887068311   -2.77396e-11   3.93754e-09 DIIS
   @RHF iter  14:  -539.51739887068425   -1.13687e-12   1.02950e-09 DIIS
   @RHF iter  15:  -539.51739887068402    2.27374e-13   3.83063e-10 DIIS
   @RHF iter  16:  -539.51739887068288    1.13687e-12   1.37360e-10 DIIS
   @RHF iter  17:  -539.51739887068231    5.68434e-13   6.78905e-11 DIIS
  Energy and wave function converged.

  ==> Post-Iterations <==

    Orbital Energies [Eh]
    ---------------------

    Doubly Occupied:

       1A    -11.238858     2A    -11.234711     3A    -11.232549
       4A    -11.230663     5A    -11.229364     6A    -11.228808
       7A    -11.228652     8A    -11.227981     9A    -11.227081
      10A    -11.225782    11A    -11.222720    12A    -11.222506
      13A    -11.221982    14A    -11.218987    15A     -1.154710
      16A     -1.150047    17A     -1.044688    18A     -1.040621
      19A     -1.013515    20A     -1.007154    21A     -0.930866
      22A     -0.925336    23A     -0.824305    24A     -0.819793
      25A     -0.795885    26A     -0.789282    27A     -0.690578
      28A     -0.686825    29A     -0.632404    30A     -0.628755
      31A     -0.627140    32A     -0.622780    33A     -0.583591
      34A     -0.581068    35A     -0.575084    36A     -0.572786
      37A     -0.561255    38A     -0.556187    39A     -0.534751
      40A     -0.527595    41A     -0.492955    42A     -0.485274
      43A     -0.480970    44A     -0.479626    45A     -0.476703
      46A     -0.473551    47A     -0.339117    48A     -0.324378
      49A     -0.318926    50A     -0.313723

    Virtual:

      51A      0.134318    52A      0.136970    53A      0.145844
      54A      0.154188    55A      0.171485    56A      0.193543
      57A      0.198466    58A      0.202706    59A      0.223875
      60A      0.232427    61A      0.238159    62A      0.249907
      63A      0.256320    64A      0.262940    65A      0.268197
      66A      0.278097    67A      0.286806    68A      0.290940
      69A      0.310670    70A      0.322364    71A      0.370038
      72A      0.372403    73A      0.379507    74A      0.388829
      75A      0.454001    76A      0.461816    77A      0.464104
      78A      0.472738    79A      0.482591    80A      0.490936
      81A      0.491475    82A      0.498719    83A      0.563236
      84A      0.567919    85A      0.580808    86A      0.606482
      87A      0.616141    88A      0.639328    89A      0.655050
      90A      0.680030    91A      0.680772    92A      0.687118
      93A      0.692245    94A      0.700742    95A      0.708343
      96A      0.725545    97A      0.735571    98A      0.740904
      99A      0.742169   100A      0.748238   101A      0.751182
     102A      0.754440   103A      0.759564   104A      0.764641
     105A      0.775188   106A      0.778051   107A      0.780064
     108A      0.797980   109A      0.823421   110A      0.828578
     111A      0.835498   112A      0.856221   113A      0.860500
     114A      0.866722   115A      0.874612   116A      0.876756
     117A      0.883547   118A      0.898144   119A      0.899078
     120A      0.902896   121A      0.906849   122A      0.912896
     123A      0.913754   124A      0.929542   125A      0.936229
     126A      0.943381   127A      0.948391   128A      0.968289
     129A      0.983348   130A      0.996370   131A      1.006814
     132A      1.022080   133A      1.028613   134A      1.044383
     135A      1.054120   136A      1.059711   137A      1.122302
     138A      1.130085   139A      1.139223   140A      1.142797
     141A      1.153630   142A      1.161614   143A      1.162482
     144A      1.176827   145A      1.191900   146A      1.205214
     147A      1.232959   148A      1.241391   149A      1.253519
     150A      1.256806   151A      1.260604   152A      1.263473
     153A      1.276282   154A      1.296197   155A      1.305177
     156A      1.315286   157A      1.320375   158A      1.324664
     159A      1.332467   160A      1.337018   161A      1.347890
     162A      1.363530   163A      1.416750   164A      1.426146
     165A      1.493328   166A      1.518382   167A      1.533520
     168A      1.541055   169A      1.566575   170A      1.575727
     171A      1.596160   172A      1.626197   173A      1.672861
     174A      1.692120   175A      1.701590   176A      1.709821
     177A      1.734356   178A      1.747767   179A      1.757648
     180A      1.762913   181A      1.772689   182A      1.784794
     183A      1.797930   184A      1.806129   185A      1.816497
     186A      1.842614   187A      1.858088   188A      1.868956
     189A      1.890615   190A      1.898060   191A      1.902898
     192A      1.912260   193A      1.915822   194A      1.922416
     195A      1.925064   196A      1.931971   197A      1.933522
     198A      1.941217   199A      1.950762   200A      1.955240
     201A      1.965140   202A      1.969073   203A      1.974413
     204A      1.987911   205A      1.997016   206A      2.003059
     207A      2.005155   208A      2.024010   209A      2.044892
     210A      2.053201   211A      2.066752   212A      2.076796
     213A      2.086655   214A      2.089384   215A      2.116559
     216A      2.121025   217A      2.158032   218A      2.162193
     219A      2.164570   220A      2.172093   221A      2.177894
     222A      2.181381   223A      2.183672   224A      2.187959
     225A      2.194400   226A      2.206636   227A      2.261212
     228A      2.279585   229A      2.282875   230A      2.294361
     231A      2.298659   232A      2.300792   233A      2.306116
     234A      2.317041   235A      2.318586   236A      2.333019
     237A      2.345516   238A      2.349101   239A      2.473220
     240A      2.480559   241A      2.489484   242A      2.499663
     243A      2.507518   244A      2.520555   245A      2.549221
     246A      2.553818   247A      2.626220   248A      2.637387
     249A      2.747798   250A      2.751405   251A      2.763575
     252A      2.768501   253A      2.773044   254A      2.782555
     255A      2.800977   256A      2.808456   257A      2.812461
     258A      2.838156   259A      2.853479   260A      2.855153
     261A      2.877951   262A      2.893773   263A      2.994643
     264A      3.007228   265A      3.025781   266A      3.027848
     267A      3.038330   268A      3.049757   269A      3.162737
     270A      3.173108   271A      3.212655   272A      3.228944
     273A      3.308862   274A      3.326149   275A      3.984726
     276A      4.005882

    Final Occupation by Irrep:
              A
    DOCC [    50 ]

  @RHF Final Energy:  -539.51739887068231

   => Energetics <=

    Nuclear Repulsion Energy =            812.4181666656455718
    One-Electron Energy =               -2341.3653854496824351
    Two-Electron Energy =                 989.4298199133546632
    Total Energy =                       -539.5173988706823138

Computation Completed

Properties will be evaluated at   0.000000,   0.000000,   0.000000 [a0]

Properties computed using the SCF density matrix

  Nuclear Dipole Moment: [e a0]
     X:     4.8055      Y:     0.2177      Z:    -0.7447

  Electronic Dipole Moment: [e a0]
     X:    -4.6352      Y:    -0.1159      Z:     0.7556

  Dipole Moment: [e a0]
     X:     0.1703      Y:     0.1018      Z:     0.0109     Total:     0.1987

  Dipole Moment: [D]
     X:     0.4328      Y:     0.2589      Z:     0.0277     Total:     0.5051

*** tstop() called on ds3 at Mon Apr 27 19:56:07 2020
Module time:
	user time   =     354.95 seconds =       5.92 minutes
	system time =     112.26 seconds =       1.87 minutes
	total time  =        665 seconds =      11.08 minutes
Total time:
	user time   =     354.95 seconds =       5.92 minutes
	system time =     112.26 seconds =       1.87 minutes
	total time  =        665 seconds =      11.08 minutes
                                     G D M A

                                 by Anthony Stone

                           version 2.2.06, 22 June 2011

               Distributed Multipoles from Gaussian wavefunctions

Starting at 19:56:8 on 27 Apr 2020

Using SCF density matrix from file ./SSI/SSI-194PHE-198PHE-1-dimer.test.9522.fchk

                         Distributed Multipole Analysis

Standard DMA

Positions and radii in angstrom
Multipole moments in atomic units, ea_0^k for rank k

C          x =  3.105392  y =  0.874392  z =  2.261194 angstrom
           Maximum rank =  0   Radius =  0.650 angstrom
                   Q00  =  -0.196500

C          x = -0.510608  y =  1.471392  z =  1.353194 angstrom
           Maximum rank =  0   Radius =  0.650 angstrom
                   Q00  =  -0.043407

C          x =  0.619392  y =  1.044392  z =  2.031194 angstrom
           Maximum rank =  0   Radius =  0.650 angstrom
                   Q00  =  -0.092434

C          x = -0.388608  y =  2.192392  z =  0.165194 angstrom
           Maximum rank =  0   Radius =  0.650 angstrom
                   Q00  =  -0.083522

C          x =  1.883392  y =  1.334392  z =  1.525194 angstrom
           Maximum rank =  0   Radius =  0.650 angstrom
                   Q00  =  -0.103700

C          x =  0.872392  y =  2.484392  z = -0.341806 angstrom
           Maximum rank =  0   Radius =  0.650 angstrom
                   Q00  =  -0.069115

C          x =  1.998392  y =  2.051392  z =  0.343194 angstrom
           Maximum rank =  0   Radius =  0.650 angstrom
                   Q00  =  -0.006474

H          x = -1.492608  y =  1.239392  z =  1.742194 angstrom
           Maximum rank =  0   Radius =  0.325 angstrom
                   Q00  =   0.067039

H          x =  0.517392  y =  0.485392  z =  2.949194 angstrom
           Maximum rank =  0   Radius =  0.325 angstrom
                   Q00  =   0.054210

H          x = -1.272608  y =  2.516392  z = -0.364806 angstrom
           Maximum rank =  0   Radius =  0.325 angstrom
                   Q00  =   0.063127

H          x =  0.970392  y =  3.042392  z = -1.262806 angstrom
           Maximum rank =  0   Radius =  0.325 angstrom
                   Q00  =   0.064284

H          x =  2.865392  y =  0.766392  z =  3.319194 angstrom
           Maximum rank =  0   Radius =  0.325 angstrom
                   Q00  =   0.096539

H          x =  3.881392  y =  1.637392  z =  2.174194 angstrom
           Maximum rank =  0   Radius =  0.325 angstrom
                   Q00  =   0.098720

H          x =  2.974392  y =  2.286392  z = -0.055806 angstrom
           Maximum rank =  0   Radius =  0.325 angstrom
                   Q00  =   0.052775

H          x =  3.491292  y = -0.089988  z =  1.899184 angstrom
           Maximum rank =  0   Radius =  0.325 angstrom
                   Q00  =   0.101210

C          x =  0.357392  y = -0.810608  z = -2.828806 angstrom
           Maximum rank =  0   Radius =  0.650 angstrom
                   Q00  =  -0.199933

C          x = -0.932608  y = -1.910608  z =  0.560194 angstrom
           Maximum rank =  0   Radius =  0.650 angstrom
                   Q00  =  -0.079137

C          x = -2.235608  y = -2.261608  z =  0.248194 angstrom
           Maximum rank =  0   Radius =  0.650 angstrom
                   Q00  =  -0.079507

C          x = -0.104608  y = -1.407608  z = -0.423806 angstrom
           Maximum rank =  0   Radius =  0.650 angstrom
                   Q00  =   0.032120

C          x = -0.546608  y = -1.297608  z = -1.737806 angstrom
           Maximum rank =  0   Radius =  0.650 angstrom
                   Q00  =  -0.100514

C          x = -2.695608  y = -2.128608  z = -1.045806 angstrom
           Maximum rank =  0   Radius =  0.650 angstrom
                   Q00  =  -0.061810

C          x = -1.852608  y = -1.655608  z = -2.042806 angstrom
           Maximum rank =  0   Radius =  0.650 angstrom
                   Q00  =  -0.091083

H          x = -0.576608  y = -1.996608  z =  1.577194 angstrom
           Maximum rank =  0   Radius =  0.325 angstrom
                   Q00  =   0.056635

H          x = -2.896608  y = -2.636608  z =  1.015194 angstrom
           Maximum rank =  0   Radius =  0.325 angstrom
                   Q00  =   0.054508

H          x =  0.886392  y = -1.087608  z = -0.159806 angstrom
           Maximum rank =  0   Radius =  0.325 angstrom
                   Q00  =   0.057602

H          x = -3.718608  y = -2.393608  z = -1.277806 angstrom
           Maximum rank =  0   Radius =  0.325 angstrom
                   Q00  =   0.058989

H          x =  1.101392  y = -0.129608  z = -2.410806 angstrom
           Maximum rank =  0   Radius =  0.325 angstrom
                   Q00  =   0.102628

H          x = -0.251608  y = -0.233608  z = -3.527806 angstrom
           Maximum rank =  0   Radius =  0.325 angstrom
                   Q00  =   0.091981

H          x = -2.217608  y = -1.543608  z = -3.051806 angstrom
           Maximum rank =  0   Radius =  0.325 angstrom
                   Q00  =   0.052500

H          x =  0.864202  y = -1.630238  z = -3.359236 angstrom
           Maximum rank =  0   Radius =  0.325 angstrom
                   Q00  =   0.102271

Total multipoles referred to origin at
           x =   0.000000,  y =    0.000000,  z =    0.000000 angstrom
                   Q00  =  -0.000000

Finished at 19:56:8 on 27 Apr 2020

  DMA results are available in the Python driver through the
	  variable('DMA DISTRIBUTED MULTIPOLES')
  and
	  variable('DMA TOTAL MULTIPOLES')
  commands.

    Psi4 stopped on: Monday, 27 April 2020 07:56PM
    Psi4 wall time for execution: 0:11:05.25

*** Psi4 exiting successfully. Buy a developer a beer!
