                               Psi4 1.3.2 release

  ==> Input File <==

--------------------------------------------------------------------------
import numpy as np
set {scf_type pk
basis cc-pvdz
d_convergence 10
gdma_switch   0
gdma_limit    0
gdma_origin   [ 0.0,  0.0,  0.0 ]
}
molecule test {
    units Angstrom
    0 1
    --
    0 1
    C                1.132096018322365    -1.317431644471840    -0.909443801391926
    C                1.179096018322365    -2.787431644471840    -1.436443801391926
    H                1.376096018322365    -0.623431644471840    -1.713443801391926
    H                0.131096018322365    -1.092431644471840    -0.538443801391926
    H                1.847096018322365    -1.191431644471840    -0.095443801391926
    H                0.859096018322365    -3.447431644471840    -0.630443801391926
    H                2.199316018322365    -3.037941644471840    -1.762643801391926
    H                0.470606018322365    -2.923571644471840    -2.266813801391926
    C               -0.963903981677635     1.496568355528160     0.709556198608074
    C               -1.350903981677635     2.613568355528160     1.630556198608074
    H               -1.539903981677635     1.531568355528160    -0.215443801391926
    H                0.095096018322365     1.584568355528160     0.459556198608074
    H               -1.118903981677635     0.534568355528160     1.199556198608074
    H               -0.674903981677635     2.579568355528160     2.485556198608074
    H               -2.371183981677635     2.427748355528160     1.997296198608074
    H               -1.230451981677635     3.595428355528160     1.149476198608074

}
e, wfn = energy('scf', return_wfn=True)
gdma(wfn)
dmavals = variable('DMA DISTRIBUTED MULTIPOLES')
charges = np.array(dmavals)
print(charges)
np.save('SSI-056ALA-061VAL-1-dimer.npy', np.array(charges))--------------------------------------------------------------------------

*** tstart() called on ds3
*** at Sun Apr 26 20:01:05 2020

   => Loading Basis Set <=

    Name: CC-PVDZ
    Role: ORBITAL
    Keyword: BASIS
    atoms 1-2, 9-10  entry C          line   138 file /theoryfs2/ds/metcalf/miniconda2/envs/tf2gpu/share/psi4/basis/cc-pvdz.gbs
    atoms 3-8, 11-16 entry H          line    22 file /theoryfs2/ds/metcalf/miniconda2/envs/tf2gpu/share/psi4/basis/cc-pvdz.gbs

         ---------------------------------------------------------
                                   SCF
               by Justin Turney, Rob Parrish, Andy Simmonett
                          and Daniel G. A. Smith
                              RHF Reference
                        1 Threads,    500 MiB Core
         ---------------------------------------------------------

  ==> Geometry <==

    Molecular point group: c1
    Full point group: C1

    Geometry (in Angstrom), charge = 0, multiplicity = 1:

       Center              X                  Y                   Z               Mass
    ------------   -----------------  -----------------  -----------------  -----------------
         C            1.132096018322    -1.317431644472    -0.909443801392    12.000000000000
         C            1.179096018322    -2.787431644472    -1.436443801392    12.000000000000
         H            1.376096018322    -0.623431644472    -1.713443801392     1.007825032230
         H            0.131096018322    -1.092431644472    -0.538443801392     1.007825032230
         H            1.847096018322    -1.191431644472    -0.095443801392     1.007825032230
         H            0.859096018322    -3.447431644472    -0.630443801392     1.007825032230
         H            2.199316018322    -3.037941644472    -1.762643801392     1.007825032230
         H            0.470606018322    -2.923571644472    -2.266813801392     1.007825032230
         C           -0.963903981678     1.496568355528     0.709556198608    12.000000000000
         C           -1.350903981678     2.613568355528     1.630556198608    12.000000000000
         H           -1.539903981678     1.531568355528    -0.215443801392     1.007825032230
         H            0.095096018322     1.584568355528     0.459556198608     1.007825032230
         H           -1.118903981678     0.534568355528     1.199556198608     1.007825032230
         H           -0.674903981678     2.579568355528     2.485556198608     1.007825032230
         H           -2.371183981678     2.427748355528     1.997296198608     1.007825032230
         H           -1.230451981678     3.595428355528     1.149476198608     1.007825032230

  Running in c1 symmetry.

  Rotational constants: A =      0.96412  B =      0.03650  C =      0.03625 [cm^-1]
  Rotational constants: A =  28903.66875  B =   1094.15965  C =   1086.74430 [MHz]
  Nuclear repulsion =  118.402218517325508

  Charge       = 0
  Multiplicity = 1
  Electrons    = 36
  Nalpha       = 18
  Nbeta        = 18

  ==> Algorithm <==

  SCF Algorithm Type is PK.
  DIIS enabled.
  MOM disabled.
  Fractional occupation disabled.
  Guess Type is SAD.
  Energy threshold   = 1.00e-06
  Density threshold  = 1.00e-10
  Integral threshold = 0.00e+00

  ==> Primary Basis <==

  Basis Set: CC-PVDZ
    Blend: CC-PVDZ
    Number of shells: 60
    Number of basis function: 116
    Number of Cartesian functions: 120
    Spherical Harmonics?: true
    Max angular momentum: 2

  ==> Pre-Iterations <==

   -------------------------------------------------------
    Irrep   Nso     Nmo     Nalpha   Nbeta   Ndocc  Nsocc
   -------------------------------------------------------
     A        116     116       0       0       0       0
   -------------------------------------------------------
    Total     116     116      18      18      18       0
   -------------------------------------------------------

  ==> Integral Setup <==

  Using integral reordering PK algorithm.
  Sizing the integral batches needed.
  Building batch lookup table.
   Calculation information:
      Number of atoms:                  16
      Number of AO shells:              60
      Number of primitives:            148
      Number of atomic orbitals:       120
      Number of basis functions:       116

      Integral cutoff                 1.00e-12
      Number of threads:                 1

	Batch   1 pq = [       0,    6786] index = [             0,23028291] size =     23028291
  Task number: 3
  Buffer size: 11059200
  Buffer per thread: 2
  We computed 1282407 shell quartets total.
  Whereas there are 1675365 unique shell quartets.

  ==> DiskJK: Disk-Based J/K Matrices <==

    J tasked:                  Yes
    K tasked:                  Yes
    wK tasked:                  No
    Memory [MiB]:              375
    Schwarz Cutoff:          1E-12

    OpenMP threads:              1

  Minimum eigenvalue in the overlap matrix is 5.9023672538E-03.
  Using Symmetric Orthogonalization.

  SCF Guess: Superposition of Atomic Densities via on-the-fly atomic UHF.

  ==> Iterations <==

                        Total Energy        Delta E     RMS |[F,P]|

   @RHF iter SAD:  -157.33318510036611   -1.57333e+02   0.00000e+00
   @RHF iter   1:  -158.30652714094444   -9.73342e-01   4.21547e-03 DIIS
   @RHF iter   2:  -158.43983801157299   -1.33311e-01   1.80205e-03 DIIS
   @RHF iter   3:  -158.46338307695902   -2.35451e-02   3.50007e-04 DIIS
   @RHF iter   4:  -158.46521829651442   -1.83522e-03   3.96661e-05 DIIS
   @RHF iter   5:  -158.46524269208294   -2.43956e-05   7.89530e-06 DIIS
   @RHF iter   6:  -158.46524348989047   -7.97808e-07   1.93357e-06 DIIS
   @RHF iter   7:  -158.46524352461265   -3.47222e-08   3.23453e-07 DIIS
   @RHF iter   8:  -158.46524352589304   -1.28040e-09   4.86061e-08 DIIS
   @RHF iter   9:  -158.46524352593471   -4.16662e-11   1.20339e-08 DIIS
   @RHF iter  10:  -158.46524352593639   -1.67688e-12   3.54733e-09 DIIS
   @RHF iter  11:  -158.46524352593653   -1.42109e-13   7.66428e-10 DIIS
   @RHF iter  12:  -158.46524352593670   -1.70530e-13   1.35553e-10 DIIS
   @RHF iter  13:  -158.46524352593664    5.68434e-14   2.66158e-11 DIIS
  Energy and wave function converged.

  ==> Post-Iterations <==

    Orbital Energies [Eh]
    ---------------------

    Doubly Occupied:

       1A    -11.221192     2A    -11.218350     3A    -11.216919
       4A    -11.214063     5A     -1.026009     6A     -1.009218
       7A     -0.839055     8A     -0.831816     9A     -0.604235
      10A     -0.599470    11A     -0.595296    12A     -0.591737
      13A     -0.507759    14A     -0.491804    15A     -0.488798
      16A     -0.486060    17A     -0.484296    18A     -0.478174

    Virtual:

      19A      0.177332    20A      0.192160    21A      0.219344
      22A      0.234772    23A      0.248578    24A      0.260844
      25A      0.263741    26A      0.276033    27A      0.281646
      28A      0.286355    29A      0.291189    30A      0.316737
      31A      0.392349    32A      0.417843    33A      0.576439
      34A      0.590748    35A      0.598010    36A      0.602413
      37A      0.607915    38A      0.653680    39A      0.669022
      40A      0.686480    41A      0.705623    42A      0.725379
      43A      0.833012    44A      0.882637    45A      0.887695
      46A      0.892438    47A      0.893726    48A      0.894779
      49A      0.898898    50A      0.905653    51A      0.913269
      52A      0.916940    53A      0.928325    54A      0.943738
      55A      0.963163    56A      1.009138    57A      1.122519
      58A      1.125557    59A      1.125998    60A      1.134759
      61A      1.236108    62A      1.238418    63A      1.465518
      64A      1.470754    65A      1.478378    66A      1.493526
      67A      1.569748    68A      1.595740    69A      1.673675
      70A      1.679802    71A      1.693151    72A      1.694553
      73A      1.842837    74A      1.845815    75A      1.862245
      76A      1.873195    77A      1.888504    78A      1.922619
      79A      1.926952    80A      1.935429    81A      1.942557
      82A      1.946933    83A      1.948935    84A      1.954041
      85A      1.962222    86A      1.979840    87A      1.987522
      88A      2.047725    89A      2.093994    90A      2.098024
      91A      2.114244    92A      2.132304    93A      2.285479
      94A      2.304583    95A      2.316922    96A      2.332537
      97A      2.442088    98A      2.449676    99A      2.464661
     100A      2.476819   101A      2.555768   102A      2.564976
     103A      2.569247   104A      2.579550   105A      2.754570
     106A      2.763219   107A      2.781430   108A      2.795176
     109A      2.833325   110A      2.840930   111A      2.850117
     112A      2.869053   113A      2.938298   114A      2.945394
     115A      2.956957   116A      2.962531

    Final Occupation by Irrep:
              A
    DOCC [    18 ]

  @RHF Final Energy:  -158.46524352593664

   => Energetics <=

    Nuclear Repulsion Energy =            118.4022185173255082
    One-Electron Energy =                -445.9264143702019965
    Two-Electron Energy =                 169.0589523269398171
    Total Energy =                       -158.4652435259366428

Computation Completed

Properties will be evaluated at   0.000000,   0.000000,   0.000000 [a0]

Properties computed using the SCF density matrix

  Nuclear Dipole Moment: [e a0]
     X:     0.0404      Y:    -0.0589      Z:     0.0645

  Electronic Dipole Moment: [e a0]
     X:    -0.0375      Y:     0.0615      Z:    -0.0500

  Dipole Moment: [e a0]
     X:     0.0028      Y:     0.0026      Z:     0.0144     Total:     0.0149

  Dipole Moment: [D]
     X:     0.0072      Y:     0.0066      Z:     0.0367     Total:     0.0379

*** tstop() called on ds3 at Sun Apr 26 20:01:14 2020
Module time:
	user time   =       6.23 seconds =       0.10 minutes
	system time =       2.69 seconds =       0.04 minutes
	total time  =          9 seconds =       0.15 minutes
Total time:
	user time   =       6.23 seconds =       0.10 minutes
	system time =       2.69 seconds =       0.04 minutes
	total time  =          9 seconds =       0.15 minutes
                                     G D M A

                                 by Anthony Stone

                           version 2.2.06, 22 June 2011

               Distributed Multipoles from Gaussian wavefunctions

Starting at 20:1:14 on 26 Apr 2020

Using SCF density matrix from file ./SSI/SSI-056ALA-061VAL-1-dimer.test.10512.fchk

                         Distributed Multipole Analysis

Standard DMA

Positions and radii in angstrom
Multipole moments in atomic units, ea_0^k for rank k

C          x =  1.132096  y = -1.317432  z = -0.909444 angstrom
           Maximum rank =  0   Radius =  0.650 angstrom
                   Q00  =  -0.248489

C          x =  1.179096  y = -2.787432  z = -1.436444 angstrom
           Maximum rank =  0   Radius =  0.650 angstrom
                   Q00  =  -0.245482

H          x =  1.376096  y = -0.623432  z = -1.713444 angstrom
           Maximum rank =  0   Radius =  0.325 angstrom
                   Q00  =   0.081367

H          x =  0.131096  y = -1.092432  z = -0.538444 angstrom
           Maximum rank =  0   Radius =  0.325 angstrom
                   Q00  =   0.085240

H          x =  1.847096  y = -1.191432  z = -0.095444 angstrom
           Maximum rank =  0   Radius =  0.325 angstrom
                   Q00  =   0.081184

H          x =  0.859096  y = -3.447432  z = -0.630444 angstrom
           Maximum rank =  0   Radius =  0.325 angstrom
                   Q00  =   0.080965

H          x =  2.199316  y = -3.037942  z = -1.762644 angstrom
           Maximum rank =  0   Radius =  0.325 angstrom
                   Q00  =   0.082738

H          x =  0.470606  y = -2.923572  z = -2.266814 angstrom
           Maximum rank =  0   Radius =  0.325 angstrom
                   Q00  =   0.081532

C          x = -0.963904  y =  1.496568  z =  0.709556 angstrom
           Maximum rank =  0   Radius =  0.650 angstrom
                   Q00  =  -0.231024

C          x = -1.350904  y =  2.613568  z =  1.630556 angstrom
           Maximum rank =  0   Radius =  0.650 angstrom
                   Q00  =  -0.223556

H          x = -1.539904  y =  1.531568  z = -0.215444 angstrom
           Maximum rank =  0   Radius =  0.325 angstrom
                   Q00  =   0.075725

H          x =  0.095096  y =  1.584568  z =  0.459556 angstrom
           Maximum rank =  0   Radius =  0.325 angstrom
                   Q00  =   0.075482

H          x = -1.118904  y =  0.534568  z =  1.199556 angstrom
           Maximum rank =  0   Radius =  0.325 angstrom
                   Q00  =   0.074950

H          x = -0.674904  y =  2.579568  z =  2.485556 angstrom
           Maximum rank =  0   Radius =  0.325 angstrom
                   Q00  =   0.073684

H          x = -2.371184  y =  2.427748  z =  1.997296 angstrom
           Maximum rank =  0   Radius =  0.325 angstrom
                   Q00  =   0.075637

H          x = -1.230452  y =  3.595428  z =  1.149476 angstrom
           Maximum rank =  0   Radius =  0.325 angstrom
                   Q00  =   0.080046

Total multipoles referred to origin at
           x =   0.000000,  y =    0.000000,  z =    0.000000 angstrom
                   Q00  =  -0.000000

Finished at 20:1:14 on 26 Apr 2020

  DMA results are available in the Python driver through the
	  variable('DMA DISTRIBUTED MULTIPOLES')
  and
	  variable('DMA TOTAL MULTIPOLES')
  commands.

    Psi4 stopped on: Sunday, 26 April 2020 08:01PM
    Psi4 wall time for execution: 0:00:09.01

*** Psi4 exiting successfully. Buy a developer a beer!
