                               Psi4 1.3.2 release

  ==> Input File <==

--------------------------------------------------------------------------
import numpy as np
set {scf_type pk
basis cc-pvdz
d_convergence 10
gdma_switch   0
gdma_limit    0
gdma_origin   [ 0.0,  0.0,  0.0 ]
}
molecule test {
    units Angstrom
    0 1
    --
    0 1
    C                0.530974432834164     0.593181408377839    -0.964372030163737
    C                1.014974432834164     1.000181408377839    -2.377372030163737
    C                1.600974432834164     0.928181408377839     0.098627969836263
    O               -0.695025567165836     1.305181408377839    -0.681372030163737
    H                0.331974432834164    -0.478818591622161    -0.942372030163737
    H                1.109974432834163     2.087181408377839    -2.401372030163737
    H                1.915974432834163     1.966181408377839    -0.026372030163737
    H                1.174974432834163     0.789181408377839     1.093627969836263
    H                2.458974432834164     0.261181408377839    -0.002372030163737
    H               -1.121025567165836     0.895181408377839     0.082627969836263
    H                0.302596432834164     0.644741408377839    -3.136442030163737
    H                1.989663432834163     0.534181408377839    -2.584322030163736
    C               -1.507025567165837    -1.268818591622161     1.733627969836263
    C               -0.818025567165836    -2.583818591622161     2.117627969836263
    H               -2.055025567165837    -0.872818591622161     2.589627969836263
    H               -0.750025567165836    -0.537818591622161     1.465627969836263
    H               -2.196025567165836    -1.423818591622161     0.900627969836263
    H               -0.115025567165836    -2.415818591622161     2.922627969836264
    H               -1.528950567165837    -3.380138591622161     2.383067969836264
    H               -0.273384567165836    -2.933678591622161     1.228267969836263

}
e, wfn = energy('scf', return_wfn=True)
gdma(wfn)
dmavals = variable('DMA DISTRIBUTED MULTIPOLES')
charges = np.array(dmavals)
print(charges)
np.save('SSI-065THR-082LEU-1-dimer.npy', np.array(charges))--------------------------------------------------------------------------

*** tstart() called on ds3
*** at Mon Apr 27 21:11:17 2020

   => Loading Basis Set <=

    Name: CC-PVDZ
    Role: ORBITAL
    Keyword: BASIS
    atoms 1-3, 13-14  entry C          line   138 file /theoryfs2/ds/metcalf/miniconda2/envs/tf2gpu/share/psi4/basis/cc-pvdz.gbs
    atoms 4           entry O          line   198 file /theoryfs2/ds/metcalf/miniconda2/envs/tf2gpu/share/psi4/basis/cc-pvdz.gbs
    atoms 5-12, 15-20 entry H          line    22 file /theoryfs2/ds/metcalf/miniconda2/envs/tf2gpu/share/psi4/basis/cc-pvdz.gbs

         ---------------------------------------------------------
                                   SCF
               by Justin Turney, Rob Parrish, Andy Simmonett
                          and Daniel G. A. Smith
                              RHF Reference
                        1 Threads,    500 MiB Core
         ---------------------------------------------------------

  ==> Geometry <==

    Molecular point group: c1
    Full point group: C1

    Geometry (in Angstrom), charge = 0, multiplicity = 1:

       Center              X                  Y                   Z               Mass
    ------------   -----------------  -----------------  -----------------  -----------------
         C            0.530974432834     0.593181408378    -0.964372030164    12.000000000000
         C            1.014974432834     1.000181408378    -2.377372030164    12.000000000000
         C            1.600974432834     0.928181408378     0.098627969836    12.000000000000
         O           -0.695025567166     1.305181408378    -0.681372030164    15.994914619570
         H            0.331974432834    -0.478818591622    -0.942372030164     1.007825032230
         H            1.109974432834     2.087181408378    -2.401372030164     1.007825032230
         H            1.915974432834     1.966181408378    -0.026372030164     1.007825032230
         H            1.174974432834     0.789181408378     1.093627969836     1.007825032230
         H            2.458974432834     0.261181408378    -0.002372030164     1.007825032230
         H           -1.121025567166     0.895181408378     0.082627969836     1.007825032230
         H            0.302596432834     0.644741408378    -3.136442030164     1.007825032230
         H            1.989663432834     0.534181408378    -2.584322030164     1.007825032230
         C           -1.507025567166    -1.268818591622     1.733627969836    12.000000000000
         C           -0.818025567166    -2.583818591622     2.117627969836    12.000000000000
         H           -2.055025567166    -0.872818591622     2.589627969836     1.007825032230
         H           -0.750025567166    -0.537818591622     1.465627969836     1.007825032230
         H           -2.196025567166    -1.423818591622     0.900627969836     1.007825032230
         H           -0.115025567166    -2.415818591622     2.922627969836     1.007825032230
         H           -1.528950567166    -3.380138591622     2.383067969836     1.007825032230
         H           -0.273384567166    -2.933678591622     1.228267969836     1.007825032230

  Running in c1 symmetry.

  Rotational constants: A =      0.16365  B =      0.03555  C =      0.03363 [cm^-1]
  Rotational constants: A =   4906.09355  B =   1065.70053  C =   1008.26623 [MHz]
  Nuclear repulsion =  247.525540220174918

  Charge       = 0
  Multiplicity = 1
  Electrons    = 52
  Nalpha       = 26
  Nbeta        = 26

  ==> Algorithm <==

  SCF Algorithm Type is PK.
  DIIS enabled.
  MOM disabled.
  Fractional occupation disabled.
  Guess Type is SAD.
  Energy threshold   = 1.00e-06
  Density threshold  = 1.00e-10
  Integral threshold = 0.00e+00

  ==> Primary Basis <==

  Basis Set: CC-PVDZ
    Blend: CC-PVDZ
    Number of shells: 78
    Number of basis function: 154
    Number of Cartesian functions: 160
    Spherical Harmonics?: true
    Max angular momentum: 2

  ==> Pre-Iterations <==

   -------------------------------------------------------
    Irrep   Nso     Nmo     Nalpha   Nbeta   Ndocc  Nsocc
   -------------------------------------------------------
     A        154     154       0       0       0       0
   -------------------------------------------------------
    Total     154     154      26      26      26       0
   -------------------------------------------------------

  ==> Integral Setup <==

  Using integral reordering PK algorithm.
  Sizing the integral batches needed.
  Building batch lookup table.
   Calculation information:
      Number of atoms:                  20
      Number of AO shells:              78
      Number of primitives:            202
      Number of atomic orbitals:       160
      Number of basis functions:       154

      Integral cutoff                 1.00e-12
      Number of threads:                 1

	Batch   1 pq = [       0,    9405] index = [             0,44231715] size =     44231715
	Batch   2 pq = [    9405,   11935] index = [      44231715,71228080] size =     26996365
  Task number: 7
  Buffer size: 11059200
  Buffer per thread: 2
  We computed 4112190 shell quartets total.
  Whereas there are 4747821 unique shell quartets.

  ==> DiskJK: Disk-Based J/K Matrices <==

    J tasked:                  Yes
    K tasked:                  Yes
    wK tasked:                  No
    Memory [MiB]:              375
    Schwarz Cutoff:          1E-12

    OpenMP threads:              1

  Minimum eigenvalue in the overlap matrix is 4.7084007819E-03.
  Using Symmetric Orthogonalization.

  SCF Guess: Superposition of Atomic Densities via on-the-fly atomic UHF.

  ==> Iterations <==

                        Total Energy        Delta E     RMS |[F,P]|

   @RHF iter SAD:  -271.00486373582316   -2.71005e+02   0.00000e+00
   @RHF iter   1:  -272.14709513521046   -1.14223e+00   3.85860e-03 DIIS
   @RHF iter   2:  -272.32773918604306   -1.80644e-01   1.76060e-03 DIIS
   @RHF iter   3:  -272.36091734883792   -3.31782e-02   3.52812e-04 DIIS
   @RHF iter   4:  -272.36339509723359   -2.47775e-03   1.19345e-04 DIIS
   @RHF iter   5:  -272.36357421166491   -1.79114e-04   2.17372e-05 DIIS
   @RHF iter   6:  -272.36358338760442   -9.17594e-06   4.37559e-06 DIIS
   @RHF iter   7:  -272.36358381715110   -4.29547e-07   1.30121e-06 DIIS
   @RHF iter   8:  -272.36358385132189   -3.41708e-08   3.46841e-07 DIIS
   @RHF iter   9:  -272.36358385491616   -3.59427e-09   7.96938e-08 DIIS
   @RHF iter  10:  -272.36358385511085   -1.94689e-10   2.36918e-08 DIIS
   @RHF iter  11:  -272.36358385512403   -1.31877e-11   6.13362e-09 DIIS
   @RHF iter  12:  -272.36358385512517   -1.13687e-12   1.68275e-09 DIIS
   @RHF iter  13:  -272.36358385512540   -2.27374e-13   4.56238e-10 DIIS
   @RHF iter  14:  -272.36358385512426    1.13687e-12   1.10450e-10 DIIS
   @RHF iter  15:  -272.36358385512523   -9.66338e-13   3.75350e-11 DIIS
  Energy and wave function converged.

  ==> Post-Iterations <==

    Orbital Energies [Eh]
    ---------------------

    Doubly Occupied:

       1A    -20.543955     2A    -11.281414     3A    -11.230336
       4A    -11.227967     5A    -11.220988     6A    -11.220448
       7A     -1.340824     8A     -1.034587     9A     -1.028935
      10A     -0.931633    11A     -0.850067    12A     -0.793427
      13A     -0.690478    14A     -0.614081    15A     -0.609100
      16A     -0.606540    17A     -0.591993    18A     -0.546557
      19A     -0.537660    20A     -0.518137    21A     -0.511841
      22A     -0.505115    23A     -0.502338    24A     -0.490485
      25A     -0.461652    26A     -0.426867

    Virtual:

      27A      0.158942    28A      0.196469    29A      0.209903
      30A      0.213787    31A      0.235997    32A      0.248190
      33A      0.248949    34A      0.259053    35A      0.268506
      36A      0.280064    37A      0.291330    38A      0.303395
      39A      0.309955    40A      0.345436    41A      0.383030
      42A      0.394907    43A      0.415532    44A      0.425322
      45A      0.569630    46A      0.579806    47A      0.598055
      48A      0.623606    49A      0.636261    50A      0.652420
      51A      0.668739    52A      0.689938    53A      0.703762
      54A      0.739650    55A      0.786741    56A      0.807005
      57A      0.816757    58A      0.850398    59A      0.859606
      60A      0.870557    61A      0.881418    62A      0.883769
      63A      0.888001    64A      0.896090    65A      0.902130
      66A      0.909167    67A      0.913175    68A      0.922638
      69A      0.933311    70A      0.942109    71A      0.967501
      72A      0.979455    73A      1.039823    74A      1.119487
      75A      1.120800    76A      1.131697    77A      1.142195
      78A      1.165208    79A      1.284110    80A      1.313858
      81A      1.344217    82A      1.385546    83A      1.433648
      84A      1.453726    85A      1.474581    86A      1.482781
      87A      1.516746    88A      1.576707    89A      1.605365
      90A      1.627651    91A      1.664492    92A      1.673422
      93A      1.681416    94A      1.690537    95A      1.699136
      96A      1.733221    97A      1.804061    98A      1.832198
      99A      1.847031   100A      1.861695   101A      1.877888
     102A      1.882692   103A      1.903791   104A      1.924619
     105A      1.929458   106A      1.942567   107A      1.946143
     108A      1.958855   109A      1.964220   110A      1.967503
     111A      1.975492   112A      1.997741   113A      2.008005
     114A      2.016420   115A      2.056853   116A      2.078213
     117A      2.111201   118A      2.126257   119A      2.159938
     120A      2.196124   121A      2.250152   122A      2.284498
     123A      2.291980   124A      2.310729   125A      2.311640
     126A      2.370040   127A      2.437779   128A      2.450776
     129A      2.467430   130A      2.508164   131A      2.530389
     132A      2.550479   133A      2.553405   134A      2.592052
     135A      2.603730   136A      2.630588   137A      2.746684
     138A      2.758515   139A      2.776773   140A      2.788307
     141A      2.793632   142A      2.824848   143A      2.828136
     144A      2.854901   145A      2.878869   146A      2.899899
     147A      2.951309   148A      2.968531   149A      2.994922
     150A      3.330430   151A      3.401742   152A      3.460862
     153A      3.651183   154A      4.147785

    Final Occupation by Irrep:
              A
    DOCC [    26 ]

  @RHF Final Energy:  -272.36358385512523

   => Energetics <=

    Nuclear Repulsion Energy =            247.5255402201749177
    One-Electron Energy =                -859.1434005992998664
    Two-Electron Energy =                 339.2542765239997493
    Total Energy =                       -272.3635838551252277

Computation Completed

Properties will be evaluated at   0.000000,   0.000000,   0.000000 [a0]

Properties computed using the SCF density matrix

  Nuclear Dipole Moment: [e a0]
     X:     1.1635      Y:    -4.5546      Z:     3.3462

  Electronic Dipole Moment: [e a0]
     X:    -0.9324      Y:     3.9610      Z:    -2.9779

  Dipole Moment: [e a0]
     X:     0.2311      Y:    -0.5936      Z:     0.3682     Total:     0.7358

  Dipole Moment: [D]
     X:     0.5874      Y:    -1.5088      Z:     0.9359     Total:     1.8701

*** tstop() called on ds3 at Mon Apr 27 21:12:05 2020
Module time:
	user time   =      22.70 seconds =       0.38 minutes
	system time =       8.87 seconds =       0.15 minutes
	total time  =         48 seconds =       0.80 minutes
Total time:
	user time   =      22.70 seconds =       0.38 minutes
	system time =       8.87 seconds =       0.15 minutes
	total time  =         48 seconds =       0.80 minutes
                                     G D M A

                                 by Anthony Stone

                           version 2.2.06, 22 June 2011

               Distributed Multipoles from Gaussian wavefunctions

Starting at 21:12:5 on 27 Apr 2020

Using SCF density matrix from file ./SSI/SSI-065THR-082LEU-1-dimer.test.24767.fchk

                         Distributed Multipole Analysis

Standard DMA

Positions and radii in angstrom
Multipole moments in atomic units, ea_0^k for rank k

C          x =  0.530974  y =  0.593181  z = -0.964372 angstrom
           Maximum rank =  0   Radius =  0.650 angstrom
                   Q00  =   0.147083

C          x =  1.014974  y =  1.000181  z = -2.377372 angstrom
           Maximum rank =  0   Radius =  0.650 angstrom
                   Q00  =  -0.219130

C          x =  1.600974  y =  0.928181  z =  0.098628 angstrom
           Maximum rank =  0   Radius =  0.650 angstrom
                   Q00  =  -0.267804

O          x = -0.695026  y =  1.305181  z = -0.681372 angstrom
           Maximum rank =  0   Radius =  0.650 angstrom
                   Q00  =  -0.603628

H          x =  0.331974  y = -0.478819  z = -0.942372 angstrom
           Maximum rank =  0   Radius =  0.325 angstrom
                   Q00  =   0.011694

H          x =  1.109974  y =  2.087181  z = -2.401372 angstrom
           Maximum rank =  0   Radius =  0.325 angstrom
                   Q00  =   0.097334

H          x =  1.915974  y =  1.966181  z = -0.026372 angstrom
           Maximum rank =  0   Radius =  0.325 angstrom
                   Q00  =   0.093400

H          x =  1.174974  y =  0.789181  z =  1.093628 angstrom
           Maximum rank =  0   Radius =  0.325 angstrom
                   Q00  =   0.085434

H          x =  2.458974  y =  0.261181  z = -0.002372 angstrom
           Maximum rank =  0   Radius =  0.325 angstrom
                   Q00  =   0.080542

H          x = -1.121026  y =  0.895181  z =  0.082628 angstrom
           Maximum rank =  0   Radius =  0.325 angstrom
                   Q00  =   0.402964

H          x =  0.302596  y =  0.644741  z = -3.136442 angstrom
           Maximum rank =  0   Radius =  0.325 angstrom
                   Q00  =   0.096426

H          x =  1.989663  y =  0.534181  z = -2.584322 angstrom
           Maximum rank =  0   Radius =  0.325 angstrom
                   Q00  =   0.078839

C          x = -1.507026  y = -1.268819  z =  1.733628 angstrom
           Maximum rank =  0   Radius =  0.650 angstrom
                   Q00  =  -0.259985

C          x = -0.818026  y = -2.583819  z =  2.117628 angstrom
           Maximum rank =  0   Radius =  0.650 angstrom
                   Q00  =  -0.224181

H          x = -2.055026  y = -0.872819  z =  2.589628 angstrom
           Maximum rank =  0   Radius =  0.325 angstrom
                   Q00  =   0.085306

H          x = -0.750026  y = -0.537819  z =  1.465628 angstrom
           Maximum rank =  0   Radius =  0.325 angstrom
                   Q00  =   0.063439

H          x = -2.196026  y = -1.423819  z =  0.900628 angstrom
           Maximum rank =  0   Radius =  0.325 angstrom
                   Q00  =   0.085002

H          x = -0.115026  y = -2.415819  z =  2.922628 angstrom
           Maximum rank =  0   Radius =  0.325 angstrom
                   Q00  =   0.086267

H          x = -1.528951  y = -3.380139  z =  2.383068 angstrom
           Maximum rank =  0   Radius =  0.325 angstrom
                   Q00  =   0.086834

H          x = -0.273385  y = -2.933679  z =  1.228268 angstrom
           Maximum rank =  0   Radius =  0.325 angstrom
                   Q00  =   0.074162

Total multipoles referred to origin at
           x =   0.000000,  y =    0.000000,  z =    0.000000 angstrom
                   Q00  =  -0.000000

Finished at 21:12:5 on 27 Apr 2020

  DMA results are available in the Python driver through the
	  variable('DMA DISTRIBUTED MULTIPOLES')
  and
	  variable('DMA TOTAL MULTIPOLES')
  commands.

    Psi4 stopped on: Monday, 27 April 2020 09:12PM
    Psi4 wall time for execution: 0:00:48.65

*** Psi4 exiting successfully. Buy a developer a beer!
