                               Psi4 1.3.2 release

  ==> Input File <==

--------------------------------------------------------------------------
import numpy as np
set {scf_type pk
basis cc-pvdz
d_convergence 10
gdma_switch   0
gdma_limit    0
gdma_origin   [ 0.0,  0.0,  0.0 ]
}
molecule test {
    units Angstrom
    -1 1
    --
    -1 1
    C                0.791774864911809     3.892236147314275    -2.640926579544989
    C               -0.268225135088191     2.820236147314275    -2.392926579544989
    O                0.054774864911809     1.745236147314275    -1.837926579544989
    O               -1.437225135088191     3.057236147314275    -2.772926579544989
    H                0.413774864911809     4.861236147314274    -2.312926579544989
    H                0.972774864911809     3.951236147314275    -3.715926579544989
    H                1.746444864911809     3.675856147314275    -2.139146579544989
    C                1.025774864911809    -4.295763852685725     1.903073420455011
    C               -0.318225135088191    -0.299763852685725     1.052073420455011
    C                0.497774864911809    -0.968763852685725     0.146073420455011
    C               -0.698225135088191    -0.921763852685725     2.239073420455011
    C                0.930774864911809    -2.258763852685726     0.428073420455011
    C               -0.256225135088191    -2.211763852685726     2.514073420455011
    C                0.568774864911809    -2.887763852685726     1.616073420455011
    O               -0.741225135088191     0.962236147314275     0.772073420455011
    H               -0.434225135088191     1.233236147314275    -0.112926579544989
    H                0.786774864911809    -0.487763852685725    -0.774926579544989
    H               -1.329225135088191    -0.401763852685725     2.940073420455010
    H                1.557774864911809    -2.778763852685726    -0.284926579544989
    H               -0.529225135088191    -2.688763852685725     3.442073420455011
    H                0.968774864911809    -4.479763852685725     2.974073420455011
    H                2.065774864911809    -4.405763852685726     1.592073420455011
    H                0.409034864911809    -5.051077852685726     1.394023420455011

}
e, wfn = energy('scf', return_wfn=True)
gdma(wfn)
dmavals = variable('DMA DISTRIBUTED MULTIPOLES')
charges = np.array(dmavals)
print(charges)
np.save('SSI-103ASP-149TYR-1-dimer.npy', np.array(charges))--------------------------------------------------------------------------

*** tstart() called on ds3
*** at Sun Apr 26 19:57:19 2020

   => Loading Basis Set <=

    Name: CC-PVDZ
    Role: ORBITAL
    Keyword: BASIS
    atoms 1-2, 8-14  entry C          line   138 file /theoryfs2/ds/metcalf/miniconda2/envs/tf2gpu/share/psi4/basis/cc-pvdz.gbs
    atoms 3-4, 15    entry O          line   198 file /theoryfs2/ds/metcalf/miniconda2/envs/tf2gpu/share/psi4/basis/cc-pvdz.gbs
    atoms 5-7, 16-23 entry H          line    22 file /theoryfs2/ds/metcalf/miniconda2/envs/tf2gpu/share/psi4/basis/cc-pvdz.gbs

         ---------------------------------------------------------
                                   SCF
               by Justin Turney, Rob Parrish, Andy Simmonett
                          and Daniel G. A. Smith
                              RHF Reference
                        1 Threads,    500 MiB Core
         ---------------------------------------------------------

  ==> Geometry <==

    Molecular point group: c1
    Full point group: C1

    Geometry (in Angstrom), charge = -1, multiplicity = 1:

       Center              X                  Y                   Z               Mass
    ------------   -----------------  -----------------  -----------------  -----------------
         C            0.791774864912     3.892236147314    -2.640926579545    12.000000000000
         C           -0.268225135088     2.820236147314    -2.392926579545    12.000000000000
         O            0.054774864912     1.745236147314    -1.837926579545    15.994914619570
         O           -1.437225135088     3.057236147314    -2.772926579545    15.994914619570
         H            0.413774864912     4.861236147314    -2.312926579545     1.007825032230
         H            0.972774864912     3.951236147314    -3.715926579545     1.007825032230
         H            1.746444864912     3.675856147314    -2.139146579545     1.007825032230
         C            1.025774864912    -4.295763852686     1.903073420455    12.000000000000
         C           -0.318225135088    -0.299763852686     1.052073420455    12.000000000000
         C            0.497774864912    -0.968763852686     0.146073420455    12.000000000000
         C           -0.698225135088    -0.921763852686     2.239073420455    12.000000000000
         C            0.930774864912    -2.258763852686     0.428073420455    12.000000000000
         C           -0.256225135088    -2.211763852686     2.514073420455    12.000000000000
         C            0.568774864912    -2.887763852686     1.616073420455    12.000000000000
         O           -0.741225135088     0.962236147314     0.772073420455    15.994914619570
         H           -0.434225135088     1.233236147314    -0.112926579545     1.007825032230
         H            0.786774864912    -0.487763852686    -0.774926579545     1.007825032230
         H           -1.329225135088    -0.401763852686     2.940073420455     1.007825032230
         H            1.557774864912    -2.778763852686    -0.284926579545     1.007825032230
         H           -0.529225135088    -2.688763852686     3.442073420455     1.007825032230
         H            0.968774864912    -4.479763852686     2.974073420455     1.007825032230
         H            2.065774864912    -4.405763852686     1.592073420455     1.007825032230
         H            0.409034864912    -5.051077852686     1.394023420455     1.007825032230

  Running in c1 symmetry.

  Rotational constants: A =      0.08567  B =      0.01014  C =      0.00949 [cm^-1]
  Rotational constants: A =   2568.45815  B =    304.09647  C =    284.65123 [MHz]
  Nuclear repulsion =  628.310714081771494

  Charge       = -1
  Multiplicity = 1
  Electrons    = 90
  Nalpha       = 45
  Nbeta        = 45

  ==> Algorithm <==

  SCF Algorithm Type is PK.
  DIIS enabled.
  MOM disabled.
  Fractional occupation disabled.
  Guess Type is SAD.
  Energy threshold   = 1.00e-06
  Density threshold  = 1.00e-10
  Integral threshold = 0.00e+00

  ==> Primary Basis <==

  Basis Set: CC-PVDZ
    Blend: CC-PVDZ
    Number of shells: 105
    Number of basis function: 223
    Number of Cartesian functions: 235
    Spherical Harmonics?: true
    Max angular momentum: 2

  ==> Pre-Iterations <==

   -------------------------------------------------------
    Irrep   Nso     Nmo     Nalpha   Nbeta   Ndocc  Nsocc
   -------------------------------------------------------
     A        223     223       0       0       0       0
   -------------------------------------------------------
    Total     223     223      45      45      45       0
   -------------------------------------------------------

  ==> Integral Setup <==

  Using integral reordering PK algorithm.
  Sizing the integral batches needed.
  Building batch lookup table.
   Calculation information:
      Number of atoms:                  23
      Number of AO shells:             105
      Number of primitives:            319
      Number of atomic orbitals:       235
      Number of basis functions:       223

      Integral cutoff                 1.00e-12
      Number of threads:                 1

	Batch   1 pq = [       0,    9405] index = [             0,44231715] size =     44231715
	Batch   2 pq = [    9405,   13301] index = [      44231715,88464951] size =     44233236
	Batch   3 pq = [   13301,   16290] index = [      88464951,132690195] size =     44225244
	Batch   4 pq = [   16290,   18810] index = [     132690195,176917455] size =     44227260
	Batch   5 pq = [   18810,   21030] index = [     176917455,221140965] size =     44223510
	Batch   6 pq = [   21030,   23037] index = [     221140965,265363203] size =     44222238
	Batch   7 pq = [   23037,   24976] index = [     265363203,311912776] size =     46549573
  Task number: 29
  Buffer size: 11059200
  Buffer per thread: 2
  We computed 11224612 shell quartets total.
  Whereas there are 15487395 unique shell quartets.

  ==> DiskJK: Disk-Based J/K Matrices <==

    J tasked:                  Yes
    K tasked:                  Yes
    wK tasked:                  No
    Memory [MiB]:              375
    Schwarz Cutoff:          1E-12

    OpenMP threads:              1

  Minimum eigenvalue in the overlap matrix is 3.2030889694E-04.
  Using Symmetric Orthogonalization.

  SCF Guess: Superposition of Atomic Densities via on-the-fly atomic UHF.

  ==> Iterations <==

                        Total Energy        Delta E     RMS |[F,P]|

   @RHF iter SAD:  -570.23954589438392   -5.70240e+02   0.00000e+00
   @RHF iter   1:  -571.55809689005139   -1.31855e+00   3.61163e-03 DIIS
   @RHF iter   2:  -571.82898517911826   -2.70888e-01   1.89656e-03 DIIS
   @RHF iter   3:  -571.89588048970006   -6.68953e-02   3.40228e-04 DIIS
   @RHF iter   4:  -571.89957325759121   -3.69277e-03   1.28558e-04 DIIS
   @RHF iter   5:  -571.90009091238392   -5.17655e-04   2.26206e-05 DIIS
   @RHF iter   6:  -571.90011198074546   -2.10684e-05   1.12671e-05 DIIS
   @RHF iter   7:  -571.90011623118630   -4.25044e-06   3.17037e-06 DIIS
   @RHF iter   8:  -571.90011704104484   -8.09859e-07   1.33109e-06 DIIS
   @RHF iter   9:  -571.90011721196049   -1.70916e-07   5.94211e-07 DIIS
   @RHF iter  10:  -571.90011725291720   -4.09567e-08   2.52389e-07 DIIS
   @RHF iter  11:  -571.90011726094474   -8.02754e-09   1.00616e-07 DIIS
   @RHF iter  12:  -571.90011726204693   -1.10219e-09   4.19017e-08 DIIS
   @RHF iter  13:  -571.90011726220280   -1.55865e-10   1.42382e-08 DIIS
   @RHF iter  14:  -571.90011726222315   -2.03499e-11   6.06767e-09 DIIS
   @RHF iter  15:  -571.90011726223236   -9.20863e-12   2.37481e-09 DIIS
   @RHF iter  16:  -571.90011726222872    3.63798e-12   9.87949e-10 DIIS
   @RHF iter  17:  -571.90011726223304   -4.32010e-12   3.26269e-10 DIIS
   @RHF iter  18:  -571.90011726222497    8.07177e-12   1.13486e-10 DIIS
   @RHF iter  19:  -571.90011726223054   -5.57066e-12   5.72937e-11 DIIS
  Energy and wave function converged.

  ==> Post-Iterations <==

    Orbital Energies [Eh]
    ---------------------

    Doubly Occupied:

       1A    -20.426674     2A    -20.296666     3A    -20.282044
       4A    -11.176962     5A    -11.145936     6A    -11.141883
       7A    -11.132847     8A    -11.128441     9A    -11.126261
      10A    -11.117758    11A    -11.108052    12A    -11.069909
      13A     -1.248182    14A     -1.178993    15A     -1.064701
      16A     -1.040913    17A     -0.930568    18A     -0.906513
      19A     -0.822298    20A     -0.815460    21A     -0.729418
      22A     -0.686390    23A     -0.601501    24A     -0.553791
      25A     -0.533090    26A     -0.522489    27A     -0.493651
      28A     -0.486683    29A     -0.476186    30A     -0.457100
      31A     -0.440770    32A     -0.436224    33A     -0.429911
      34A     -0.427611    35A     -0.415779    36A     -0.389134
      37A     -0.373470    38A     -0.361144    39A     -0.350449
      40A     -0.330428    41A     -0.229625    42A     -0.215149
      43A     -0.198736    44A     -0.192163    45A     -0.183353

    Virtual:

      46A      0.240822    47A      0.265154    48A      0.271924
      49A      0.305600    50A      0.320206    51A      0.338983
      52A      0.344694    53A      0.358854    54A      0.375698
      55A      0.376874    56A      0.399686    57A      0.420077
      58A      0.448806    59A      0.462514    60A      0.473721
      61A      0.485207    62A      0.552206    63A      0.560532
      64A      0.564556    65A      0.602171    66A      0.606074
      67A      0.618967    68A      0.682765    69A      0.717883
      70A      0.724953    71A      0.732867    72A      0.762326
      73A      0.773731    74A      0.794890    75A      0.800859
      76A      0.804689    77A      0.815675    78A      0.841425
      79A      0.844171    80A      0.846981    81A      0.863052
      82A      0.873826    83A      0.885963    84A      0.896796
      85A      0.902976    86A      0.939193    87A      0.943532
      88A      0.957219    89A      0.958028    90A      0.962322
      91A      0.973478    92A      0.989433    93A      0.995456
      94A      1.014392    95A      1.016052    96A      1.019238
      97A      1.028035    98A      1.034319    99A      1.041973
     100A      1.045942   101A      1.058464   102A      1.080089
     103A      1.113638   104A      1.127121   105A      1.155102
     106A      1.192004   107A      1.204005   108A      1.231994
     109A      1.254208   110A      1.257707   111A      1.276963
     112A      1.313777   113A      1.329427   114A      1.338246
     115A      1.349800   116A      1.356251   117A      1.392025
     118A      1.393385   119A      1.418559   120A      1.428807
     121A      1.435561   122A      1.471386   123A      1.486838
     124A      1.502431   125A      1.522977   126A      1.550838
     127A      1.564327   128A      1.576659   129A      1.583135
     130A      1.614482   131A      1.631415   132A      1.651451
     133A      1.654708   134A      1.684568   135A      1.704807
     136A      1.738222   137A      1.761035   138A      1.779405
     139A      1.792323   140A      1.815540   141A      1.824717
     142A      1.835807   143A      1.845796   144A      1.855627
     145A      1.883630   146A      1.921896   147A      1.925046
     148A      1.976321   149A      1.986293   150A      2.006061
     151A      2.016273   152A      2.019141   153A      2.026966
     154A      2.049819   155A      2.056470   156A      2.062293
     157A      2.064585   158A      2.078867   159A      2.087913
     160A      2.092446   161A      2.109070   162A      2.150234
     163A      2.160397   164A      2.172843   165A      2.178275
     166A      2.187098   167A      2.190380   168A      2.238123
     169A      2.245989   170A      2.277709   171A      2.285442
     172A      2.312912   173A      2.322652   174A      2.335758
     175A      2.364190   176A      2.373614   177A      2.385776
     178A      2.399686   179A      2.408461   180A      2.438422
     181A      2.507311   182A      2.522402   183A      2.558175
     184A      2.575631   185A      2.597748   186A      2.632898
     187A      2.637764   188A      2.659804   189A      2.696539
     190A      2.701787   191A      2.746425   192A      2.760843
     193A      2.823493   194A      2.850993   195A      2.870870
     196A      2.896796   197A      2.899396   198A      2.923554
     199A      2.931679   200A      2.949974   201A      2.969567
     202A      3.005429   203A      3.079301   204A      3.118174
     205A      3.204609   206A      3.214241   207A      3.218246
     208A      3.253626   209A      3.291045   210A      3.348669
     211A      3.401256   212A      3.411407   213A      3.495184
     214A      3.603465   215A      3.728976   216A      3.753364
     217A      3.794661   218A      3.830130   219A      4.046291
     220A      4.075172   221A      4.108889   222A      4.174187
     223A      4.368129

    Final Occupation by Irrep:
              A
    DOCC [    45 ]

  @RHF Final Energy:  -571.90011726223054

   => Energetics <=

    Nuclear Repulsion Energy =            628.3107140817714935
    One-Electron Energy =               -2041.0710559705501055
    Two-Electron Energy =                 840.8602246265480744
    Total Energy =                       -571.9001172622305376

Computation Completed

Properties will be evaluated at   0.000000,   0.000000,   0.000000 [a0]

Properties computed using the SCF density matrix

  Nuclear Dipole Moment: [e a0]
     X:     6.2038      Y:    -6.1334      Z:     2.7954

  Electronic Dipole Moment: [e a0]
     X:    -4.5464      Y:     2.7932      Z:    -0.0074

  Dipole Moment: [e a0]
     X:     1.6574      Y:    -3.3403      Z:     2.7880     Total:     4.6559

  Dipole Moment: [D]
     X:     4.2126      Y:    -8.4901      Z:     7.0863     Total:    11.8340

*** tstop() called on ds3 at Sun Apr 26 19:59:34 2020
Module time:
	user time   =      91.94 seconds =       1.53 minutes
	system time =      47.53 seconds =       0.79 minutes
	total time  =        135 seconds =       2.25 minutes
Total time:
	user time   =      91.94 seconds =       1.53 minutes
	system time =      47.53 seconds =       0.79 minutes
	total time  =        135 seconds =       2.25 minutes
                                     G D M A

                                 by Anthony Stone

                           version 2.2.06, 22 June 2011

               Distributed Multipoles from Gaussian wavefunctions

Starting at 19:59:34 on 26 Apr 2020

Using SCF density matrix from file ./SSI/SSI-103ASP-149TYR-1-dimer.test.10125.fchk

                         Distributed Multipole Analysis

Standard DMA

Positions and radii in angstrom
Multipole moments in atomic units, ea_0^k for rank k

C          x =  0.791775  y =  3.892236  z = -2.640927 angstrom
           Maximum rank =  0   Radius =  0.650 angstrom
                   Q00  =  -0.288661

C          x = -0.268225  y =  2.820236  z = -2.392927 angstrom
           Maximum rank =  0   Radius =  0.650 angstrom
                   Q00  =   0.959844

O          x =  0.054775  y =  1.745236  z = -1.837927 angstrom
           Maximum rank =  0   Radius =  0.650 angstrom
                   Q00  =  -0.967949

O          x = -1.437225  y =  3.057236  z = -2.772927 angstrom
           Maximum rank =  0   Radius =  0.650 angstrom
                   Q00  =  -0.899598

H          x =  0.413775  y =  4.861236  z = -2.312927 angstrom
           Maximum rank =  0   Radius =  0.325 angstrom
                   Q00  =   0.076054

H          x =  0.972775  y =  3.951236  z = -3.715927 angstrom
           Maximum rank =  0   Radius =  0.325 angstrom
                   Q00  =   0.083872

H          x =  1.746445  y =  3.675856  z = -2.139147 angstrom
           Maximum rank =  0   Radius =  0.325 angstrom
                   Q00  =   0.055750

C          x =  1.025775  y = -4.295764  z =  1.903073 angstrom
           Maximum rank =  0   Radius =  0.650 angstrom
                   Q00  =  -0.189365

C          x = -0.318225  y = -0.299764  z =  1.052073 angstrom
           Maximum rank =  0   Radius =  0.650 angstrom
                   Q00  =   0.375070

C          x =  0.497775  y = -0.968764  z =  0.146073 angstrom
           Maximum rank =  0   Radius =  0.650 angstrom
                   Q00  =  -0.155895

C          x = -0.698225  y = -0.921764  z =  2.239073 angstrom
           Maximum rank =  0   Radius =  0.650 angstrom
                   Q00  =  -0.139514

C          x =  0.930775  y = -2.258764  z =  0.428073 angstrom
           Maximum rank =  0   Radius =  0.650 angstrom
                   Q00  =   0.018720

C          x = -0.256225  y = -2.211764  z =  2.514073 angstrom
           Maximum rank =  0   Radius =  0.650 angstrom
                   Q00  =  -0.018960

C          x =  0.568775  y = -2.887764  z =  1.616073 angstrom
           Maximum rank =  0   Radius =  0.650 angstrom
                   Q00  =  -0.154099

O          x = -0.741225  y =  0.962236  z =  0.772073 angstrom
           Maximum rank =  0   Radius =  0.650 angstrom
                   Q00  =  -0.754938

H          x = -0.434225  y =  1.233236  z = -0.112927 angstrom
           Maximum rank =  0   Radius =  0.325 angstrom
                   Q00  =   0.515967

H          x =  0.786775  y = -0.487764  z = -0.774927 angstrom
           Maximum rank =  0   Radius =  0.325 angstrom
                   Q00  =   0.100040

H          x = -1.329225  y = -0.401764  z =  2.940073 angstrom
           Maximum rank =  0   Radius =  0.325 angstrom
                   Q00  =   0.059109

H          x =  1.557775  y = -2.778764  z = -0.284927 angstrom
           Maximum rank =  0   Radius =  0.325 angstrom
                   Q00  =   0.042728

H          x = -0.529225  y = -2.688764  z =  3.442073 angstrom
           Maximum rank =  0   Radius =  0.325 angstrom
                   Q00  =   0.035663

H          x =  0.968775  y = -4.479764  z =  2.974073 angstrom
           Maximum rank =  0   Radius =  0.325 angstrom
                   Q00  =   0.080319

H          x =  2.065775  y = -4.405764  z =  1.592073 angstrom
           Maximum rank =  0   Radius =  0.325 angstrom
                   Q00  =   0.083268

H          x =  0.409035  y = -5.051078  z =  1.394023 angstrom
           Maximum rank =  0   Radius =  0.325 angstrom
                   Q00  =   0.082572

Total multipoles referred to origin at
           x =   0.000000,  y =    0.000000,  z =    0.000000 angstrom
                   Q00  =  -1.000000

Finished at 19:59:34 on 26 Apr 2020

  DMA results are available in the Python driver through the
	  variable('DMA DISTRIBUTED MULTIPOLES')
  and
	  variable('DMA TOTAL MULTIPOLES')
  commands.

    Psi4 stopped on: Sunday, 26 April 2020 07:59PM
    Psi4 wall time for execution: 0:02:14.87

*** Psi4 exiting successfully. Buy a developer a beer!
