                               Psi4 1.3.2 release

  ==> Input File <==

--------------------------------------------------------------------------
import numpy as np
set {scf_type pk
basis cc-pvdz
d_convergence 10
gdma_switch   0
gdma_limit    0
gdma_origin   [ 0.0,  0.0,  0.0 ]
}
molecule test {
    units Angstrom
    -1 1
    --
    -1 1
    C               -0.835599248570629     2.614731233714355     0.022989180816147
    C               -0.125599248570629     2.064731233714355    -1.197010819183853
    O               -0.065599248570629     2.713731233714355    -2.234010819183853
    N                0.407400751429371     0.858731233714355    -1.096010819183853
    H                0.860400751429371     0.482731233714355    -1.910010819183853
    H                0.425400751429371     0.341731233714355    -0.224010819183853
    H               -0.645599248570629     1.954731233714355     0.868989180816147
    H               -1.907599248570629     2.603731233714355    -0.170010819183853
    H               -0.507889248570629     3.632841233714355     0.280019180816147
    C               -0.545599248570629    -2.902268766285645     0.184989180816147
    C                0.194400751429371    -2.000268766285645     1.177989180816147
    O                1.171400751429372    -1.324268766285645     0.776989180816147
    O               -0.221599248570629    -1.954268766285645     2.358989180816147
    H               -1.477599248570629    -2.403268766285645    -0.088010819183853
    H               -0.828599248570629    -3.846268766285645     0.651989180816147
    H                0.014470751429371    -3.077738766285645    -0.745350819183853

}
e, wfn = energy('scf', return_wfn=True)
gdma(wfn)
dmavals = variable('DMA DISTRIBUTED MULTIPOLES')
charges = np.array(dmavals)
print(charges)
np.save('SSI-007ASN-109GLU-1-dimer.npy', np.array(charges))--------------------------------------------------------------------------

*** tstart() called on ds3
*** at Tue Apr 28 03:50:14 2020

   => Loading Basis Set <=

    Name: CC-PVDZ
    Role: ORBITAL
    Keyword: BASIS
    atoms 1-2, 10-11 entry C          line   138 file /theoryfs2/ds/metcalf/miniconda2/envs/tf2gpu/share/psi4/basis/cc-pvdz.gbs
    atoms 3, 12-13   entry O          line   198 file /theoryfs2/ds/metcalf/miniconda2/envs/tf2gpu/share/psi4/basis/cc-pvdz.gbs
    atoms 4          entry N          line   168 file /theoryfs2/ds/metcalf/miniconda2/envs/tf2gpu/share/psi4/basis/cc-pvdz.gbs
    atoms 5-9, 14-16 entry H          line    22 file /theoryfs2/ds/metcalf/miniconda2/envs/tf2gpu/share/psi4/basis/cc-pvdz.gbs

         ---------------------------------------------------------
                                   SCF
               by Justin Turney, Rob Parrish, Andy Simmonett
                          and Daniel G. A. Smith
                              RHF Reference
                        1 Threads,    500 MiB Core
         ---------------------------------------------------------

  ==> Geometry <==

    Molecular point group: c1
    Full point group: C1

    Geometry (in Angstrom), charge = -1, multiplicity = 1:

       Center              X                  Y                   Z               Mass
    ------------   -----------------  -----------------  -----------------  -----------------
         C           -0.835599248571     2.614731233714     0.022989180816    12.000000000000
         C           -0.125599248571     2.064731233714    -1.197010819184    12.000000000000
         O           -0.065599248571     2.713731233714    -2.234010819184    15.994914619570
         N            0.407400751429     0.858731233714    -1.096010819184    14.003074004430
         H            0.860400751429     0.482731233714    -1.910010819184     1.007825032230
         H            0.425400751429     0.341731233714    -0.224010819184     1.007825032230
         H           -0.645599248571     1.954731233714     0.868989180816     1.007825032230
         H           -1.907599248571     2.603731233714    -0.170010819184     1.007825032230
         H           -0.507889248571     3.632841233714     0.280019180816     1.007825032230
         C           -0.545599248571    -2.902268766286     0.184989180816    12.000000000000
         C            0.194400751429    -2.000268766286     1.177989180816    12.000000000000
         O            1.171400751429    -1.324268766286     0.776989180816    15.994914619570
         O           -0.221599248571    -1.954268766286     2.358989180816    15.994914619570
         H           -1.477599248571    -2.403268766286    -0.088010819184     1.007825032230
         H           -0.828599248571    -3.846268766286     0.651989180816     1.007825032230
         H            0.014470751429    -3.077738766286    -0.745350819184     1.007825032230

  Running in c1 symmetry.

  Rotational constants: A =      0.12777  B =      0.02265  C =      0.02122 [cm^-1]
  Rotational constants: A =   3830.57335  B =    679.06271  C =    636.28049 [MHz]
  Nuclear repulsion =  347.203375909313024

  Charge       = -1
  Multiplicity = 1
  Electrons    = 64
  Nalpha       = 32
  Nbeta        = 32

  ==> Algorithm <==

  SCF Algorithm Type is PK.
  DIIS enabled.
  MOM disabled.
  Fractional occupation disabled.
  Guess Type is SAD.
  Energy threshold   = 1.00e-06
  Density threshold  = 1.00e-10
  Integral threshold = 0.00e+00

  ==> Primary Basis <==

  Basis Set: CC-PVDZ
    Blend: CC-PVDZ
    Number of shells: 72
    Number of basis function: 152
    Number of Cartesian functions: 160
    Spherical Harmonics?: true
    Max angular momentum: 2

  ==> Pre-Iterations <==

   -------------------------------------------------------
    Irrep   Nso     Nmo     Nalpha   Nbeta   Ndocc  Nsocc
   -------------------------------------------------------
     A        152     152       0       0       0       0
   -------------------------------------------------------
    Total     152     152      32      32      32       0
   -------------------------------------------------------

  ==> Integral Setup <==

  Using integral reordering PK algorithm.
  Sizing the integral batches needed.
  Building batch lookup table.
   Calculation information:
      Number of atoms:                  16
      Number of AO shells:              72
      Number of primitives:            216
      Number of atomic orbitals:       160
      Number of basis functions:       152

      Integral cutoff                 1.00e-12
      Number of threads:                 1

	Batch   1 pq = [       0,    9405] index = [             0,44231715] size =     44231715
	Batch   2 pq = [    9405,   11628] index = [      44231715,67611006] size =     23379291
  Task number: 7
  Buffer size: 11059200
  Buffer per thread: 2
  We computed 2707856 shell quartets total.
  Whereas there are 3454506 unique shell quartets.

  ==> DiskJK: Disk-Based J/K Matrices <==

    J tasked:                  Yes
    K tasked:                  Yes
    wK tasked:                  No
    Memory [MiB]:              375
    Schwarz Cutoff:          1E-12

    OpenMP threads:              1

  Minimum eigenvalue in the overlap matrix is 4.5247027936E-03.
  Using Symmetric Orthogonalization.

  SCF Guess: Superposition of Atomic Densities via on-the-fly atomic UHF.

  ==> Iterations <==

                        Total Energy        Delta E     RMS |[F,P]|

   @RHF iter SAD:  -433.45270245443925   -4.33453e+02   0.00000e+00
   @RHF iter   1:  -434.94639081451788   -1.49369e+00   5.44167e-03 DIIS
   @RHF iter   2:  -435.17626717896047   -2.29876e-01   3.20749e-03 DIIS
   @RHF iter   3:  -435.25885667646946   -8.25895e-02   4.77890e-04 DIIS
   @RHF iter   4:  -435.26210096742352   -3.24429e-03   1.83582e-04 DIIS
   @RHF iter   5:  -435.26264407614678   -5.43109e-04   3.68010e-05 DIIS
   @RHF iter   6:  -435.26266949497222   -2.54188e-05   1.87919e-05 DIIS
   @RHF iter   7:  -435.26267527026391   -5.77529e-06   5.00756e-06 DIIS
   @RHF iter   8:  -435.26267613260006   -8.62336e-07   2.23274e-06 DIIS
   @RHF iter   9:  -435.26267627371669   -1.41117e-07   8.76365e-07 DIIS
   @RHF iter  10:  -435.26267629621429   -2.24976e-08   2.14224e-07 DIIS
   @RHF iter  11:  -435.26267629732638   -1.11208e-09   9.42418e-08 DIIS
   @RHF iter  12:  -435.26267629744370   -1.17325e-10   2.16798e-08 DIIS
   @RHF iter  13:  -435.26267629745450   -1.08002e-11   5.70510e-09 DIIS
   @RHF iter  14:  -435.26267629745439    1.13687e-13   1.88867e-09 DIIS
   @RHF iter  15:  -435.26267629745553   -1.13687e-12   6.11438e-10 DIIS
   @RHF iter  16:  -435.26267629745462    9.09495e-13   2.39216e-10 DIIS
   @RHF iter  17:  -435.26267629745587   -1.25056e-12   1.14483e-10 DIIS
   @RHF iter  18:  -435.26267629745337    2.50111e-12   3.75621e-11 DIIS
  Energy and wave function converged.

  ==> Post-Iterations <==

    Orbital Energies [Eh]
    ---------------------

    Doubly Occupied:

       1A    -20.378178     2A    -20.287987     3A    -20.279011
       4A    -15.442844     5A    -11.221624     6A    -11.140665
       7A    -11.126422     8A    -11.068217     9A     -1.247085
      10A     -1.171958    11A     -1.078683    12A     -1.058020
      13A     -0.881299    14A     -0.812552    15A     -0.664305
      16A     -0.587654    17A     -0.533232    18A     -0.521731
      19A     -0.494619    20A     -0.447777    21A     -0.439053
      22A     -0.427913    23A     -0.424527    24A     -0.422615
      25A     -0.401372    26A     -0.364304    27A     -0.324747
      28A     -0.288914    29A     -0.271280    30A     -0.207110
      31A     -0.194536    32A     -0.185148

    Virtual:

      33A      0.296601    34A      0.316715    35A      0.331270
      36A      0.352680    37A      0.369348    38A      0.383586
      39A      0.392455    40A      0.403687    41A      0.464531
      42A      0.467702    43A      0.525176    44A      0.556831
      45A      0.581107    46A      0.680603    47A      0.690092
      48A      0.734119    49A      0.756059    50A      0.787599
      51A      0.804423    52A      0.819477    53A      0.844477
      54A      0.853950    55A      0.860657    56A      0.906663
      57A      0.937234    58A      0.945461    59A      0.967135
      60A      0.991589    61A      1.000728    62A      1.011574
      63A      1.021774    64A      1.032596    65A      1.048298
      66A      1.061132    67A      1.074520    68A      1.108937
      69A      1.143666    70A      1.167850    71A      1.182862
      72A      1.206686    73A      1.246200    74A      1.284562
      75A      1.322657    76A      1.340856    77A      1.392663
      78A      1.463281    79A      1.487368    80A      1.493929
      81A      1.522626    82A      1.523709    83A      1.543389
      84A      1.553231    85A      1.575066    86A      1.577457
      87A      1.592157    88A      1.633606    89A      1.654063
      90A      1.716677    91A      1.722711    92A      1.765443
      93A      1.774349    94A      1.825172    95A      1.832098
      96A      1.848630    97A      1.981924    98A      1.988112
      99A      1.995990   100A      2.027673   101A      2.033673
     102A      2.044326   103A      2.056214   104A      2.068552
     105A      2.091549   106A      2.114255   107A      2.130298
     108A      2.184997   109A      2.195569   110A      2.225380
     111A      2.234990   112A      2.285481   113A      2.330993
     114A      2.352116   115A      2.402847   116A      2.416518
     117A      2.434248   118A      2.537085   119A      2.547495
     120A      2.556704   121A      2.596203   122A      2.643584
     123A      2.697563   124A      2.701944   125A      2.720127
     126A      2.754607   127A      2.789303   128A      2.862473
     129A      2.894468   130A      2.898100   131A      2.922904
     132A      2.958814   133A      2.964938   134A      2.973341
     135A      3.129307   136A      3.213344   137A      3.220348
     138A      3.254017   139A      3.257816   140A      3.269082
     141A      3.341297   142A      3.446971   143A      3.612140
     144A      3.638380   145A      3.667898   146A      3.758993
     147A      3.809252   148A      3.997720   149A      4.032756
     150A      4.043255   151A      4.065973   152A      4.167432

    Final Occupation by Irrep:
              A
    DOCC [    32 ]

  @RHF Final Energy:  -435.26267629745337

   => Energetics <=

    Nuclear Repulsion Energy =            347.2033759093130243
    One-Electron Energy =               -1296.1413404590650771
    Two-Electron Energy =                 513.6752882522986283
    Total Energy =                       -435.2626762974533676

Computation Completed

Properties will be evaluated at   0.000000,   0.000000,   0.000000 [a0]

Properties computed using the SCF density matrix

  Nuclear Dipole Moment: [e a0]
     X:    -3.8096      Y:    -0.2972      Z:    -1.2453

  Electronic Dipole Moment: [e a0]
     X:     2.9689      Y:     1.4729      Z:    -0.1724

  Dipole Moment: [e a0]
     X:    -0.8407      Y:     1.1757      Z:    -1.4177     Total:     2.0246

  Dipole Moment: [D]
     X:    -2.1369      Y:     2.9883      Z:    -3.6035     Total:     5.1460

*** tstop() called on ds3 at Tue Apr 28 03:50:45 2020
Module time:
	user time   =      21.57 seconds =       0.36 minutes
	system time =      10.31 seconds =       0.17 minutes
	total time  =         31 seconds =       0.52 minutes
Total time:
	user time   =      21.57 seconds =       0.36 minutes
	system time =      10.31 seconds =       0.17 minutes
	total time  =         31 seconds =       0.52 minutes
                                     G D M A

                                 by Anthony Stone

                           version 2.2.06, 22 June 2011

               Distributed Multipoles from Gaussian wavefunctions

Starting at 3:50:45 on 28 Apr 2020

Using SCF density matrix from file ./SSI/SSI-007ASN-109GLU-1-dimer.test.25651.fchk

                         Distributed Multipole Analysis

Standard DMA

Positions and radii in angstrom
Multipole moments in atomic units, ea_0^k for rank k

C          x = -0.835599  y =  2.614731  z =  0.022989 angstrom
           Maximum rank =  0   Radius =  0.650 angstrom
                   Q00  =  -0.269569

C          x = -0.125599  y =  2.064731  z = -1.197011 angstrom
           Maximum rank =  0   Radius =  0.650 angstrom
                   Q00  =   0.840274

O          x = -0.065599  y =  2.713731  z = -2.234011 angstrom
           Maximum rank =  0   Radius =  0.650 angstrom
                   Q00  =  -0.848915

N          x =  0.407401  y =  0.858731  z = -1.096011 angstrom
           Maximum rank =  0   Radius =  0.650 angstrom
                   Q00  =  -0.529501

H          x =  0.860401  y =  0.482731  z = -1.910011 angstrom
           Maximum rank =  0   Radius =  0.325 angstrom
                   Q00  =   0.200179

H          x =  0.425401  y =  0.341731  z = -0.224011 angstrom
           Maximum rank =  0   Radius =  0.325 angstrom
                   Q00  =   0.256318

H          x = -0.645599  y =  1.954731  z =  0.868989 angstrom
           Maximum rank =  0   Radius =  0.325 angstrom
                   Q00  =   0.105506

H          x = -1.907599  y =  2.603731  z = -0.170011 angstrom
           Maximum rank =  0   Radius =  0.325 angstrom
                   Q00  =   0.113072

H          x = -0.507889  y =  3.632841  z =  0.280019 angstrom
           Maximum rank =  0   Radius =  0.325 angstrom
                   Q00  =   0.105005

C          x = -0.545599  y = -2.902269  z =  0.184989 angstrom
           Maximum rank =  0   Radius =  0.650 angstrom
                   Q00  =  -0.285889

C          x =  0.194401  y = -2.000269  z =  1.177989 angstrom
           Maximum rank =  0   Radius =  0.650 angstrom
                   Q00  =   0.949765

O          x =  1.171401  y = -1.324269  z =  0.776989 angstrom
           Maximum rank =  0   Radius =  0.650 angstrom
                   Q00  =  -0.926713

O          x = -0.221599  y = -1.954269  z =  2.358989 angstrom
           Maximum rank =  0   Radius =  0.650 angstrom
                   Q00  =  -0.913334

H          x = -1.477599  y = -2.403269  z = -0.088011 angstrom
           Maximum rank =  0   Radius =  0.325 angstrom
                   Q00  =   0.078783

H          x = -0.828599  y = -3.846269  z =  0.651989 angstrom
           Maximum rank =  0   Radius =  0.325 angstrom
                   Q00  =   0.071028

H          x =  0.014471  y = -3.077739  z = -0.745351 angstrom
           Maximum rank =  0   Radius =  0.325 angstrom
                   Q00  =   0.053992

Total multipoles referred to origin at
           x =   0.000000,  y =    0.000000,  z =    0.000000 angstrom
                   Q00  =  -1.000000

Finished at 3:50:45 on 28 Apr 2020

  DMA results are available in the Python driver through the
	  variable('DMA DISTRIBUTED MULTIPOLES')
  and
	  variable('DMA TOTAL MULTIPOLES')
  commands.

    Psi4 stopped on: Tuesday, 28 April 2020 03:50AM
    Psi4 wall time for execution: 0:00:31.42

*** Psi4 exiting successfully. Buy a developer a beer!
