                               Psi4 1.3.2 release

  ==> Input File <==

--------------------------------------------------------------------------
import numpy as np
set {scf_type pk
basis cc-pvdz
d_convergence 10
gdma_switch   0
gdma_limit    0
gdma_origin   [ 0.0,  0.0,  0.0 ]
}
molecule test {
    units Angstrom
    0 1
    --
    0 1
    C                2.279331371067971    -0.257818227853761    -1.448896529220984
    C                3.666331371067971     0.385181772146239    -1.546896529220984
    H                2.347331371067971    -1.255818227853761    -1.013896529220984
    H                1.636331371067971     0.356181772146239    -0.819896529220984
    H                1.810331371067971    -0.321818227853761    -2.428896529220984
    H                3.558331371067970     1.345181772146239    -2.053896529220984
    H                4.356221371067972    -0.241732227853761    -2.130876529220984
    H                4.080441371067971     0.537333772146239    -0.539246529220984
    C               -0.418668628932029     0.860181772146239     2.456103470779016
    C               -1.075668628932029    -1.144818227853761    -0.494896529220984
    C               -0.888668628932029     0.306181772146239     1.149103470779016
    C               -1.781668628932029     0.801181772146239     0.254103470779016
    N               -0.466668628932029    -0.916818227853761     0.664103470779016
    N               -1.866668628932029    -0.118818227853761    -0.760896529220984
    H               -0.950668628932029    -2.021818227853761    -1.120896529220984
    H               -2.466668628932029    -0.050818227853761    -1.573896529220984
    H               -2.325668628932029     1.730181772146239     0.330103470779016
    H               -0.352668628932029     1.947181772146239     2.394103470779016
    H                0.591331371067971     0.484181772146239     2.620103470779016
    H               -1.070361628932029     0.568691772146239     3.292963470779016

}
e, wfn = energy('scf', return_wfn=True)
gdma(wfn)
dmavals = variable('DMA DISTRIBUTED MULTIPOLES')
charges = np.array(dmavals)
print(charges)
np.save('SSI-022ILE-072HIE-1-dimer.npy', np.array(charges))--------------------------------------------------------------------------

*** tstart() called on ds3
*** at Mon Apr 27 18:04:20 2020

   => Loading Basis Set <=

    Name: CC-PVDZ
    Role: ORBITAL
    Keyword: BASIS
    atoms 1-2, 9-12  entry C          line   138 file /theoryfs2/ds/metcalf/miniconda2/envs/tf2gpu/share/psi4/basis/cc-pvdz.gbs
    atoms 3-8, 15-20 entry H          line    22 file /theoryfs2/ds/metcalf/miniconda2/envs/tf2gpu/share/psi4/basis/cc-pvdz.gbs
    atoms 13-14      entry N          line   168 file /theoryfs2/ds/metcalf/miniconda2/envs/tf2gpu/share/psi4/basis/cc-pvdz.gbs

         ---------------------------------------------------------
                                   SCF
               by Justin Turney, Rob Parrish, Andy Simmonett
                          and Daniel G. A. Smith
                              RHF Reference
                        1 Threads,    500 MiB Core
         ---------------------------------------------------------

  ==> Geometry <==

    Molecular point group: c1
    Full point group: C1

    Geometry (in Angstrom), charge = 0, multiplicity = 1:

       Center              X                  Y                   Z               Mass
    ------------   -----------------  -----------------  -----------------  -----------------
         C            2.279331371068    -0.257818227854    -1.448896529221    12.000000000000
         C            3.666331371068     0.385181772146    -1.546896529221    12.000000000000
         H            2.347331371068    -1.255818227854    -1.013896529221     1.007825032230
         H            1.636331371068     0.356181772146    -0.819896529221     1.007825032230
         H            1.810331371068    -0.321818227854    -2.428896529221     1.007825032230
         H            3.558331371068     1.345181772146    -2.053896529221     1.007825032230
         H            4.356221371068    -0.241732227854    -2.130876529221     1.007825032230
         H            4.080441371068     0.537333772146    -0.539246529221     1.007825032230
         C           -0.418668628932     0.860181772146     2.456103470779    12.000000000000
         C           -1.075668628932    -1.144818227854    -0.494896529221    12.000000000000
         C           -0.888668628932     0.306181772146     1.149103470779    12.000000000000
         C           -1.781668628932     0.801181772146     0.254103470779    12.000000000000
         N           -0.466668628932    -0.916818227854     0.664103470779    14.003074004430
         N           -1.866668628932    -0.118818227854    -0.760896529221    14.003074004430
         H           -0.950668628932    -2.021818227854    -1.120896529221     1.007825032230
         H           -2.466668628932    -0.050818227854    -1.573896529221     1.007825032230
         H           -2.325668628932     1.730181772146     0.330103470779     1.007825032230
         H           -0.352668628932     1.947181772146     2.394103470779     1.007825032230
         H            0.591331371068     0.484181772146     2.620103470779     1.007825032230
         H           -1.070361628932     0.568691772146     3.292963470779     1.007825032230

  Running in c1 symmetry.

  Rotational constants: A =      0.08589  B =      0.03175  C =      0.02653 [cm^-1]
  Rotational constants: A =   2574.93951  B =    951.71891  C =    795.46105 [MHz]
  Nuclear repulsion =  356.428621310566598

  Charge       = 0
  Multiplicity = 1
  Electrons    = 62
  Nalpha       = 31
  Nbeta        = 31

  ==> Algorithm <==

  SCF Algorithm Type is PK.
  DIIS enabled.
  MOM disabled.
  Fractional occupation disabled.
  Guess Type is SAD.
  Energy threshold   = 1.00e-06
  Density threshold  = 1.00e-10
  Integral threshold = 0.00e+00

  ==> Primary Basis <==

  Basis Set: CC-PVDZ
    Blend: CC-PVDZ
    Number of shells: 84
    Number of basis function: 172
    Number of Cartesian functions: 180
    Spherical Harmonics?: true
    Max angular momentum: 2

  ==> Pre-Iterations <==

   -------------------------------------------------------
    Irrep   Nso     Nmo     Nalpha   Nbeta   Ndocc  Nsocc
   -------------------------------------------------------
     A        172     172       0       0       0       0
   -------------------------------------------------------
    Total     172     172      31      31      31       0
   -------------------------------------------------------

  ==> Integral Setup <==

  Using integral reordering PK algorithm.
  Sizing the integral batches needed.
  Building batch lookup table.
   Calculation information:
      Number of atoms:                  20
      Number of AO shells:              84
      Number of primitives:            236
      Number of atomic orbitals:       180
      Number of basis functions:       172

      Integral cutoff                 1.00e-12
      Number of threads:                 1

	Batch   1 pq = [       0,    9405] index = [             0,44231715] size =     44231715
	Batch   2 pq = [    9405,   13301] index = [      44231715,88464951] size =     44233236
	Batch   3 pq = [   13301,   14878] index = [      88464951,110684881] size =     22219930
  Task number: 11
  Buffer size: 11059200
  Buffer per thread: 2
  We computed 5425681 shell quartets total.
  Whereas there are 6374235 unique shell quartets.

  ==> DiskJK: Disk-Based J/K Matrices <==

    J tasked:                  Yes
    K tasked:                  Yes
    wK tasked:                  No
    Memory [MiB]:              375
    Schwarz Cutoff:          1E-12

    OpenMP threads:              1

  Minimum eigenvalue in the overlap matrix is 1.2049433439E-03.
  Using Symmetric Orthogonalization.

  SCF Guess: Superposition of Atomic Densities via on-the-fly atomic UHF.

  ==> Iterations <==

                        Total Energy        Delta E     RMS |[F,P]|

   @RHF iter SAD:  -342.21907698879829   -3.42219e+02   0.00000e+00
   @RHF iter   1:  -342.88814695545159   -6.69070e-01   3.36283e-03 DIIS
   @RHF iter   2:  -343.06039181507532   -1.72245e-01   1.70105e-03 DIIS
   @RHF iter   3:  -343.10091420428029   -4.05224e-02   4.33563e-04 DIIS
   @RHF iter   4:  -343.10435983758191   -3.44563e-03   1.80588e-04 DIIS
   @RHF iter   5:  -343.10491474084171   -5.54903e-04   2.65492e-05 DIIS
   @RHF iter   6:  -343.10493473129583   -1.99905e-05   1.12727e-05 DIIS
   @RHF iter   7:  -343.10493790800547   -3.17671e-06   3.87729e-06 DIIS
   @RHF iter   8:  -343.10493856269142   -6.54686e-07   1.57456e-06 DIIS
   @RHF iter   9:  -343.10493871110816   -1.48417e-07   5.79689e-07 DIIS
   @RHF iter  10:  -343.10493872706570   -1.59575e-08   1.82324e-07 DIIS
   @RHF iter  11:  -343.10493872888492   -1.81922e-09   7.81458e-08 DIIS
   @RHF iter  12:  -343.10493872912724   -2.42323e-10   3.13107e-08 DIIS
   @RHF iter  13:  -343.10493872917141   -4.41673e-11   8.33660e-09 DIIS
   @RHF iter  14:  -343.10493872917436   -2.95586e-12   3.13496e-09 DIIS
   @RHF iter  15:  -343.10493872917556   -1.19371e-12   1.26339e-09 DIIS
   @RHF iter  16:  -343.10493872917488    6.82121e-13   3.95034e-10 DIIS
   @RHF iter  17:  -343.10493872917573   -8.52651e-13   1.19927e-10 DIIS
   @RHF iter  18:  -343.10493872917550    2.27374e-13   4.33254e-11 DIIS
  Energy and wave function converged.

  ==> Post-Iterations <==

    Orbital Energies [Eh]
    ---------------------

    Doubly Occupied:

       1A    -15.620969     2A    -15.527276     3A    -11.291517
       4A    -11.249238     5A    -11.240817     6A    -11.222847
       7A    -11.210190     8A    -11.202557     9A     -1.344078
      10A     -1.152924    11A     -1.031795    12A     -1.005526
      13A     -0.942190    14A     -0.825663    15A     -0.817391
      16A     -0.762411    17A     -0.741481    18A     -0.610034
      19A     -0.605895    20A     -0.598413    21A     -0.587715
      22A     -0.582926    23A     -0.554713    24A     -0.538678
      25A     -0.519376    26A     -0.488879    27A     -0.476027
      28A     -0.472416    29A     -0.409678    30A     -0.376544
      31A     -0.309552

    Virtual:

      32A      0.171600    33A      0.185535    34A      0.192123
      35A      0.203654    36A      0.220659    37A      0.226200
      38A      0.239299    39A      0.259470    40A      0.266634
      41A      0.269821    42A      0.282931    43A      0.292491
      44A      0.300795    45A      0.308185    46A      0.375785
      47A      0.392478    48A      0.405616    49A      0.423557
      50A      0.481350    51A      0.490097    52A      0.597442
      53A      0.599038    54A      0.604967    55A      0.612480
      56A      0.633022    57A      0.656198    58A      0.666800
      59A      0.688045    60A      0.692520    61A      0.718922
      62A      0.736687    63A      0.748516    64A      0.774987
      65A      0.780300    66A      0.819764    67A      0.841946
      68A      0.864947    69A      0.875170    70A      0.887628
      71A      0.898565    72A      0.902026    73A      0.907392
      74A      0.914929    75A      0.921863    76A      0.926962
      77A      0.943990    78A      0.955258    79A      0.964106
      80A      0.985143    81A      1.006696    82A      1.035286
      83A      1.062270    84A      1.096718    85A      1.122844
      86A      1.126446    87A      1.131805    88A      1.147383
      89A      1.153329    90A      1.203875    91A      1.248710
      92A      1.258677    93A      1.280751    94A      1.315769
      95A      1.328935    96A      1.335634    97A      1.429832
      98A      1.451590    99A      1.474080   100A      1.484761
     101A      1.489561   102A      1.527952   103A      1.571579
     104A      1.596247   105A      1.619313   106A      1.635269
     107A      1.689471   108A      1.691687   109A      1.713499
     110A      1.726816   111A      1.774583   112A      1.808846
     113A      1.832017   114A      1.860169   115A      1.880392
     116A      1.887557   117A      1.894943   118A      1.915218
     119A      1.928659   120A      1.932292   121A      1.947882
     122A      1.958374   123A      1.961089   124A      1.965845
     125A      1.971114   126A      1.978541   127A      1.983985
     128A      2.010139   129A      2.043430   130A      2.093349
     131A      2.107506   132A      2.115139   133A      2.135904
     134A      2.149529   135A      2.204815   136A      2.238320
     137A      2.249540   138A      2.295569   139A      2.317180
     140A      2.330528   141A      2.365633   142A      2.377420
     143A      2.433404   144A      2.456988   145A      2.464726
     146A      2.475152   147A      2.497563   148A      2.566326
     149A      2.574450   150A      2.583112   151A      2.610828
     152A      2.691571   153A      2.731247   154A      2.755863
     155A      2.771884   156A      2.783863   157A      2.796197
     158A      2.806380   159A      2.842256   160A      2.854253
     161A      2.864364   162A      2.868731   163A      2.891557
     164A      2.928258   165A      2.956126   166A      2.971728
     167A      2.984892   168A      3.074476   169A      3.158091
     170A      3.229970   171A      3.479144   172A      3.802796

    Final Occupation by Irrep:
              A
    DOCC [    31 ]

  @RHF Final Energy:  -343.10493872917550

   => Energetics <=

    Nuclear Repulsion Energy =            356.4286213105665979
    One-Electron Energy =               -1170.4276863865502492
    Two-Electron Energy =                 470.8941263468082070
    Total Energy =                       -343.1049387291755011

Computation Completed

Properties will be evaluated at   0.000000,   0.000000,   0.000000 [a0]

Properties computed using the SCF density matrix

  Nuclear Dipole Moment: [e a0]
     X:    10.5198      Y:     2.8875      Z:    -2.8536

  Electronic Dipole Moment: [e a0]
     X:   -11.5213      Y:    -2.4496      Z:     1.9972

  Dipole Moment: [e a0]
     X:    -1.0015      Y:     0.4380      Z:    -0.8564     Total:     1.3886

  Dipole Moment: [D]
     X:    -2.5455      Y:     1.1132      Z:    -2.1768     Total:     3.5295

*** tstop() called on ds3 at Mon Apr 27 18:05:35 2020
Module time:
	user time   =      40.88 seconds =       0.68 minutes
	system time =      16.87 seconds =       0.28 minutes
	total time  =         75 seconds =       1.25 minutes
Total time:
	user time   =      40.88 seconds =       0.68 minutes
	system time =      16.87 seconds =       0.28 minutes
	total time  =         75 seconds =       1.25 minutes
                                     G D M A

                                 by Anthony Stone

                           version 2.2.06, 22 June 2011

               Distributed Multipoles from Gaussian wavefunctions

Starting at 18:5:35 on 27 Apr 2020

Using SCF density matrix from file ./SSI/SSI-022ILE-072HIE-1-dimer.test.18765.fchk

                         Distributed Multipole Analysis

Standard DMA

Positions and radii in angstrom
Multipole moments in atomic units, ea_0^k for rank k

C          x =  2.279331  y = -0.257818  z = -1.448897 angstrom
           Maximum rank =  0   Radius =  0.650 angstrom
                   Q00  =  -0.240667

C          x =  3.666331  y =  0.385182  z = -1.546897 angstrom
           Maximum rank =  0   Radius =  0.650 angstrom
                   Q00  =  -0.230810

H          x =  2.347331  y = -1.255818  z = -1.013897 angstrom
           Maximum rank =  0   Radius =  0.325 angstrom
                   Q00  =   0.083695

H          x =  1.636331  y =  0.356182  z = -0.819897 angstrom
           Maximum rank =  0   Radius =  0.325 angstrom
                   Q00  =   0.089819

H          x =  1.810331  y = -0.321818  z = -2.428897 angstrom
           Maximum rank =  0   Radius =  0.325 angstrom
                   Q00  =   0.064797

H          x =  3.558331  y =  1.345182  z = -2.053897 angstrom
           Maximum rank =  0   Radius =  0.325 angstrom
                   Q00  =   0.073695

H          x =  4.356221  y = -0.241732  z = -2.130877 angstrom
           Maximum rank =  0   Radius =  0.325 angstrom
                   Q00  =   0.074770

H          x =  4.080441  y =  0.537334  z = -0.539247 angstrom
           Maximum rank =  0   Radius =  0.325 angstrom
                   Q00  =   0.079772

C          x = -0.418669  y =  0.860182  z =  2.456103 angstrom
           Maximum rank =  0   Radius =  0.650 angstrom
                   Q00  =  -0.196895

C          x = -1.075669  y = -1.144818  z = -0.494897 angstrom
           Maximum rank =  0   Radius =  0.650 angstrom
                   Q00  =   0.465667

C          x = -0.888669  y =  0.306182  z =  1.149103 angstrom
           Maximum rank =  0   Radius =  0.650 angstrom
                   Q00  =   0.227297

C          x = -1.781669  y =  0.801182  z =  0.254103 angstrom
           Maximum rank =  0   Radius =  0.650 angstrom
                   Q00  =   0.001514

N          x = -0.466669  y = -0.916818  z =  0.664103 angstrom
           Maximum rank =  0   Radius =  0.650 angstrom
                   Q00  =  -0.776910

N          x = -1.866669  y = -0.118818  z = -0.760897 angstrom
           Maximum rank =  0   Radius =  0.650 angstrom
                   Q00  =  -0.472713

H          x = -0.950669  y = -2.021818  z = -1.120897 angstrom
           Maximum rank =  0   Radius =  0.325 angstrom
                   Q00  =   0.123937

H          x = -2.466669  y = -0.050818  z = -1.573897 angstrom
           Maximum rank =  0   Radius =  0.325 angstrom
                   Q00  =   0.215894

H          x = -2.325669  y =  1.730182  z =  0.330103 angstrom
           Maximum rank =  0   Radius =  0.325 angstrom
                   Q00  =   0.100512

H          x = -0.352669  y =  1.947182  z =  2.394103 angstrom
           Maximum rank =  0   Radius =  0.325 angstrom
                   Q00  =   0.093411

H          x =  0.591331  y =  0.484182  z =  2.620103 angstrom
           Maximum rank =  0   Radius =  0.325 angstrom
                   Q00  =   0.118541

H          x = -1.070362  y =  0.568692  z =  3.292963 angstrom
           Maximum rank =  0   Radius =  0.325 angstrom
                   Q00  =   0.104674

Total multipoles referred to origin at
           x =   0.000000,  y =    0.000000,  z =    0.000000 angstrom
                   Q00  =  -0.000000

Finished at 18:5:35 on 27 Apr 2020

  DMA results are available in the Python driver through the
	  variable('DMA DISTRIBUTED MULTIPOLES')
  and
	  variable('DMA TOTAL MULTIPOLES')
  commands.

    Psi4 stopped on: Monday, 27 April 2020 06:05PM
    Psi4 wall time for execution: 0:01:15.03

*** Psi4 exiting successfully. Buy a developer a beer!
