                               Psi4 1.3.2 release

  ==> Input File <==

--------------------------------------------------------------------------
import numpy as np
set {scf_type pk
basis cc-pvdz
d_convergence 10
gdma_switch   0
gdma_limit    0
gdma_origin   [ 0.0,  0.0,  0.0 ]
}
molecule test {
    units Angstrom
    0 1
    --
    0 1
    C               -1.841758382609845    -1.396979571808439     1.360372607062901
    C               -3.116758382609845    -0.566979571808439     1.337372607062902
    H               -1.703758382609845    -1.831979571808439     2.350372607062901
    H               -1.913758382609845    -2.200979571808439     0.632372607062902
    H               -1.019758382609845    -0.744979571808439     1.137372607062901
    H               -3.921758382609846    -1.108979571808439     1.833372607062901
    H               -2.944628382609845     0.408200428191561     1.816322607062901
    H               -3.437888382609845    -0.304949571808439     0.318442607062902
    C                1.224241617390155     1.824020428191561    -0.003627392937098
    C                1.270241617390155     0.466020428191561    -0.767627392937098
    O                1.526241617390155     0.398020428191561    -2.000627392937099
    N                1.034241617390155    -0.629979571808439    -0.024627392937098
    H                1.112241617390155    -1.526979571808439    -0.474627392937098
    H                0.921241617390155    -0.557979571808438     0.973372607062902
    H                2.216241617390155     2.020020428191561     0.403372607062902
    H                0.517241617390155     1.749020428191561     0.824372607062901
    H                0.920731617390155     2.653270428191561    -0.659547392937098

}
e, wfn = energy('scf', return_wfn=True)
gdma(wfn)
dmavals = variable('DMA DISTRIBUTED MULTIPOLES')
charges = np.array(dmavals)
print(charges)
np.save('SSI-223LEU-227ASN-1-dimer.npy', np.array(charges))--------------------------------------------------------------------------

*** tstart() called on ds3
*** at Tue Apr 28 10:04:37 2020

   => Loading Basis Set <=

    Name: CC-PVDZ
    Role: ORBITAL
    Keyword: BASIS
    atoms 1-2, 9-10  entry C          line   138 file /theoryfs2/ds/metcalf/miniconda2/envs/tf2gpu/share/psi4/basis/cc-pvdz.gbs
    atoms 3-8, 13-17 entry H          line    22 file /theoryfs2/ds/metcalf/miniconda2/envs/tf2gpu/share/psi4/basis/cc-pvdz.gbs
    atoms 11         entry O          line   198 file /theoryfs2/ds/metcalf/miniconda2/envs/tf2gpu/share/psi4/basis/cc-pvdz.gbs
    atoms 12         entry N          line   168 file /theoryfs2/ds/metcalf/miniconda2/envs/tf2gpu/share/psi4/basis/cc-pvdz.gbs

         ---------------------------------------------------------
                                   SCF
               by Justin Turney, Rob Parrish, Andy Simmonett
                          and Daniel G. A. Smith
                              RHF Reference
                        1 Threads,    500 MiB Core
         ---------------------------------------------------------

  ==> Geometry <==

    Molecular point group: c1
    Full point group: C1

    Geometry (in Angstrom), charge = 0, multiplicity = 1:

       Center              X                  Y                   Z               Mass
    ------------   -----------------  -----------------  -----------------  -----------------
         C           -1.841758382610    -1.396979571808     1.360372607063    12.000000000000
         C           -3.116758382610    -0.566979571808     1.337372607063    12.000000000000
         H           -1.703758382610    -1.831979571808     2.350372607063     1.007825032230
         H           -1.913758382610    -2.200979571808     0.632372607063     1.007825032230
         H           -1.019758382610    -0.744979571808     1.137372607063     1.007825032230
         H           -3.921758382610    -1.108979571808     1.833372607063     1.007825032230
         H           -2.944628382610     0.408200428192     1.816322607063     1.007825032230
         H           -3.437888382610    -0.304949571808     0.318442607063     1.007825032230
         C            1.224241617390     1.824020428192    -0.003627392937    12.000000000000
         C            1.270241617390     0.466020428192    -0.767627392937    12.000000000000
         O            1.526241617390     0.398020428192    -2.000627392937    15.994914619570
         N            1.034241617390    -0.629979571808    -0.024627392937    14.003074004430
         H            1.112241617390    -1.526979571808    -0.474627392937     1.007825032230
         H            0.921241617390    -0.557979571808     0.973372607063     1.007825032230
         H            2.216241617390     2.020020428192     0.403372607063     1.007825032230
         H            0.517241617390     1.749020428192     0.824372607063     1.007825032230
         H            0.920731617390     2.653270428192    -0.659547392937     1.007825032230

  Running in c1 symmetry.

  Rotational constants: A =      0.17319  B =      0.03577  C =      0.03357 [cm^-1]
  Rotational constants: A =   5191.97717  B =   1072.40816  C =   1006.49378 [MHz]
  Nuclear repulsion =  229.656686992045451

  Charge       = 0
  Multiplicity = 1
  Electrons    = 50
  Nalpha       = 25
  Nbeta        = 25

  ==> Algorithm <==

  SCF Algorithm Type is PK.
  DIIS enabled.
  MOM disabled.
  Fractional occupation disabled.
  Guess Type is SAD.
  Energy threshold   = 1.00e-06
  Density threshold  = 1.00e-10
  Integral threshold = 0.00e+00

  ==> Primary Basis <==

  Basis Set: CC-PVDZ
    Blend: CC-PVDZ
    Number of shells: 69
    Number of basis function: 139
    Number of Cartesian functions: 145
    Spherical Harmonics?: true
    Max angular momentum: 2

  ==> Pre-Iterations <==

   -------------------------------------------------------
    Irrep   Nso     Nmo     Nalpha   Nbeta   Ndocc  Nsocc
   -------------------------------------------------------
     A        139     139       0       0       0       0
   -------------------------------------------------------
    Total     139     139      25      25      25       0
   -------------------------------------------------------

  ==> Integral Setup <==

  Using integral reordering PK algorithm.
  Sizing the integral batches needed.
  Building batch lookup table.
   Calculation information:
      Number of atoms:                  17
      Number of AO shells:              69
      Number of primitives:            187
      Number of atomic orbitals:       145
      Number of basis functions:       139

      Integral cutoff                 1.00e-12
      Number of threads:                 1

	Batch   1 pq = [       0,    9730] index = [             0,47341315] size =     47341315
  Task number: 5
  Buffer size: 11059200
  Buffer per thread: 2
  We computed 2467183 shell quartets total.
  Whereas there are 2917320 unique shell quartets.

  ==> DiskJK: Disk-Based J/K Matrices <==

    J tasked:                  Yes
    K tasked:                  Yes
    wK tasked:                  No
    Memory [MiB]:              375
    Schwarz Cutoff:          1E-12

    OpenMP threads:              1

  Minimum eigenvalue in the overlap matrix is 5.0617902469E-03.
  Using Symmetric Orthogonalization.

  SCF Guess: Superposition of Atomic Densities via on-the-fly atomic UHF.

  ==> Iterations <==

                        Total Energy        Delta E     RMS |[F,P]|

   @RHF iter SAD:  -285.81536265034890   -2.85815e+02   0.00000e+00
   @RHF iter   1:  -286.98309968051120   -1.16774e+00   4.68248e-03 DIIS
   @RHF iter   2:  -287.15433216702786   -1.71232e-01   2.77456e-03 DIIS
   @RHF iter   3:  -287.21115526103927   -5.68231e-02   5.82652e-04 DIIS
   @RHF iter   4:  -287.21492804884235   -3.77279e-03   2.23224e-04 DIIS
   @RHF iter   5:  -287.21558560759865   -6.57559e-04   3.53710e-05 DIIS
   @RHF iter   6:  -287.21561769875285   -3.20912e-05   1.63426e-05 DIIS
   @RHF iter   7:  -287.21562305608558   -5.35733e-06   6.44893e-06 DIIS
   @RHF iter   8:  -287.21562429511886   -1.23903e-06   2.37737e-06 DIIS
   @RHF iter   9:  -287.21562446530299   -1.70184e-07   6.86130e-07 DIIS
   @RHF iter  10:  -287.21562447671806   -1.14151e-08   2.19622e-07 DIIS
   @RHF iter  11:  -287.21562447799823   -1.28017e-09   4.69819e-08 DIIS
   @RHF iter  12:  -287.21562447805945   -6.12204e-11   1.05905e-08 DIIS
   @RHF iter  13:  -287.21562447806184   -2.38742e-12   3.08883e-09 DIIS
   @RHF iter  14:  -287.21562447806309   -1.25056e-12   1.45153e-09 DIIS
   @RHF iter  15:  -287.21562447806252    5.68434e-13   6.93397e-10 DIIS
   @RHF iter  16:  -287.21562447806122    1.30740e-12   2.19133e-10 DIIS
   @RHF iter  17:  -287.21562447806292   -1.70530e-12   7.57701e-11 DIIS
  Energy and wave function converged.

  ==> Post-Iterations <==

    Orbital Energies [Eh]
    ---------------------

    Doubly Occupied:

       1A    -20.508200     2A    -15.593609     3A    -11.359027
       4A    -11.250735     5A    -11.224349     6A    -11.222314
       7A     -1.348632     8A     -1.214462     9A     -1.028936
      10A     -0.995398    11A     -0.847143    12A     -0.800514
      13A     -0.731361    14A     -0.646902    15A     -0.618316
      16A     -0.605490    17A     -0.600691    18A     -0.563916
      19A     -0.559487    20A     -0.524887    21A     -0.511700
      22A     -0.495988    23A     -0.485801    24A     -0.409650
      25A     -0.399823

    Virtual:

      26A      0.152988    27A      0.187890    28A      0.194506
      29A      0.200590    30A      0.223907    31A      0.236459
      32A      0.254346    33A      0.258838    34A      0.273128
      35A      0.280398    36A      0.290658    37A      0.343339
      38A      0.364206    39A      0.391681    40A      0.450275
      41A      0.553966    42A      0.582790    43A      0.587144
      44A      0.608861    45A      0.645836    46A      0.650966
      47A      0.677483    48A      0.682782    49A      0.699181
      50A      0.726812    51A      0.741590    52A      0.771123
      53A      0.837923    54A      0.849203    55A      0.861171
      56A      0.867808    57A      0.878936    58A      0.884908
      59A      0.889551    60A      0.898881    61A      0.914875
      62A      0.929716    63A      0.943358    64A      1.001097
      65A      1.020922    66A      1.050680    67A      1.087320
      68A      1.104971    69A      1.112655    70A      1.127405
      71A      1.168509    72A      1.251773    73A      1.335947
      74A      1.367482    75A      1.368321    76A      1.394949
      77A      1.431024    78A      1.440508    79A      1.464945
      80A      1.473868    81A      1.494491    82A      1.592360
      83A      1.633762    84A      1.653223    85A      1.678926
      86A      1.685068    87A      1.717642    88A      1.786967
      89A      1.844671    90A      1.855921    91A      1.865339
      92A      1.873953    93A      1.886208    94A      1.902871
      95A      1.907107    96A      1.922763    97A      1.935702
      98A      1.947283    99A      1.949430   100A      1.959270
     101A      1.975437   102A      1.985375   103A      2.045871
     104A      2.055031   105A      2.124861   106A      2.157810
     107A      2.170545   108A      2.177551   109A      2.257121
     110A      2.286652   111A      2.323007   112A      2.396529
     113A      2.425806   114A      2.441001   115A      2.454127
     116A      2.469872   117A      2.501623   118A      2.570698
     119A      2.578527   120A      2.590357   121A      2.641899
     122A      2.706696   123A      2.743435   124A      2.754512
     125A      2.789483   126A      2.808591   127A      2.832721
     128A      2.854767   129A      2.875617   130A      2.947662
     131A      2.952523   132A      2.990752   133A      3.078414
     134A      3.115328   135A      3.286979   136A      3.460608
     137A      3.482002   138A      3.795527   139A      3.854332

    Final Occupation by Irrep:
              A
    DOCC [    25 ]

  @RHF Final Energy:  -287.21562447806292

   => Energetics <=

    Nuclear Repulsion Energy =            229.6566869920454508
    One-Electron Energy =                -844.6499617545119918
    Two-Electron Energy =                 327.7776502844035917
    Total Energy =                       -287.2156244780629208

Computation Completed

Properties will be evaluated at   0.000000,   0.000000,   0.000000 [a0]

Properties computed using the SCF density matrix

  Nuclear Dipole Moment: [e a0]
     X:    -8.6709      Y:    -1.3521      Z:     8.5732

  Electronic Dipole Moment: [e a0]
     X:     8.4167      Y:     1.1469      Z:    -6.9137

  Dipole Moment: [e a0]
     X:    -0.2542      Y:    -0.2052      Z:     1.6595     Total:     1.6913

  Dipole Moment: [D]
     X:    -0.6461      Y:    -0.5216      Z:     4.2179     Total:     4.2989

*** tstop() called on ds3 at Tue Apr 28 10:05:02 2020
Module time:
	user time   =      17.79 seconds =       0.30 minutes
	system time =       8.43 seconds =       0.14 minutes
	total time  =         25 seconds =       0.42 minutes
Total time:
	user time   =      17.79 seconds =       0.30 minutes
	system time =       8.43 seconds =       0.14 minutes
	total time  =         25 seconds =       0.42 minutes
                                     G D M A

                                 by Anthony Stone

                           version 2.2.06, 22 June 2011

               Distributed Multipoles from Gaussian wavefunctions

Starting at 10:5:2 on 28 Apr 2020

Using SCF density matrix from file ./SSI/SSI-223LEU-227ASN-1-dimer.test.18025.fchk

                         Distributed Multipole Analysis

Standard DMA

Positions and radii in angstrom
Multipole moments in atomic units, ea_0^k for rank k

C          x = -1.841758  y = -1.396980  z =  1.360373 angstrom
           Maximum rank =  0   Radius =  0.650 angstrom
                   Q00  =  -0.235830

C          x = -3.116758  y = -0.566980  z =  1.337373 angstrom
           Maximum rank =  0   Radius =  0.650 angstrom
                   Q00  =  -0.233542

H          x = -1.703758  y = -1.831980  z =  2.350373 angstrom
           Maximum rank =  0   Radius =  0.325 angstrom
                   Q00  =   0.073821

H          x = -1.913758  y = -2.200980  z =  0.632373 angstrom
           Maximum rank =  0   Radius =  0.325 angstrom
                   Q00  =   0.084315

H          x = -1.019758  y = -0.744980  z =  1.137373 angstrom
           Maximum rank =  0   Radius =  0.325 angstrom
                   Q00  =   0.060278

H          x = -3.921758  y = -1.108980  z =  1.833373 angstrom
           Maximum rank =  0   Radius =  0.325 angstrom
                   Q00  =   0.080936

H          x = -2.944628  y =  0.408200  z =  1.816323 angstrom
           Maximum rank =  0   Radius =  0.325 angstrom
                   Q00  =   0.070127

H          x = -3.437888  y = -0.304950  z =  0.318443 angstrom
           Maximum rank =  0   Radius =  0.325 angstrom
                   Q00  =   0.081794

C          x =  1.224242  y =  1.824020  z = -0.003627 angstrom
           Maximum rank =  0   Radius =  0.650 angstrom
                   Q00  =  -0.262499

C          x =  1.270242  y =  0.466020  z = -0.767627 angstrom
           Maximum rank =  0   Radius =  0.650 angstrom
                   Q00  =   0.778342

O          x =  1.526242  y =  0.398020  z = -2.000627 angstrom
           Maximum rank =  0   Radius =  0.650 angstrom
                   Q00  =  -0.783252

N          x =  1.034242  y = -0.629980  z = -0.024627 angstrom
           Maximum rank =  0   Radius =  0.650 angstrom
                   Q00  =  -0.492253

H          x =  1.112242  y = -1.526980  z = -0.474627 angstrom
           Maximum rank =  0   Radius =  0.325 angstrom
                   Q00  =   0.223319

H          x =  0.921242  y = -0.557980  z =  0.973373 angstrom
           Maximum rank =  0   Radius =  0.325 angstrom
                   Q00  =   0.204533

H          x =  2.216242  y =  2.020020  z =  0.403373 angstrom
           Maximum rank =  0   Radius =  0.325 angstrom
                   Q00  =   0.128322

H          x =  0.517242  y =  1.749020  z =  0.824373 angstrom
           Maximum rank =  0   Radius =  0.325 angstrom
                   Q00  =   0.086093

H          x =  0.920732  y =  2.653270  z = -0.659547 angstrom
           Maximum rank =  0   Radius =  0.325 angstrom
                   Q00  =   0.135497

Total multipoles referred to origin at
           x =   0.000000,  y =    0.000000,  z =    0.000000 angstrom
                   Q00  =  -0.000000

Finished at 10:5:2 on 28 Apr 2020

  DMA results are available in the Python driver through the
	  variable('DMA DISTRIBUTED MULTIPOLES')
  and
	  variable('DMA TOTAL MULTIPOLES')
  commands.

    Psi4 stopped on: Tuesday, 28 April 2020 10:05AM
    Psi4 wall time for execution: 0:00:25.71

*** Psi4 exiting successfully. Buy a developer a beer!
