                               Psi4 1.3.2 release

  ==> Input File <==

--------------------------------------------------------------------------
import numpy as np
set {scf_type pk
basis cc-pvdz
d_convergence 10
gdma_switch   0
gdma_limit    0
gdma_origin   [ 0.0,  0.0,  0.0 ]
}
molecule test {
    units Angstrom
    0 1
    --
    0 1
    C                1.023288020041015    -1.233715181033526     0.228852947191377
    C                1.455288020041015    -0.309715181033526     1.371852947191377
    C               -0.126711979958985    -2.182715181033526     0.579852947191377
    H                0.687288020041015    -0.595715181033526    -0.587147052808623
    H                1.876288020041015    -1.798715181033526    -0.151147052808623
    H                0.571288020041015     0.149284818966474     1.820852947191377
    H               -0.871711979958985    -1.634715181033526     1.153852947191377
    H                2.111028020041015     0.483519818966474     0.983542947191377
    H                1.980438020041015    -0.883267181033526     2.149832947191377
    H               -0.610451979958985    -2.529994881033526    -0.345027052808623
    H                0.240958020041015    -3.035083161033526     1.170012947191377
    C               -0.571711979958985     1.707284818966474    -1.577147052808622
    C               -1.712711979958985     1.928284818966474    -0.583147052808623
    H               -0.595711979958985     2.476284818966474    -2.350147052808623
    H                0.364288020041015     1.787284818966474    -1.031147052808623
    H               -0.623711979958985     0.719284818966474    -2.035147052808623
    H               -1.736711979958985     1.089284818966474     0.112852947191377
    H               -2.673521979958984     1.998135818966474    -1.114157052808622
    H               -1.522751979958985     2.852882818966474    -0.018317052808623

}
e, wfn = energy('scf', return_wfn=True)
gdma(wfn)
dmavals = variable('DMA DISTRIBUTED MULTIPOLES')
charges = np.array(dmavals)
print(charges)
np.save('SSI-065LEU-080VAL-1-dimer.npy', np.array(charges))--------------------------------------------------------------------------

*** tstart() called on ds3
*** at Sun Apr 26 23:57:04 2020

   => Loading Basis Set <=

    Name: CC-PVDZ
    Role: ORBITAL
    Keyword: BASIS
    atoms 1-3, 12-13  entry C          line   138 file /theoryfs2/ds/metcalf/miniconda2/envs/tf2gpu/share/psi4/basis/cc-pvdz.gbs
    atoms 4-11, 14-19 entry H          line    22 file /theoryfs2/ds/metcalf/miniconda2/envs/tf2gpu/share/psi4/basis/cc-pvdz.gbs

         ---------------------------------------------------------
                                   SCF
               by Justin Turney, Rob Parrish, Andy Simmonett
                          and Daniel G. A. Smith
                              RHF Reference
                        1 Threads,    500 MiB Core
         ---------------------------------------------------------

  ==> Geometry <==

    Molecular point group: c1
    Full point group: C1

    Geometry (in Angstrom), charge = 0, multiplicity = 1:

       Center              X                  Y                   Z               Mass
    ------------   -----------------  -----------------  -----------------  -----------------
         C            1.023288020041    -1.233715181034     0.228852947191    12.000000000000
         C            1.455288020041    -0.309715181034     1.371852947191    12.000000000000
         C           -0.126711979959    -2.182715181034     0.579852947191    12.000000000000
         H            0.687288020041    -0.595715181034    -0.587147052809     1.007825032230
         H            1.876288020041    -1.798715181034    -0.151147052809     1.007825032230
         H            0.571288020041     0.149284818966     1.820852947191     1.007825032230
         H           -0.871711979959    -1.634715181034     1.153852947191     1.007825032230
         H            2.111028020041     0.483519818966     0.983542947191     1.007825032230
         H            1.980438020041    -0.883267181034     2.149832947191     1.007825032230
         H           -0.610451979959    -2.529994881034    -0.345027052809     1.007825032230
         H            0.240958020041    -3.035083161034     1.170012947191     1.007825032230
         C           -0.571711979959     1.707284818966    -1.577147052809    12.000000000000
         C           -1.712711979959     1.928284818966    -0.583147052809    12.000000000000
         H           -0.595711979959     2.476284818966    -2.350147052809     1.007825032230
         H            0.364288020041     1.787284818966    -1.031147052809     1.007825032230
         H           -0.623711979959     0.719284818966    -2.035147052809     1.007825032230
         H           -1.736711979959     1.089284818966     0.112852947191     1.007825032230
         H           -2.673521979959     1.998135818966    -1.114157052809     1.007825032230
         H           -1.522751979959     2.852882818966    -0.018317052809     1.007825032230

  Running in c1 symmetry.

  Rotational constants: A =      0.18424  B =      0.05057  C =      0.04672 [cm^-1]
  Rotational constants: A =   5523.37049  B =   1516.10583  C =   1400.76774 [MHz]
  Nuclear repulsion =  182.700454123514987

  Charge       = 0
  Multiplicity = 1
  Electrons    = 44
  Nalpha       = 22
  Nbeta        = 22

  ==> Algorithm <==

  SCF Algorithm Type is PK.
  DIIS enabled.
  MOM disabled.
  Fractional occupation disabled.
  Guess Type is SAD.
  Energy threshold   = 1.00e-06
  Density threshold  = 1.00e-10
  Integral threshold = 0.00e+00

  ==> Primary Basis <==

  Basis Set: CC-PVDZ
    Blend: CC-PVDZ
    Number of shells: 72
    Number of basis function: 140
    Number of Cartesian functions: 145
    Spherical Harmonics?: true
    Max angular momentum: 2

  ==> Pre-Iterations <==

   -------------------------------------------------------
    Irrep   Nso     Nmo     Nalpha   Nbeta   Ndocc  Nsocc
   -------------------------------------------------------
     A        140     140       0       0       0       0
   -------------------------------------------------------
    Total     140     140      22      22      22       0
   -------------------------------------------------------

  ==> Integral Setup <==

  Using integral reordering PK algorithm.
  Sizing the integral batches needed.
  Building batch lookup table.
   Calculation information:
      Number of atoms:                  19
      Number of AO shells:              72
      Number of primitives:            180
      Number of atomic orbitals:       145
      Number of basis functions:       140

      Integral cutoff                 1.00e-12
      Number of threads:                 1

	Batch   1 pq = [       0,    9405] index = [             0,44231715] size =     44231715
	Batch   2 pq = [    9405,    9870] index = [      44231715,48713385] size =      4481670
  Task number: 5
  Buffer size: 11059200
  Buffer per thread: 2
  We computed 3162831 shell quartets total.
  Whereas there are 3454506 unique shell quartets.

  ==> DiskJK: Disk-Based J/K Matrices <==

    J tasked:                  Yes
    K tasked:                  Yes
    wK tasked:                  No
    Memory [MiB]:              375
    Schwarz Cutoff:          1E-12

    OpenMP threads:              1

  Minimum eigenvalue in the overlap matrix is 5.4814484283E-03.
  Using Symmetric Orthogonalization.

  SCF Guess: Superposition of Atomic Densities via on-the-fly atomic UHF.

  ==> Iterations <==

                        Total Energy        Delta E     RMS |[F,P]|

   @RHF iter SAD:  -196.35224557345924   -1.96352e+02   0.00000e+00
   @RHF iter   1:  -197.31121906049728   -9.58973e-01   3.79135e-03 DIIS
   @RHF iter   2:  -197.47043351239651   -1.59214e-01   1.63904e-03 DIIS
   @RHF iter   3:  -197.49882641195984   -2.83929e-02   3.26102e-04 DIIS
   @RHF iter   4:  -197.50105240179059   -2.22599e-03   4.89243e-05 DIIS
   @RHF iter   5:  -197.50109182782558   -3.94260e-05   1.49033e-05 DIIS
   @RHF iter   6:  -197.50109522980367   -3.40198e-06   2.47118e-06 DIIS
   @RHF iter   7:  -197.50109534196093   -1.12157e-07   4.79404e-07 DIIS
   @RHF iter   8:  -197.50109534696165   -5.00071e-09   1.27176e-07 DIIS
   @RHF iter   9:  -197.50109534730299   -3.41345e-10   4.10306e-08 DIIS
   @RHF iter  10:  -197.50109534734275   -3.97620e-11   8.70094e-09 DIIS
   @RHF iter  11:  -197.50109534734537   -2.61480e-12   1.59829e-09 DIIS
   @RHF iter  12:  -197.50109534734491    4.54747e-13   3.16119e-10 DIIS
   @RHF iter  13:  -197.50109534734500   -8.52651e-14   6.09100e-11 DIIS
  Energy and wave function converged.

  ==> Post-Iterations <==

    Orbital Energies [Eh]
    ---------------------

    Doubly Occupied:

       1A    -11.220485     2A    -11.218580     3A    -11.218075
       4A    -11.217559     5A    -11.217371     6A     -1.051467
       7A     -1.019886     8A     -0.924165     9A     -0.837314
      10A     -0.795732    11A     -0.626800    12A     -0.599978
      13A     -0.598984    14A     -0.593218    15A     -0.548583
      16A     -0.533074    17A     -0.499949    18A     -0.489694
      19A     -0.486511    20A     -0.472460    21A     -0.470598
      22A     -0.460012

    Virtual:

      23A      0.160858    24A      0.206837    25A      0.209089
      26A      0.213329    27A      0.234140    28A      0.255597
      29A      0.261099    30A      0.265548    31A      0.278981
      32A      0.284662    33A      0.301871    34A      0.319618
      35A      0.324744    36A      0.342760    37A      0.380997
      38A      0.397449    39A      0.430057    40A      0.571106
      41A      0.587921    42A      0.592110    43A      0.606731
      44A      0.611751    45A      0.638485    46A      0.651534
      47A      0.668635    48A      0.688820    49A      0.761455
      50A      0.787978    51A      0.810896    52A      0.842561
      53A      0.845897    54A      0.870634    55A      0.878424
      56A      0.883622    57A      0.888626    58A      0.892311
      59A      0.910974    60A      0.914332    61A      0.915633
      62A      0.923409    63A      0.935777    64A      0.945615
      65A      0.971160    66A      0.996555    67A      1.001736
      68A      1.020692    69A      1.114203    70A      1.122080
      71A      1.125129    72A      1.156098    73A      1.245163
      74A      1.267117    75A      1.384946    76A      1.462815
      77A      1.464130    78A      1.481645    79A      1.486594
      80A      1.520657    81A      1.589172    82A      1.645323
      83A      1.663916    84A      1.677809    85A      1.687968
      86A      1.693434    87A      1.705688    88A      1.829730
      89A      1.854690    90A      1.870113    91A      1.886117
      92A      1.887100    93A      1.893080    94A      1.922392
      95A      1.926616    96A      1.937080    97A      1.943743
      98A      1.948872    99A      1.952520   100A      1.960312
     101A      1.963855   102A      1.976462   103A      1.993218
     104A      2.005256   105A      2.007347   106A      2.029822
     107A      2.066057   108A      2.106861   109A      2.114099
     110A      2.135482   111A      2.181535   112A      2.280083
     113A      2.288718   114A      2.294400   115A      2.312451
     116A      2.320830   117A      2.361841   118A      2.452830
     119A      2.461748   120A      2.467677   121A      2.541525
     122A      2.561296   123A      2.566983   124A      2.586495
     125A      2.610763   126A      2.646757   127A      2.749074
     128A      2.769570   129A      2.776905   130A      2.783126
     131A      2.797582   132A      2.803546   133A      2.845205
     134A      2.849083   135A      2.920559   136A      2.948192
     137A      2.953896   138A      2.960161   139A      2.979359
     140A      3.074429

    Final Occupation by Irrep:
              A
    DOCC [    22 ]

  @RHF Final Energy:  -197.50109534734500

   => Energetics <=

    Nuclear Repulsion Energy =            182.7004541235149873
    One-Electron Energy =                -626.2021110551186212
    Two-Electron Energy =                 246.0005615842586337
    Total Energy =                       -197.5010953473450002

Computation Completed

Properties will be evaluated at   0.000000,   0.000000,   0.000000 [a0]

Properties computed using the SCF density matrix

  Nuclear Dipole Moment: [e a0]
     X:    -0.7528      Y:     1.0110      Z:    -0.2262

  Electronic Dipole Moment: [e a0]
     X:     0.7600      Y:    -0.9872      Z:     0.1834

  Dipole Moment: [e a0]
     X:     0.0072      Y:     0.0239      Z:    -0.0428     Total:     0.0495

  Dipole Moment: [D]
     X:     0.0183      Y:     0.0606      Z:    -0.1089     Total:     0.1259

*** tstop() called on ds3 at Sun Apr 26 23:57:26 2020
Module time:
	user time   =      16.60 seconds =       0.28 minutes
	system time =       5.88 seconds =       0.10 minutes
	total time  =         22 seconds =       0.37 minutes
Total time:
	user time   =      16.60 seconds =       0.28 minutes
	system time =       5.88 seconds =       0.10 minutes
	total time  =         22 seconds =       0.37 minutes
                                     G D M A

                                 by Anthony Stone

                           version 2.2.06, 22 June 2011

               Distributed Multipoles from Gaussian wavefunctions

Starting at 23:57:26 on 26 Apr 2020

Using SCF density matrix from file ./SSI/SSI-065LEU-080VAL-1-dimer.test.5704.fchk

                         Distributed Multipole Analysis

Standard DMA

Positions and radii in angstrom
Multipole moments in atomic units, ea_0^k for rank k

C          x =  1.023288  y = -1.233715  z =  0.228853 angstrom
           Maximum rank =  0   Radius =  0.650 angstrom
                   Q00  =  -0.102492

C          x =  1.455288  y = -0.309715  z =  1.371853 angstrom
           Maximum rank =  0   Radius =  0.650 angstrom
                   Q00  =  -0.243993

C          x = -0.126712  y = -2.182715  z =  0.579853 angstrom
           Maximum rank =  0   Radius =  0.650 angstrom
                   Q00  =  -0.225373

H          x =  0.687288  y = -0.595715  z = -0.587147 angstrom
           Maximum rank =  0   Radius =  0.325 angstrom
                   Q00  =   0.045728

H          x =  1.876288  y = -1.798715  z = -0.151147 angstrom
           Maximum rank =  0   Radius =  0.325 angstrom
                   Q00  =   0.050249

H          x =  0.571288  y =  0.149285  z =  1.820853 angstrom
           Maximum rank =  0   Radius =  0.325 angstrom
                   Q00  =   0.076344

H          x = -0.871712  y = -1.634715  z =  1.153853 angstrom
           Maximum rank =  0   Radius =  0.325 angstrom
                   Q00  =   0.075381

H          x =  2.111028  y =  0.483520  z =  0.983543 angstrom
           Maximum rank =  0   Radius =  0.325 angstrom
                   Q00  =   0.083872

H          x =  1.980438  y = -0.883267  z =  2.149833 angstrom
           Maximum rank =  0   Radius =  0.325 angstrom
                   Q00  =   0.077215

H          x = -0.610452  y = -2.529995  z = -0.345027 angstrom
           Maximum rank =  0   Radius =  0.325 angstrom
                   Q00  =   0.082281

H          x =  0.240958  y = -3.035083  z =  1.170013 angstrom
           Maximum rank =  0   Radius =  0.325 angstrom
                   Q00  =   0.079659

C          x = -0.571712  y =  1.707285  z = -1.577147 angstrom
           Maximum rank =  0   Radius =  0.650 angstrom
                   Q00  =  -0.244676

C          x = -1.712712  y =  1.928285  z = -0.583147 angstrom
           Maximum rank =  0   Radius =  0.650 angstrom
                   Q00  =  -0.228234

H          x = -0.595712  y =  2.476285  z = -2.350147 angstrom
           Maximum rank =  0   Radius =  0.325 angstrom
                   Q00  =   0.079708

H          x =  0.364288  y =  1.787285  z = -1.031147 angstrom
           Maximum rank =  0   Radius =  0.325 angstrom
                   Q00  =   0.077449

H          x = -0.623712  y =  0.719285  z = -2.035147 angstrom
           Maximum rank =  0   Radius =  0.325 angstrom
                   Q00  =   0.079963

H          x = -1.736712  y =  1.089285  z =  0.112853 angstrom
           Maximum rank =  0   Radius =  0.325 angstrom
                   Q00  =   0.079352

H          x = -2.673522  y =  1.998136  z = -1.114157 angstrom
           Maximum rank =  0   Radius =  0.325 angstrom
                   Q00  =   0.078852

H          x = -1.522752  y =  2.852883  z = -0.018317 angstrom
           Maximum rank =  0   Radius =  0.325 angstrom
                   Q00  =   0.078714

Total multipoles referred to origin at
           x =   0.000000,  y =    0.000000,  z =    0.000000 angstrom
                   Q00  =  -0.000000

Finished at 23:57:26 on 26 Apr 2020

  DMA results are available in the Python driver through the
	  variable('DMA DISTRIBUTED MULTIPOLES')
  and
	  variable('DMA TOTAL MULTIPOLES')
  commands.

    Psi4 stopped on: Sunday, 26 April 2020 11:57PM
    Psi4 wall time for execution: 0:00:22.05

*** Psi4 exiting successfully. Buy a developer a beer!
