                               Psi4 1.3.2 release

  ==> Input File <==

--------------------------------------------------------------------------
import numpy as np
set {scf_type pk
basis cc-pvdz
d_convergence 10
gdma_switch   0
gdma_limit    0
gdma_origin   [ 0.0,  0.0,  0.0 ]
}
molecule test {
    units Angstrom
    0 1
    --
    0 1
    C               -0.306420074535678    -0.586755447386612    -2.947060489607040
    C               -0.719420074535678    -0.831755447386612    -4.390060489607040
    H               -1.129420074535678    -0.128755447386612    -2.395060489607040
    H               -0.035420074535678    -1.528755447386612    -2.467060489607040
    H                0.557579925464322     0.076244552613388    -2.903060489607040
    H                0.131579925464322    -1.244755447386612    -4.925060489607040
    H               -1.002740074535678     0.111384552613388    -4.880190489607040
    H               -1.542050074535678    -1.561385447386612    -4.420340489607040
    C               -1.847420074535678     0.331244552613388     2.595939510392960
    C                0.791579925464322     1.197244552613389     0.003939510392960
    C                1.689579925464322     0.166244552613388     0.143939510392960
    C               -0.363420074535678     1.238244552613389     0.763939510392960
    C               -0.631420074535678     0.250244552613388     1.703939510392960
    C                1.465579925464322    -0.808755447386612     1.105939510392960
    C                0.309579925464322    -0.770755447386612     1.876939510392960
    H                0.985579925464322     1.962244552613389    -0.730060489607040
    H                2.585579925464322     0.141244552613388    -0.462060489607040
    H               -1.042420074535678     2.070244552613389     0.647939510392960
    H                2.197579925464322    -1.571755447386612     1.262939510392960
    H               -2.201420074535678    -0.680755447386612     2.790939510392960
    H               -2.646420074535678     0.872244552613388     2.084939510392960
    H                0.147579925464322    -1.534755447386611     2.625939510392960
    H               -1.628050074535678     0.812154552613388     3.560619510392960

}
e, wfn = energy('scf', return_wfn=True)
gdma(wfn)
dmavals = variable('DMA DISTRIBUTED MULTIPOLES')
charges = np.array(dmavals)
print(charges)
np.save('SSI-007ALA-021PHE-1-dimer.npy', np.array(charges))--------------------------------------------------------------------------

*** tstart() called on ds3
*** at Tue Apr 28 12:11:25 2020

   => Loading Basis Set <=

    Name: CC-PVDZ
    Role: ORBITAL
    Keyword: BASIS
    atoms 1-2, 9-15  entry C          line   138 file /theoryfs2/ds/metcalf/miniconda2/envs/tf2gpu/share/psi4/basis/cc-pvdz.gbs
    atoms 3-8, 16-23 entry H          line    22 file /theoryfs2/ds/metcalf/miniconda2/envs/tf2gpu/share/psi4/basis/cc-pvdz.gbs

         ---------------------------------------------------------
                                   SCF
               by Justin Turney, Rob Parrish, Andy Simmonett
                          and Daniel G. A. Smith
                              RHF Reference
                        1 Threads,    500 MiB Core
         ---------------------------------------------------------

  ==> Geometry <==

    Molecular point group: c1
    Full point group: C1

    Geometry (in Angstrom), charge = 0, multiplicity = 1:

       Center              X                  Y                   Z               Mass
    ------------   -----------------  -----------------  -----------------  -----------------
         C           -0.306420074536    -0.586755447387    -2.947060489607    12.000000000000
         C           -0.719420074536    -0.831755447387    -4.390060489607    12.000000000000
         H           -1.129420074536    -0.128755447387    -2.395060489607     1.007825032230
         H           -0.035420074536    -1.528755447387    -2.467060489607     1.007825032230
         H            0.557579925464     0.076244552613    -2.903060489607     1.007825032230
         H            0.131579925464    -1.244755447387    -4.925060489607     1.007825032230
         H           -1.002740074536     0.111384552613    -4.880190489607     1.007825032230
         H           -1.542050074536    -1.561385447387    -4.420340489607     1.007825032230
         C           -1.847420074536     0.331244552613     2.595939510393    12.000000000000
         C            0.791579925464     1.197244552613     0.003939510393    12.000000000000
         C            1.689579925464     0.166244552613     0.143939510393    12.000000000000
         C           -0.363420074536     1.238244552613     0.763939510393    12.000000000000
         C           -0.631420074536     0.250244552613     1.703939510393    12.000000000000
         C            1.465579925464    -0.808755447387     1.105939510393    12.000000000000
         C            0.309579925464    -0.770755447387     1.876939510393    12.000000000000
         H            0.985579925464     1.962244552613    -0.730060489607     1.007825032230
         H            2.585579925464     0.141244552613    -0.462060489607     1.007825032230
         H           -1.042420074536     2.070244552613     0.647939510393     1.007825032230
         H            2.197579925464    -1.571755447387     1.262939510393     1.007825032230
         H           -2.201420074536    -0.680755447387     2.790939510393     1.007825032230
         H           -2.646420074536     0.872244552613     2.084939510393     1.007825032230
         H            0.147579925464    -1.534755447387     2.625939510393     1.007825032230
         H           -1.628050074536     0.812154552613     3.560619510393     1.007825032230

  Running in c1 symmetry.

  Rotational constants: A =      0.07234  B =      0.02328  C =      0.02088 [cm^-1]
  Rotational constants: A =   2168.63268  B =    697.96600  C =    626.01816 [MHz]
  Nuclear repulsion =  406.507432638531895

  Charge       = 0
  Multiplicity = 1
  Electrons    = 68
  Nalpha       = 34
  Nbeta        = 34

  ==> Algorithm <==

  SCF Algorithm Type is PK.
  DIIS enabled.
  MOM disabled.
  Fractional occupation disabled.
  Guess Type is SAD.
  Energy threshold   = 1.00e-06
  Density threshold  = 1.00e-10
  Integral threshold = 0.00e+00

  ==> Primary Basis <==

  Basis Set: CC-PVDZ
    Blend: CC-PVDZ
    Number of shells: 96
    Number of basis function: 196
    Number of Cartesian functions: 205
    Spherical Harmonics?: true
    Max angular momentum: 2

  ==> Pre-Iterations <==

   -------------------------------------------------------
    Irrep   Nso     Nmo     Nalpha   Nbeta   Ndocc  Nsocc
   -------------------------------------------------------
     A        196     196       0       0       0       0
   -------------------------------------------------------
    Total     196     196      34      34      34       0
   -------------------------------------------------------

  ==> Integral Setup <==

  Using integral reordering PK algorithm.
  Sizing the integral batches needed.
  Building batch lookup table.
   Calculation information:
      Number of atoms:                  23
      Number of AO shells:              96
      Number of primitives:            268
      Number of atomic orbitals:       205
      Number of basis functions:       196

      Integral cutoff                 1.00e-12
      Number of threads:                 1

	Batch   1 pq = [       0,    9405] index = [             0,44231715] size =     44231715
	Batch   2 pq = [    9405,   13301] index = [      44231715,88464951] size =     44233236
	Batch   3 pq = [   13301,   16290] index = [      88464951,132690195] size =     44225244
	Batch   4 pq = [   16290,   18810] index = [     132690195,176917455] size =     44227260
	Batch   5 pq = [   18810,   19306] index = [     176917455,186370471] size =      9453016
  Task number: 17
  Buffer size: 11059200
  Buffer per thread: 2
  We computed 9210159 shell quartets total.
  Whereas there are 10841496 unique shell quartets.

  ==> DiskJK: Disk-Based J/K Matrices <==

    J tasked:                  Yes
    K tasked:                  Yes
    wK tasked:                  No
    Memory [MiB]:              375
    Schwarz Cutoff:          1E-12

    OpenMP threads:              1

  Minimum eigenvalue in the overlap matrix is 3.0365519274E-04.
  Using Symmetric Orthogonalization.

  SCF Guess: Superposition of Atomic Densities via on-the-fly atomic UHF.

  ==> Iterations <==

                        Total Energy        Delta E     RMS |[F,P]|

   @RHF iter SAD:  -347.92250557767051   -3.47923e+02   0.00000e+00
   @RHF iter   1:  -348.76444283299242   -8.41937e-01   2.92040e-03 DIIS
   @RHF iter   2:  -348.95944877539773   -1.95006e-01   1.21518e-03 DIIS
   @RHF iter   3:  -348.99021084233073   -3.07621e-02   2.57381e-04 DIIS
   @RHF iter   4:  -348.99268830578677   -2.47746e-03   4.88081e-05 DIIS
   @RHF iter   5:  -348.99275436645826   -6.60607e-05   1.57228e-05 DIIS
   @RHF iter   6:  -348.99276067672065   -6.31026e-06   4.24214e-06 DIIS
   @RHF iter   7:  -348.99276118630968   -5.09589e-07   1.30851e-06 DIIS
   @RHF iter   8:  -348.99276123719591   -5.08862e-08   2.93080e-07 DIIS
   @RHF iter   9:  -348.99276124267766   -5.48175e-09   1.20913e-07 DIIS
   @RHF iter  10:  -348.99276124378861   -1.11095e-09   5.60496e-08 DIIS
   @RHF iter  11:  -348.99276124414155   -3.52941e-10   2.34356e-08 DIIS
   @RHF iter  12:  -348.99276124420084   -5.92877e-11   1.16508e-08 DIIS
   @RHF iter  13:  -348.99276124421772   -1.68825e-11   3.79103e-09 DIIS
   @RHF iter  14:  -348.99276124421976   -2.04636e-12   9.32129e-10 DIIS
   @RHF iter  15:  -348.99276124421863    1.13687e-12   2.95240e-10 DIIS
   @RHF iter  16:  -348.99276124421988   -1.25056e-12   9.93586e-11 DIIS
  Energy and wave function converged.

  ==> Post-Iterations <==

    Orbital Energies [Eh]
    ---------------------

    Doubly Occupied:

       1A    -11.240377     2A    -11.232554     3A    -11.230348
       4A    -11.230076     5A    -11.229788     6A    -11.227638
       7A    -11.227161     8A    -11.213042     9A    -11.208122
      10A     -1.154580    11A     -1.044870    12A     -1.013764
      13A     -1.011972    14A     -0.931870    15A     -0.829343
      16A     -0.824769    17A     -0.795580    18A     -0.692069
      19A     -0.632284    20A     -0.628936    21A     -0.593006
      22A     -0.591541    23A     -0.581614    24A     -0.576115
      25A     -0.562473    26A     -0.536489    27A     -0.499122
      28A     -0.485328    29A     -0.482876    30A     -0.481203
      31A     -0.479190    32A     -0.476979    33A     -0.331850
      34A     -0.322022

    Virtual:

      35A      0.138136    36A      0.141701    37A      0.176608
      38A      0.194098    39A      0.204069    40A      0.216691
      41A      0.238595    42A      0.250140    43A      0.254403
      44A      0.260269    45A      0.267838    46A      0.272592
      47A      0.283584    48A      0.285326    49A      0.293235
      50A      0.315358    51A      0.368860    52A      0.376746
      53A      0.399605    54A      0.456719    55A      0.466965
      56A      0.482683    57A      0.490595    58A      0.561049
      59A      0.568677    60A      0.602039    61A      0.605132
      62A      0.607897    63A      0.638327    64A      0.667449
      65A      0.677022    66A      0.683786    67A      0.696893
      68A      0.707986    69A      0.733747    70A      0.740143
      71A      0.743402    72A      0.753814    73A      0.763302
      74A      0.773433    75A      0.792204    76A      0.803162
      77A      0.844890    78A      0.851848    79A      0.860847
      80A      0.870381    81A      0.880804    82A      0.894882
      83A      0.896988    84A      0.899588    85A      0.900320
      86A      0.909362    87A      0.917626    88A      0.922493
      89A      0.932066    90A      0.937729    91A      0.945637
      92A      0.960573    93A      0.983766    94A      1.000120
      95A      1.016652    96A      1.054027    97A      1.123207
      98A      1.133178    99A      1.138037   100A      1.140191
     101A      1.158475   102A      1.162082   103A      1.192252
     104A      1.232283   105A      1.238300   106A      1.244515
     107A      1.254724   108A      1.276195   109A      1.300381
     110A      1.315297   111A      1.326176   112A      1.336134
     113A      1.413663   114A      1.479390   115A      1.487810
     116A      1.511607   117A      1.522619   118A      1.562800
     119A      1.584281   120A      1.608162   121A      1.664698
     122A      1.684458   123A      1.700141   124A      1.702435
     125A      1.736664   126A      1.752810   127A      1.762781
     128A      1.794443   129A      1.811134   130A      1.862084
     131A      1.867798   132A      1.881685   133A      1.890667
     134A      1.898981   135A      1.916368   136A      1.919269
     137A      1.920848   138A      1.928018   139A      1.943208
     140A      1.947797   141A      1.953814   142A      1.960272
     143A      1.961660   144A      1.968933   145A      1.970207
     146A      1.985894   147A      1.993564   148A      2.019566
     149A      2.050250   150A      2.076949   151A      2.084414
     152A      2.100683   153A      2.114995   154A      2.122583
     155A      2.146897   156A      2.158330   157A      2.177771
     158A      2.181565   159A      2.190234   160A      2.262547
     161A      2.284194   162A      2.294993   163A      2.299041
     164A      2.310804   165A      2.319313   166A      2.331449
     167A      2.350421   168A      2.456129   169A      2.465450
     170A      2.476028   171A      2.483828   172A      2.496411
     173A      2.545450   174A      2.565728   175A      2.578954
     176A      2.627265   177A      2.745265   178A      2.761745
     179A      2.767762   180A      2.771243   181A      2.790449
     182A      2.798318   183A      2.822343   184A      2.843549
     185A      2.859336   186A      2.865272   187A      2.879632
     188A      2.953998   189A      2.965637   190A      3.002793
     191A      3.019900   192A      3.034405   193A      3.162987
     194A      3.208638   195A      3.317936   196A      3.987631

    Final Occupation by Irrep:
              A
    DOCC [    34 ]

  @RHF Final Energy:  -348.99276124421988

   => Energetics <=

    Nuclear Repulsion Energy =            406.5074326385318955
    One-Electron Energy =               -1275.8024885447398447
    Two-Electron Energy =                 520.3022946619880713
    Total Energy =                       -348.9927612442198779

Computation Completed

Properties will be evaluated at   0.000000,   0.000000,   0.000000 [a0]

Properties computed using the SCF density matrix

  Nuclear Dipole Moment: [e a0]
     X:    -4.3334      Y:    -2.0673      Z:    -9.5712

  Electronic Dipole Moment: [e a0]
     X:     4.2810      Y:     2.0929      Z:     9.7326

  Dipole Moment: [e a0]
     X:    -0.0524      Y:     0.0256      Z:     0.1615     Total:     0.1717

  Dipole Moment: [D]
     X:    -0.1333      Y:     0.0651      Z:     0.4104     Total:     0.4363

*** tstop() called on ds3 at Tue Apr 28 12:12:56 2020
Module time:
	user time   =      65.32 seconds =       1.09 minutes
	system time =      29.16 seconds =       0.49 minutes
	total time  =         91 seconds =       1.52 minutes
Total time:
	user time   =      65.32 seconds =       1.09 minutes
	system time =      29.16 seconds =       0.49 minutes
	total time  =         91 seconds =       1.52 minutes
                                     G D M A

                                 by Anthony Stone

                           version 2.2.06, 22 June 2011

               Distributed Multipoles from Gaussian wavefunctions

Starting at 12:12:56 on 28 Apr 2020

Using SCF density matrix from file ./SSI/SSI-007ALA-021PHE-1-dimer.test.11493.fchk

                         Distributed Multipole Analysis

Standard DMA

Positions and radii in angstrom
Multipole moments in atomic units, ea_0^k for rank k

C          x = -0.306420  y = -0.586755  z = -2.947060 angstrom
           Maximum rank =  0   Radius =  0.650 angstrom
                   Q00  =  -0.219761

C          x = -0.719420  y = -0.831755  z = -4.390060 angstrom
           Maximum rank =  0   Radius =  0.650 angstrom
                   Q00  =  -0.238148

H          x = -1.129420  y = -0.128755  z = -2.395060 angstrom
           Maximum rank =  0   Radius =  0.325 angstrom
                   Q00  =   0.078447

H          x = -0.035420  y = -1.528755  z = -2.467060 angstrom
           Maximum rank =  0   Radius =  0.325 angstrom
                   Q00  =   0.079993

H          x =  0.557580  y =  0.076245  z = -2.903060 angstrom
           Maximum rank =  0   Radius =  0.325 angstrom
                   Q00  =   0.071774

H          x =  0.131580  y = -1.244755  z = -4.925060 angstrom
           Maximum rank =  0   Radius =  0.325 angstrom
                   Q00  =   0.074932

H          x = -1.002740  y =  0.111385  z = -4.880190 angstrom
           Maximum rank =  0   Radius =  0.325 angstrom
                   Q00  =   0.076205

H          x = -1.542050  y = -1.561385  z = -4.420340 angstrom
           Maximum rank =  0   Radius =  0.325 angstrom
                   Q00  =   0.077287

C          x = -1.847420  y =  0.331245  z =  2.595940 angstrom
           Maximum rank =  0   Radius =  0.650 angstrom
                   Q00  =  -0.205496

C          x =  0.791580  y =  1.197245  z =  0.003940 angstrom
           Maximum rank =  0   Radius =  0.650 angstrom
                   Q00  =  -0.002908

C          x =  1.689580  y =  0.166245  z =  0.143940 angstrom
           Maximum rank =  0   Radius =  0.650 angstrom
                   Q00  =  -0.092128

C          x = -0.363420  y =  1.238245  z =  0.763940 angstrom
           Maximum rank =  0   Radius =  0.650 angstrom
                   Q00  =  -0.040153

C          x = -0.631420  y =  0.250245  z =  1.703940 angstrom
           Maximum rank =  0   Radius =  0.650 angstrom
                   Q00  =  -0.101539

C          x =  1.465580  y = -0.808755  z =  1.105940 angstrom
           Maximum rank =  0   Radius =  0.650 angstrom
                   Q00  =  -0.074455

C          x =  0.309580  y = -0.770755  z =  1.876940 angstrom
           Maximum rank =  0   Radius =  0.650 angstrom
                   Q00  =  -0.078722

H          x =  0.985580  y =  1.962245  z = -0.730060 angstrom
           Maximum rank =  0   Radius =  0.325 angstrom
                   Q00  =   0.060157

H          x =  2.585580  y =  0.141245  z = -0.462060 angstrom
           Maximum rank =  0   Radius =  0.325 angstrom
                   Q00  =   0.058916

H          x = -1.042420  y =  2.070245  z =  0.647940 angstrom
           Maximum rank =  0   Radius =  0.325 angstrom
                   Q00  =   0.053850

H          x =  2.197580  y = -1.571755  z =  1.262940 angstrom
           Maximum rank =  0   Radius =  0.325 angstrom
                   Q00  =   0.063161

H          x = -2.201420  y = -0.680755  z =  2.790940 angstrom
           Maximum rank =  0   Radius =  0.325 angstrom
                   Q00  =   0.098568

H          x = -2.646420  y =  0.872245  z =  2.084940 angstrom
           Maximum rank =  0   Radius =  0.325 angstrom
                   Q00  =   0.099492

H          x =  0.147580  y = -1.534755  z =  2.625940 angstrom
           Maximum rank =  0   Radius =  0.325 angstrom
                   Q00  =   0.054837

H          x = -1.628050  y =  0.812155  z =  3.560620 angstrom
           Maximum rank =  0   Radius =  0.325 angstrom
                   Q00  =   0.105693

Total multipoles referred to origin at
           x =   0.000000,  y =    0.000000,  z =    0.000000 angstrom
                   Q00  =  -0.000000

Finished at 12:12:56 on 28 Apr 2020

  DMA results are available in the Python driver through the
	  variable('DMA DISTRIBUTED MULTIPOLES')
  and
	  variable('DMA TOTAL MULTIPOLES')
  commands.

    Psi4 stopped on: Tuesday, 28 April 2020 12:12PM
    Psi4 wall time for execution: 0:01:30.61

*** Psi4 exiting successfully. Buy a developer a beer!
