                               Psi4 1.3.2 release

  ==> Input File <==

--------------------------------------------------------------------------
import numpy as np
set {scf_type pk
basis cc-pvdz
d_convergence 10
gdma_switch   0
gdma_limit    0
gdma_origin   [ 0.0,  0.0,  0.0 ]
}
molecule test {
    units Angstrom
    0 1
    --
    0 1
    C               -0.671002702977971     0.724911633989670    -1.098168938391448
    C               -1.290002702977971     1.491911633989670    -2.261168938391448
    H                0.100997297022029     0.040911633989670    -1.453168938391448
    H               -0.220002702977971     1.425911633989670    -0.395168938391448
    H               -1.441002702977971     0.151911633989670    -0.579168938391448
    H               -2.004002702977972     2.208911633989670    -1.854168938391448
    H               -1.825311702977971     0.808281633989670    -2.936516938391448
    H               -0.526299702977971     2.065951633989670    -2.806361938391448
    C                0.907997297022029    -1.728088366010330     1.234831061608552
    C                1.051997297022029    -0.495088366010330     2.121831061608552
    H               -0.145002702977971    -1.930088366010330     1.033831061608552
    H                1.400997297022029    -1.545088366010330     0.279831061608552
    H                1.371997297022029    -2.594088366010330     1.711831061608552
    H                0.484997297022029     0.322911633989670     1.684831061608552
    H                0.703227297022029    -0.671278366010330     3.150091061608552
    H                2.111441297022029    -0.208598366010330     2.195999061608553

}
e, wfn = energy('scf', return_wfn=True)
gdma(wfn)
dmavals = variable('DMA DISTRIBUTED MULTIPOLES')
charges = np.array(dmavals)
print(charges)
np.save('SSI-035ALA-065LEU-1-dimer.npy', np.array(charges))--------------------------------------------------------------------------

*** tstart() called on ds3
*** at Mon Apr 27 07:51:16 2020

   => Loading Basis Set <=

    Name: CC-PVDZ
    Role: ORBITAL
    Keyword: BASIS
    atoms 1-2, 9-10  entry C          line   138 file /theoryfs2/ds/metcalf/miniconda2/envs/tf2gpu/share/psi4/basis/cc-pvdz.gbs
    atoms 3-8, 11-16 entry H          line    22 file /theoryfs2/ds/metcalf/miniconda2/envs/tf2gpu/share/psi4/basis/cc-pvdz.gbs

         ---------------------------------------------------------
                                   SCF
               by Justin Turney, Rob Parrish, Andy Simmonett
                          and Daniel G. A. Smith
                              RHF Reference
                        1 Threads,    500 MiB Core
         ---------------------------------------------------------

  ==> Geometry <==

    Molecular point group: c1
    Full point group: C1

    Geometry (in Angstrom), charge = 0, multiplicity = 1:

       Center              X                  Y                   Z               Mass
    ------------   -----------------  -----------------  -----------------  -----------------
         C           -0.671002702978     0.724911633990    -1.098168938391    12.000000000000
         C           -1.290002702978     1.491911633990    -2.261168938391    12.000000000000
         H            0.100997297022     0.040911633990    -1.453168938391     1.007825032230
         H           -0.220002702978     1.425911633990    -0.395168938391     1.007825032230
         H           -1.441002702978     0.151911633990    -0.579168938391     1.007825032230
         H           -2.004002702978     2.208911633990    -1.854168938391     1.007825032230
         H           -1.825311702978     0.808281633990    -2.936516938391     1.007825032230
         H           -0.526299702978     2.065951633990    -2.806361938391     1.007825032230
         C            0.907997297022    -1.728088366010     1.234831061609    12.000000000000
         C            1.051997297022    -0.495088366010     2.121831061609    12.000000000000
         H           -0.145002702978    -1.930088366010     1.033831061609     1.007825032230
         H            1.400997297022    -1.545088366010     0.279831061609     1.007825032230
         H            1.371997297022    -2.594088366010     1.711831061609     1.007825032230
         H            0.484997297022     0.322911633990     1.684831061609     1.007825032230
         H            0.703227297022    -0.671278366010     3.150091061609     1.007825032230
         H            2.111441297022    -0.208598366010     2.195999061609     1.007825032230

  Running in c1 symmetry.

  Rotational constants: A =      0.53935  B =      0.05069  C =      0.04801 [cm^-1]
  Rotational constants: A =  16169.36270  B =   1519.56619  C =   1439.20311 [MHz]
  Nuclear repulsion =  123.349047543920889

  Charge       = 0
  Multiplicity = 1
  Electrons    = 36
  Nalpha       = 18
  Nbeta        = 18

  ==> Algorithm <==

  SCF Algorithm Type is PK.
  DIIS enabled.
  MOM disabled.
  Fractional occupation disabled.
  Guess Type is SAD.
  Energy threshold   = 1.00e-06
  Density threshold  = 1.00e-10
  Integral threshold = 0.00e+00

  ==> Primary Basis <==

  Basis Set: CC-PVDZ
    Blend: CC-PVDZ
    Number of shells: 60
    Number of basis function: 116
    Number of Cartesian functions: 120
    Spherical Harmonics?: true
    Max angular momentum: 2

  ==> Pre-Iterations <==

   -------------------------------------------------------
    Irrep   Nso     Nmo     Nalpha   Nbeta   Ndocc  Nsocc
   -------------------------------------------------------
     A        116     116       0       0       0       0
   -------------------------------------------------------
    Total     116     116      18      18      18       0
   -------------------------------------------------------

  ==> Integral Setup <==

  Using integral reordering PK algorithm.
  Sizing the integral batches needed.
  Building batch lookup table.
   Calculation information:
      Number of atoms:                  16
      Number of AO shells:              60
      Number of primitives:            148
      Number of atomic orbitals:       120
      Number of basis functions:       116

      Integral cutoff                 1.00e-12
      Number of threads:                 1

	Batch   1 pq = [       0,    6786] index = [             0,23028291] size =     23028291
  Task number: 3
  Buffer size: 11059200
  Buffer per thread: 2
  We computed 1451726 shell quartets total.
  Whereas there are 1675365 unique shell quartets.

  ==> DiskJK: Disk-Based J/K Matrices <==

    J tasked:                  Yes
    K tasked:                  Yes
    wK tasked:                  No
    Memory [MiB]:              375
    Schwarz Cutoff:          1E-12

    OpenMP threads:              1

  Minimum eigenvalue in the overlap matrix is 6.2462463575E-03.
  Using Symmetric Orthogonalization.

  SCF Guess: Superposition of Atomic Densities via on-the-fly atomic UHF.

  ==> Iterations <==

                        Total Energy        Delta E     RMS |[F,P]|

   @RHF iter SAD:  -157.35789030283772   -1.57358e+02   0.00000e+00
   @RHF iter   1:  -158.30719970355153   -9.49309e-01   4.22306e-03 DIIS
   @RHF iter   2:  -158.44122656040128   -1.34027e-01   1.80591e-03 DIIS
   @RHF iter   3:  -158.46488540428015   -2.36588e-02   3.50054e-04 DIIS
   @RHF iter   4:  -158.46672083305674   -1.83543e-03   3.82129e-05 DIIS
   @RHF iter   5:  -158.46674372416868   -2.28911e-05   6.11760e-06 DIIS
   @RHF iter   6:  -158.46674429137190   -5.67203e-07   8.33785e-07 DIIS
   @RHF iter   7:  -158.46674429917903   -7.80713e-09   2.49908e-07 DIIS
   @RHF iter   8:  -158.46674429970361   -5.24579e-10   4.14188e-08 DIIS
   @RHF iter   9:  -158.46674429972762   -2.40163e-11   8.70328e-09 DIIS
   @RHF iter  10:  -158.46674429972907   -1.44951e-12   2.17288e-09 DIIS
   @RHF iter  11:  -158.46674429972944   -3.69482e-13   4.39808e-10 DIIS
   @RHF iter  12:  -158.46674429972859    8.52651e-13   1.35118e-10 DIIS
   @RHF iter  13:  -158.46674429972873   -1.42109e-13   2.75263e-11 DIIS
  Energy and wave function converged.

  ==> Post-Iterations <==

    Orbital Energies [Eh]
    ---------------------

    Doubly Occupied:

       1A    -11.219723     2A    -11.217833     3A    -11.217075
       4A    -11.216152     5A     -1.020582     6A     -1.016528
       7A     -0.837441     8A     -0.835927     9A     -0.601228
      10A     -0.599599    11A     -0.597924    12A     -0.591656
      13A     -0.504042    14A     -0.499939    15A     -0.492675
      16A     -0.486091    17A     -0.481559    18A     -0.478215

    Virtual:

      19A      0.174014    20A      0.195284    21A      0.226257
      22A      0.230085    23A      0.237526    24A      0.260825
      25A      0.267386    26A      0.274938    27A      0.282416
      28A      0.299003    29A      0.331846    30A      0.341225
      31A      0.395329    32A      0.405721    33A      0.563529
      34A      0.590996    35A      0.595693    36A      0.600100
      37A      0.606986    38A      0.650360    39A      0.677074
      40A      0.695323    41A      0.718924    42A      0.753133
      43A      0.845000    44A      0.855856    45A      0.884997
      46A      0.888924    47A      0.893834    48A      0.895626
      49A      0.905787    50A      0.912879    51A      0.923237
      52A      0.936607    53A      0.940490    54A      0.959980
      55A      0.975332    56A      1.018014    57A      1.122464
      58A      1.128060    59A      1.131157    60A      1.141069
      61A      1.216480    62A      1.270996    63A      1.468043
      64A      1.473834    65A      1.480103    66A      1.483856
      67A      1.570772    68A      1.594733    69A      1.679983
      70A      1.689601    71A      1.693084    72A      1.698054
      73A      1.852261    74A      1.866454    75A      1.871860
      76A      1.874954    77A      1.896356    78A      1.914546
      79A      1.936387    80A      1.941411    81A      1.943912
      82A      1.946485    83A      1.952385    84A      1.958184
      85A      1.959866    86A      1.968687    87A      1.978708
      88A      2.062525    89A      2.092085    90A      2.112274
      91A      2.112939    92A      2.138278    93A      2.298065
      94A      2.305418    95A      2.321285    96A      2.358856
      97A      2.444272    98A      2.453697    99A      2.463256
     100A      2.470052   101A      2.555354   102A      2.563642
     103A      2.567823   104A      2.583311   105A      2.758665
     106A      2.769190   107A      2.782669   108A      2.795873
     109A      2.845050   110A      2.853187   111A      2.863238
     112A      2.874119   113A      2.939904   114A      2.946913
     115A      2.964390   116A      2.979986

    Final Occupation by Irrep:
              A
    DOCC [    18 ]

  @RHF Final Energy:  -158.46674429972873

   => Energetics <=

    Nuclear Repulsion Energy =            123.3490475439208893
    One-Electron Energy =                -455.8032054925668035
    Two-Electron Energy =                 173.9874136489171690
    Total Energy =                       -158.4667442997287310

Computation Completed

Properties will be evaluated at   0.000000,   0.000000,   0.000000 [a0]

Properties computed using the SCF density matrix

  Nuclear Dipole Moment: [e a0]
     X:     0.0113      Y:     0.0709      Z:     0.0299

  Electronic Dipole Moment: [e a0]
     X:    -0.0197      Y:    -0.0568      Z:    -0.0413

  Dipole Moment: [e a0]
     X:    -0.0084      Y:     0.0141      Z:    -0.0114     Total:     0.0200

  Dipole Moment: [D]
     X:    -0.0215      Y:     0.0358      Z:    -0.0291     Total:     0.0509

*** tstop() called on ds3 at Mon Apr 27 07:51:36 2020
Module time:
	user time   =       7.49 seconds =       0.12 minutes
	system time =       2.59 seconds =       0.04 minutes
	total time  =         20 seconds =       0.33 minutes
Total time:
	user time   =       7.49 seconds =       0.12 minutes
	system time =       2.59 seconds =       0.04 minutes
	total time  =         20 seconds =       0.33 minutes
                                     G D M A

                                 by Anthony Stone

                           version 2.2.06, 22 June 2011

               Distributed Multipoles from Gaussian wavefunctions

Starting at 7:51:36 on 27 Apr 2020

Using SCF density matrix from file ./SSI/SSI-035ALA-065LEU-1-dimer.test.321.fchk

                         Distributed Multipole Analysis

Standard DMA

Positions and radii in angstrom
Multipole moments in atomic units, ea_0^k for rank k

C          x = -0.671003  y =  0.724912  z = -1.098169 angstrom
           Maximum rank =  0   Radius =  0.650 angstrom
                   Q00  =  -0.242358

C          x = -1.290003  y =  1.491912  z = -2.261169 angstrom
           Maximum rank =  0   Radius =  0.650 angstrom
                   Q00  =  -0.232476

H          x =  0.100997  y =  0.040912  z = -1.453169 angstrom
           Maximum rank =  0   Radius =  0.325 angstrom
                   Q00  =   0.080401

H          x = -0.220003  y =  1.425912  z = -0.395169 angstrom
           Maximum rank =  0   Radius =  0.325 angstrom
                   Q00  =   0.078354

H          x = -1.441003  y =  0.151912  z = -0.579169 angstrom
           Maximum rank =  0   Radius =  0.325 angstrom
                   Q00  =   0.078910

H          x = -2.004003  y =  2.208912  z = -1.854169 angstrom
           Maximum rank =  0   Radius =  0.325 angstrom
                   Q00  =   0.077293

H          x = -1.825312  y =  0.808282  z = -2.936517 angstrom
           Maximum rank =  0   Radius =  0.325 angstrom
                   Q00  =   0.080374

H          x = -0.526300  y =  2.065952  z = -2.806362 angstrom
           Maximum rank =  0   Radius =  0.325 angstrom
                   Q00  =   0.080278

C          x =  0.907997  y = -1.728088  z =  1.234831 angstrom
           Maximum rank =  0   Radius =  0.650 angstrom
                   Q00  =  -0.240788

C          x =  1.051997  y = -0.495088  z =  2.121831 angstrom
           Maximum rank =  0   Radius =  0.650 angstrom
                   Q00  =  -0.233284

H          x = -0.145003  y = -1.930088  z =  1.033831 angstrom
           Maximum rank =  0   Radius =  0.325 angstrom
                   Q00  =   0.079016

H          x =  1.400997  y = -1.545088  z =  0.279831 angstrom
           Maximum rank =  0   Radius =  0.325 angstrom
                   Q00  =   0.079228

H          x =  1.371997  y = -2.594088  z =  1.711831 angstrom
           Maximum rank =  0   Radius =  0.325 angstrom
                   Q00  =   0.078971

H          x =  0.484997  y =  0.322912  z =  1.684831 angstrom
           Maximum rank =  0   Radius =  0.325 angstrom
                   Q00  =   0.083190

H          x =  0.703227  y = -0.671278  z =  3.150091 angstrom
           Maximum rank =  0   Radius =  0.325 angstrom
                   Q00  =   0.077608

H          x =  2.111441  y = -0.208598  z =  2.195999 angstrom
           Maximum rank =  0   Radius =  0.325 angstrom
                   Q00  =   0.075281

Total multipoles referred to origin at
           x =   0.000000,  y =    0.000000,  z =    0.000000 angstrom
                   Q00  =  -0.000000

Finished at 7:51:36 on 27 Apr 2020

  DMA results are available in the Python driver through the
	  variable('DMA DISTRIBUTED MULTIPOLES')
  and
	  variable('DMA TOTAL MULTIPOLES')
  commands.

    Psi4 stopped on: Monday, 27 April 2020 07:51AM
    Psi4 wall time for execution: 0:00:19.81

*** Psi4 exiting successfully. Buy a developer a beer!
