                               Psi4 1.3.2 release

  ==> Input File <==

--------------------------------------------------------------------------
import numpy as np
set {scf_type pk
basis cc-pvdz
d_convergence 10
gdma_switch   0
gdma_limit    0
gdma_origin   [ 0.0,  0.0,  0.0 ]
}
molecule test {
    units Angstrom
    0 1
    --
    0 1
    C                2.615423187598806    -0.098209159935910    -2.741314709805996
    C                3.034423187598806     1.367790840064090    -2.636314709805997
    H                2.763423187598806    -0.430209159935910    -3.768314709805996
    H                3.227423187598806    -0.707209159935910    -2.076314709805997
    H                1.570423187598806    -0.231209159935910    -2.467314709805997
    H                2.906423187598806     1.689790840064090    -1.601314709805997
    H                2.410625187598806     1.998012840064090    -3.287234709805996
    H                4.097566187598805     1.470791840064090    -2.899219209805996
    C                1.478423187598806     0.901790840064090     2.262685290194004
    C                0.530423187598806    -0.330209159935910     0.274685290194004
    C                0.317423187598806     0.359790840064090     1.465685290194003
    C               -0.540576812401194    -0.847209159935910    -0.448314709805997
    C               -0.983576812401194     0.499790840064090     1.938685290194003
    C               -1.836576812401194    -0.688209159935910     0.031685290194003
    C               -2.059576812401194    -0.013209159935910     1.226685290194004
    O               -2.893576812401194    -1.186209159935910    -0.659314709805997
    H                1.540423187598806    -0.469209159935910    -0.088314709805997
    H               -0.384576812401194    -1.372209159935910    -1.377314709805997
    H                1.226423187598806     1.899790840064090     2.621685290194003
    H                2.355423187598806     0.993790840064090     1.620685290194003
    H               -1.162576812401194     1.026790840064090     2.864685290194003
    H               -3.062576812401194     0.106790840064090     1.610685290194003
    H               -3.712576812401194    -1.118209159935910    -0.167314709805997
    H                1.715741187598806     0.250429840064090     3.116740290194003

}
e, wfn = energy('scf', return_wfn=True)
gdma(wfn)
dmavals = variable('DMA DISTRIBUTED MULTIPOLES')
charges = np.array(dmavals)
print(charges)
np.save('SSI-219VAL-286TYR-1-dimer.npy', np.array(charges))--------------------------------------------------------------------------

*** tstart() called on ds3
*** at Mon Apr 27 23:23:20 2020

   => Loading Basis Set <=

    Name: CC-PVDZ
    Role: ORBITAL
    Keyword: BASIS
    atoms 1-2, 9-15  entry C          line   138 file /theoryfs2/ds/metcalf/miniconda2/envs/tf2gpu/share/psi4/basis/cc-pvdz.gbs
    atoms 3-8, 17-24 entry H          line    22 file /theoryfs2/ds/metcalf/miniconda2/envs/tf2gpu/share/psi4/basis/cc-pvdz.gbs
    atoms 16         entry O          line   198 file /theoryfs2/ds/metcalf/miniconda2/envs/tf2gpu/share/psi4/basis/cc-pvdz.gbs

         ---------------------------------------------------------
                                   SCF
               by Justin Turney, Rob Parrish, Andy Simmonett
                          and Daniel G. A. Smith
                              RHF Reference
                        1 Threads,    500 MiB Core
         ---------------------------------------------------------

  ==> Geometry <==

    Molecular point group: c1
    Full point group: C1

    Geometry (in Angstrom), charge = 0, multiplicity = 1:

       Center              X                  Y                   Z               Mass
    ------------   -----------------  -----------------  -----------------  -----------------
         C            2.615423187599    -0.098209159936    -2.741314709806    12.000000000000
         C            3.034423187599     1.367790840064    -2.636314709806    12.000000000000
         H            2.763423187599    -0.430209159936    -3.768314709806     1.007825032230
         H            3.227423187599    -0.707209159936    -2.076314709806     1.007825032230
         H            1.570423187599    -0.231209159936    -2.467314709806     1.007825032230
         H            2.906423187599     1.689790840064    -1.601314709806     1.007825032230
         H            2.410625187599     1.998012840064    -3.287234709806     1.007825032230
         H            4.097566187599     1.470791840064    -2.899219209806     1.007825032230
         C            1.478423187599     0.901790840064     2.262685290194    12.000000000000
         C            0.530423187599    -0.330209159936     0.274685290194    12.000000000000
         C            0.317423187599     0.359790840064     1.465685290194    12.000000000000
         C           -0.540576812401    -0.847209159936    -0.448314709806    12.000000000000
         C           -0.983576812401     0.499790840064     1.938685290194    12.000000000000
         C           -1.836576812401    -0.688209159936     0.031685290194    12.000000000000
         C           -2.059576812401    -0.013209159936     1.226685290194    12.000000000000
         O           -2.893576812401    -1.186209159936    -0.659314709806    15.994914619570
         H            1.540423187599    -0.469209159936    -0.088314709806     1.007825032230
         H           -0.384576812401    -1.372209159936    -1.377314709806     1.007825032230
         H            1.226423187599     1.899790840064     2.621685290194     1.007825032230
         H            2.355423187599     0.993790840064     1.620685290194     1.007825032230
         H           -1.162576812401     1.026790840064     2.864685290194     1.007825032230
         H           -3.062576812401     0.106790840064     1.610685290194     1.007825032230
         H           -3.712576812401    -1.118209159936    -0.167314709806     1.007825032230
         H            1.715741187599     0.250429840064     3.116740290194     1.007825032230

  Running in c1 symmetry.

  Rotational constants: A =      0.04842  B =      0.02270  C =      0.01637 [cm^-1]
  Rotational constants: A =   1451.61594  B =    680.47636  C =    490.83151 [MHz]
  Nuclear repulsion =  491.857792544661095

  Charge       = 0
  Multiplicity = 1
  Electrons    = 76
  Nalpha       = 38
  Nbeta        = 38

  ==> Algorithm <==

  SCF Algorithm Type is PK.
  DIIS enabled.
  MOM disabled.
  Fractional occupation disabled.
  Guess Type is SAD.
  Energy threshold   = 1.00e-06
  Density threshold  = 1.00e-10
  Integral threshold = 0.00e+00

  ==> Primary Basis <==

  Basis Set: CC-PVDZ
    Blend: CC-PVDZ
    Number of shells: 102
    Number of basis function: 210
    Number of Cartesian functions: 220
    Spherical Harmonics?: true
    Max angular momentum: 2

  ==> Pre-Iterations <==

   -------------------------------------------------------
    Irrep   Nso     Nmo     Nalpha   Nbeta   Ndocc  Nsocc
   -------------------------------------------------------
     A        210     210       0       0       0       0
   -------------------------------------------------------
    Total     210     210      38      38      38       0
   -------------------------------------------------------

  ==> Integral Setup <==

  Using integral reordering PK algorithm.
  Sizing the integral batches needed.
  Building batch lookup table.
   Calculation information:
      Number of atoms:                  24
      Number of AO shells:             102
      Number of primitives:            290
      Number of atomic orbitals:       220
      Number of basis functions:       210

      Integral cutoff                 1.00e-12
      Number of threads:                 1

	Batch   1 pq = [       0,    9405] index = [             0,44231715] size =     44231715
	Batch   2 pq = [    9405,   13301] index = [      44231715,88464951] size =     44233236
	Batch   3 pq = [   13301,   16290] index = [      88464951,132690195] size =     44225244
	Batch   4 pq = [   16290,   18810] index = [     132690195,176917455] size =     44227260
	Batch   5 pq = [   18810,   21030] index = [     176917455,221140965] size =     44223510
	Batch   6 pq = [   21030,   22155] index = [     221140965,245433090] size =     24292125
  Task number: 23
  Buffer size: 11059200
  Buffer per thread: 2
  We computed 11429551 shell quartets total.
  Whereas there are 13799631 unique shell quartets.

  ==> DiskJK: Disk-Based J/K Matrices <==

    J tasked:                  Yes
    K tasked:                  Yes
    wK tasked:                  No
    Memory [MiB]:              375
    Schwarz Cutoff:          1E-12

    OpenMP threads:              1

  Minimum eigenvalue in the overlap matrix is 3.1255843640E-04.
  Using Symmetric Orthogonalization.

  SCF Guess: Superposition of Atomic Densities via on-the-fly atomic UHF.

  ==> Iterations <==

                        Total Energy        Delta E     RMS |[F,P]|

   @RHF iter SAD:  -422.73454989637196   -4.22735e+02   0.00000e+00
   @RHF iter   1:  -423.60109844729016   -8.66549e-01   2.98471e-03 DIIS
   @RHF iter   2:  -423.81842798170385   -2.17330e-01   1.25771e-03 DIIS
   @RHF iter   3:  -423.85343521998573   -3.50072e-02   2.84816e-04 DIIS
   @RHF iter   4:  -423.85631632282013   -2.88110e-03   1.17636e-04 DIIS
   @RHF iter   5:  -423.85667293830602   -3.56615e-04   2.06543e-05 DIIS
   @RHF iter   6:  -423.85669015796009   -1.72197e-05   6.25854e-06 DIIS
   @RHF iter   7:  -423.85669172558897   -1.56763e-06   2.02170e-06 DIIS
   @RHF iter   8:  -423.85669193774146   -2.12152e-07   7.52865e-07 DIIS
   @RHF iter   9:  -423.85669197220528   -3.44638e-08   3.07472e-07 DIIS
   @RHF iter  10:  -423.85669197892145   -6.71616e-09   1.31272e-07 DIIS
   @RHF iter  11:  -423.85669198102357   -2.10213e-09   5.72937e-08 DIIS
   @RHF iter  12:  -423.85669198142364   -4.00064e-10   2.79160e-08 DIIS
   @RHF iter  13:  -423.85669198148912   -6.54836e-11   7.84387e-09 DIIS
   @RHF iter  14:  -423.85669198149543   -6.30962e-12   2.03913e-09 DIIS
   @RHF iter  15:  -423.85669198149526    1.70530e-13   6.37525e-10 DIIS
   @RHF iter  16:  -423.85669198149481    4.54747e-13   1.83181e-10 DIIS
   @RHF iter  17:  -423.85669198149503   -2.27374e-13   6.58629e-11 DIIS
  Energy and wave function converged.

  ==> Post-Iterations <==

    Orbital Energies [Eh]
    ---------------------

    Doubly Occupied:

       1A    -20.581854     2A    -11.298435     3A    -11.237219
       4A    -11.236891     5A    -11.232028     6A    -11.231551
       7A    -11.229287     8A    -11.227852     9A    -11.218866
      10A    -11.216102    11A     -1.402530    12A     -1.151475
      13A     -1.037094    14A     -1.020029    15A     -1.016859
      16A     -0.925938    17A     -0.844794    18A     -0.836235
      19A     -0.803031    20A     -0.733970    21A     -0.668687
      22A     -0.641286    23A     -0.608814    24A     -0.600720
      25A     -0.598082    26A     -0.587743    27A     -0.584111
      28A     -0.571424    29A     -0.566131    30A     -0.526074
      31A     -0.500255    32A     -0.496316    33A     -0.487640
      34A     -0.484053    35A     -0.482883    36A     -0.467202
      37A     -0.338948    38A     -0.300873

    Virtual:

      39A      0.129514    40A      0.154558    41A      0.170493
      42A      0.180902    43A      0.199851    44A      0.210110
      45A      0.226529    46A      0.238764    47A      0.245133
      48A      0.265333    49A      0.269290    50A      0.277792
      51A      0.283227    52A      0.307403    53A      0.319105
      54A      0.342125    55A      0.376047    56A      0.378941
      57A      0.397069    58A      0.433102    59A      0.459276
      60A      0.491228    61A      0.501641    62A      0.510241
      63A      0.595105    64A      0.604016    65A      0.606859
      66A      0.615235    67A      0.647048    68A      0.654350
      69A      0.667241    70A      0.685255    71A      0.692311
      72A      0.693027    73A      0.711709    74A      0.725962
      75A      0.733025    76A      0.736494    77A      0.767735
      78A      0.772405    79A      0.789065    80A      0.794565
      81A      0.803558    82A      0.831341    83A      0.842167
      84A      0.848811    85A      0.870808    86A      0.879033
      87A      0.884098    88A      0.889575    89A      0.891696
      90A      0.897578    91A      0.903904    92A      0.916053
      93A      0.919311    94A      0.930493    95A      0.938002
      96A      0.960279    97A      0.980422    98A      0.994257
      99A      1.006469   100A      1.021899   101A      1.042766
     102A      1.067883   103A      1.113046   104A      1.133329
     105A      1.138173   106A      1.146923   107A      1.152918
     108A      1.179233   109A      1.212611   110A      1.239594
     111A      1.248713   112A      1.271920   113A      1.282155
     114A      1.290396   115A      1.305247   116A      1.312159
     117A      1.331170   118A      1.356653   119A      1.364636
     120A      1.388109   121A      1.472929   122A      1.482264
     123A      1.493471   124A      1.508702   125A      1.528203
     126A      1.563360   127A      1.588574   128A      1.620890
     129A      1.624365   130A      1.679694   131A      1.683618
     132A      1.697682   133A      1.711628   134A      1.734669
     135A      1.756310   136A      1.781142   137A      1.802898
     138A      1.808422   139A      1.857958   140A      1.870852
     141A      1.879737   142A      1.893179   143A      1.896091
     144A      1.904456   145A      1.907931   146A      1.920957
     147A      1.923455   148A      1.942914   149A      1.946665
     150A      1.947884   151A      1.954795   152A      1.962010
     153A      1.967604   154A      1.977870   155A      1.985391
     156A      2.006080   157A      2.040704   158A      2.055724
     159A      2.063983   160A      2.070921   161A      2.077114
     162A      2.108575   163A      2.118795   164A      2.141501
     165A      2.152390   166A      2.176297   167A      2.209983
     168A      2.231969   169A      2.264388   170A      2.282949
     171A      2.294851   172A      2.303878   173A      2.317696
     174A      2.341006   175A      2.366622   176A      2.415080
     177A      2.460112   178A      2.461911   179A      2.473089
     180A      2.486650   181A      2.499601   182A      2.535506
     183A      2.541504   184A      2.564200   185A      2.583452
     186A      2.612404   187A      2.649641   188A      2.753774
     189A      2.764651   190A      2.775496   191A      2.793477
     192A      2.808387   193A      2.816682   194A      2.837402
     195A      2.859064   196A      2.861981   197A      2.904270
     198A      2.961699   199A      2.963997   200A      2.986339
     201A      3.008600   202A      3.095050   203A      3.117598
     204A      3.256823   205A      3.289334   206A      3.355162
     207A      3.580436   208A      3.677454   209A      3.986625
     210A      4.195515

    Final Occupation by Irrep:
              A
    DOCC [    38 ]

  @RHF Final Energy:  -423.85669198149503

   => Energetics <=

    Nuclear Repulsion Energy =            491.8577925446610948
    One-Electron Energy =               -1549.4424050071404508
    Two-Electron Energy =                 633.7279204809842668
    Total Energy =                       -423.8566919814950325

Computation Completed

Properties will be evaluated at   0.000000,   0.000000,   0.000000 [a0]

Properties computed using the SCF density matrix

  Nuclear Dipole Moment: [e a0]
     X:    14.5090      Y:     4.7828      Z:    -5.5325

  Electronic Dipole Moment: [e a0]
     X:   -14.7275      Y:    -4.6058      Z:     6.0492

  Dipole Moment: [e a0]
     X:    -0.2185      Y:     0.1770      Z:     0.5167     Total:     0.5882

  Dipole Moment: [D]
     X:    -0.5555      Y:     0.4499      Z:     1.3132     Total:     1.4951

*** tstop() called on ds3 at Mon Apr 27 23:25:33 2020
Module time:
	user time   =      96.70 seconds =       1.61 minutes
	system time =      43.06 seconds =       0.72 minutes
	total time  =        133 seconds =       2.22 minutes
Total time:
	user time   =      96.70 seconds =       1.61 minutes
	system time =      43.06 seconds =       0.72 minutes
	total time  =        133 seconds =       2.22 minutes
                                     G D M A

                                 by Anthony Stone

                           version 2.2.06, 22 June 2011

               Distributed Multipoles from Gaussian wavefunctions

Starting at 23:25:34 on 27 Apr 2020

Using SCF density matrix from file ./SSI/SSI-219VAL-286TYR-1-dimer.test.2592.fchk

                         Distributed Multipole Analysis

Standard DMA

Positions and radii in angstrom
Multipole moments in atomic units, ea_0^k for rank k

C          x =  2.615423  y = -0.098209  z = -2.741315 angstrom
           Maximum rank =  0   Radius =  0.650 angstrom
                   Q00  =  -0.246052

C          x =  3.034423  y =  1.367791  z = -2.636315 angstrom
           Maximum rank =  0   Radius =  0.650 angstrom
                   Q00  =  -0.229787

H          x =  2.763423  y = -0.430209  z = -3.768315 angstrom
           Maximum rank =  0   Radius =  0.325 angstrom
                   Q00  =   0.079246

H          x =  3.227423  y = -0.707209  z = -2.076315 angstrom
           Maximum rank =  0   Radius =  0.325 angstrom
                   Q00  =   0.074387

H          x =  1.570423  y = -0.231209  z = -2.467315 angstrom
           Maximum rank =  0   Radius =  0.325 angstrom
                   Q00  =   0.084511

H          x =  2.906423  y =  1.689791  z = -1.601315 angstrom
           Maximum rank =  0   Radius =  0.325 angstrom
                   Q00  =   0.075897

H          x =  2.410625  y =  1.998013  z = -3.287235 angstrom
           Maximum rank =  0   Radius =  0.325 angstrom
                   Q00  =   0.083090

H          x =  4.097566  y =  1.470792  z = -2.899219 angstrom
           Maximum rank =  0   Radius =  0.325 angstrom
                   Q00  =   0.077758

C          x =  1.478423  y =  0.901791  z =  2.262685 angstrom
           Maximum rank =  0   Radius =  0.650 angstrom
                   Q00  =  -0.191631

C          x =  0.530423  y = -0.330209  z =  0.274685 angstrom
           Maximum rank =  0   Radius =  0.650 angstrom
                   Q00  =  -0.010904

C          x =  0.317423  y =  0.359791  z =  1.465685 angstrom
           Maximum rank =  0   Radius =  0.650 angstrom
                   Q00  =  -0.138199

C          x = -0.540577  y = -0.847209  z = -0.448315 angstrom
           Maximum rank =  0   Radius =  0.650 angstrom
                   Q00  =  -0.133862

C          x = -0.983577  y =  0.499791  z =  1.938685 angstrom
           Maximum rank =  0   Radius =  0.650 angstrom
                   Q00  =   0.026010

C          x = -1.836577  y = -0.688209  z =  0.031685 angstrom
           Maximum rank =  0   Radius =  0.650 angstrom
                   Q00  =   0.322385

C          x = -2.059577  y = -0.013209  z =  1.226685 angstrom
           Maximum rank =  0   Radius =  0.650 angstrom
                   Q00  =  -0.179466

O          x = -2.893577  y = -1.186209  z = -0.659315 angstrom
           Maximum rank =  0   Radius =  0.650 angstrom
                   Q00  =  -0.674130

H          x =  1.540423  y = -0.469209  z = -0.088315 angstrom
           Maximum rank =  0   Radius =  0.325 angstrom
                   Q00  =   0.067231

H          x = -0.384577  y = -1.372209  z = -1.377315 angstrom
           Maximum rank =  0   Radius =  0.325 angstrom
                   Q00  =   0.078979

H          x =  1.226423  y =  1.899791  z =  2.621685 angstrom
           Maximum rank =  0   Radius =  0.325 angstrom
                   Q00  =   0.096960

H          x =  2.355423  y =  0.993791  z =  1.620685 angstrom
           Maximum rank =  0   Radius =  0.325 angstrom
                   Q00  =   0.096410

H          x = -1.162577  y =  1.026791  z =  2.864685 angstrom
           Maximum rank =  0   Radius =  0.325 angstrom
                   Q00  =   0.066069

H          x = -3.062577  y =  0.106791  z =  1.610685 angstrom
           Maximum rank =  0   Radius =  0.325 angstrom
                   Q00  =   0.071000

H          x = -3.712577  y = -1.118209  z = -0.167315 angstrom
           Maximum rank =  0   Radius =  0.325 angstrom
                   Q00  =   0.405176

H          x =  1.715741  y =  0.250430  z =  3.116740 angstrom
           Maximum rank =  0   Radius =  0.325 angstrom
                   Q00  =   0.098924

Total multipoles referred to origin at
           x =   0.000000,  y =    0.000000,  z =    0.000000 angstrom
                   Q00  =  -0.000000

Finished at 23:25:34 on 27 Apr 2020

  DMA results are available in the Python driver through the
	  variable('DMA DISTRIBUTED MULTIPOLES')
  and
	  variable('DMA TOTAL MULTIPOLES')
  commands.

    Psi4 stopped on: Monday, 27 April 2020 11:25PM
    Psi4 wall time for execution: 0:02:13.40

*** Psi4 exiting successfully. Buy a developer a beer!
