                               Psi4 1.3.2 release

  ==> Input File <==

--------------------------------------------------------------------------
import numpy as np
set {scf_type pk
basis cc-pvdz
d_convergence 10
gdma_switch   0
gdma_limit    0
gdma_origin   [ 0.0,  0.0,  0.0 ]
}
molecule test {
    units Angstrom
    0 1
    --
    0 1
    C                0.897596219572414     1.095311294537554    -1.257221550913467
    C               -0.255403780427586     2.101311294537554    -1.272221550913468
    H                1.686596219572414     1.413311294537554    -1.943221550913468
    H                1.321596219572414     1.021311294537554    -0.256221550913467
    H                0.554596219572414     0.096311294537554    -1.532221550913467
    H               -1.086403780427586     1.682311294537554    -0.705221550913467
    H               -0.591763780427586     2.292291294537554    -2.301971550913468
    H                0.067116219572414     3.040211294537554    -0.798471550913467
    C               -0.874403780427586    -1.078688705462446     1.179778449086533
    C                0.228596219572414    -2.118688705462446     1.351778449086533
    H               -1.397403780427587    -0.915688705462446     2.123778449086533
    H               -0.442403780427586    -0.129688705462446     0.867778449086533
    H               -1.583403780427586    -1.411688705462446     0.421778449086533
    H                0.754596219572414    -2.176688705462446     0.398778449086533
    H               -0.191273780427586    -3.108337705462445     1.584808449086532
    H                0.951196219572414    -1.794667705462446     2.115238449086533

}
e, wfn = energy('scf', return_wfn=True)
gdma(wfn)
dmavals = variable('DMA DISTRIBUTED MULTIPOLES')
charges = np.array(dmavals)
print(charges)
np.save('SSI-142ILE-185VAL-1-dimer.npy', np.array(charges))--------------------------------------------------------------------------

*** tstart() called on ds3
*** at Mon Apr 27 00:46:00 2020

   => Loading Basis Set <=

    Name: CC-PVDZ
    Role: ORBITAL
    Keyword: BASIS
    atoms 1-2, 9-10  entry C          line   138 file /theoryfs2/ds/metcalf/miniconda2/envs/tf2gpu/share/psi4/basis/cc-pvdz.gbs
    atoms 3-8, 11-16 entry H          line    22 file /theoryfs2/ds/metcalf/miniconda2/envs/tf2gpu/share/psi4/basis/cc-pvdz.gbs

         ---------------------------------------------------------
                                   SCF
               by Justin Turney, Rob Parrish, Andy Simmonett
                          and Daniel G. A. Smith
                              RHF Reference
                        1 Threads,    500 MiB Core
         ---------------------------------------------------------

  ==> Geometry <==

    Molecular point group: c1
    Full point group: C1

    Geometry (in Angstrom), charge = 0, multiplicity = 1:

       Center              X                  Y                   Z               Mass
    ------------   -----------------  -----------------  -----------------  -----------------
         C            0.897596219572     1.095311294538    -1.257221550913    12.000000000000
         C           -0.255403780428     2.101311294538    -1.272221550913    12.000000000000
         H            1.686596219572     1.413311294538    -1.943221550913     1.007825032230
         H            1.321596219572     1.021311294538    -0.256221550913     1.007825032230
         H            0.554596219572     0.096311294538    -1.532221550913     1.007825032230
         H           -1.086403780428     1.682311294538    -0.705221550913     1.007825032230
         H           -0.591763780428     2.292291294538    -2.301971550913     1.007825032230
         H            0.067116219572     3.040211294538    -0.798471550913     1.007825032230
         C           -0.874403780428    -1.078688705462     1.179778449087    12.000000000000
         C            0.228596219572    -2.118688705462     1.351778449087    12.000000000000
         H           -1.397403780428    -0.915688705462     2.123778449087     1.007825032230
         H           -0.442403780428    -0.129688705462     0.867778449087     1.007825032230
         H           -1.583403780428    -1.411688705462     0.421778449087     1.007825032230
         H            0.754596219572    -2.176688705462     0.398778449087     1.007825032230
         H           -0.191273780428    -3.108337705462     1.584808449087     1.007825032230
         H            0.951196219572    -1.794667705462     2.115238449087     1.007825032230

  Running in c1 symmetry.

  Rotational constants: A =      0.40304  B =      0.06100  C =      0.05521 [cm^-1]
  Rotational constants: A =  12082.82300  B =   1828.61964  C =   1655.27612 [MHz]
  Nuclear repulsion =  125.418462877428638

  Charge       = 0
  Multiplicity = 1
  Electrons    = 36
  Nalpha       = 18
  Nbeta        = 18

  ==> Algorithm <==

  SCF Algorithm Type is PK.
  DIIS enabled.
  MOM disabled.
  Fractional occupation disabled.
  Guess Type is SAD.
  Energy threshold   = 1.00e-06
  Density threshold  = 1.00e-10
  Integral threshold = 0.00e+00

  ==> Primary Basis <==

  Basis Set: CC-PVDZ
    Blend: CC-PVDZ
    Number of shells: 60
    Number of basis function: 116
    Number of Cartesian functions: 120
    Spherical Harmonics?: true
    Max angular momentum: 2

  ==> Pre-Iterations <==

   -------------------------------------------------------
    Irrep   Nso     Nmo     Nalpha   Nbeta   Ndocc  Nsocc
   -------------------------------------------------------
     A        116     116       0       0       0       0
   -------------------------------------------------------
    Total     116     116      18      18      18       0
   -------------------------------------------------------

  ==> Integral Setup <==

  Using integral reordering PK algorithm.
  Sizing the integral batches needed.
  Building batch lookup table.
   Calculation information:
      Number of atoms:                  16
      Number of AO shells:              60
      Number of primitives:            148
      Number of atomic orbitals:       120
      Number of basis functions:       116

      Integral cutoff                 1.00e-12
      Number of threads:                 1

	Batch   1 pq = [       0,    6786] index = [             0,23028291] size =     23028291
  Task number: 3
  Buffer size: 11059200
  Buffer per thread: 2
  We computed 1554674 shell quartets total.
  Whereas there are 1675365 unique shell quartets.

  ==> DiskJK: Disk-Based J/K Matrices <==

    J tasked:                  Yes
    K tasked:                  Yes
    wK tasked:                  No
    Memory [MiB]:              375
    Schwarz Cutoff:          1E-12

    OpenMP threads:              1

  Minimum eigenvalue in the overlap matrix is 7.3656009181E-03.
  Using Symmetric Orthogonalization.

  SCF Guess: Superposition of Atomic Densities via on-the-fly atomic UHF.

  ==> Iterations <==

                        Total Energy        Delta E     RMS |[F,P]|

   @RHF iter SAD:  -157.36347056127661   -1.57363e+02   0.00000e+00
   @RHF iter   1:  -158.30726424312093   -9.43794e-01   4.20343e-03 DIIS
   @RHF iter   2:  -158.44052958468453   -1.33265e-01   1.78847e-03 DIIS
   @RHF iter   3:  -158.46377888143667   -2.32493e-02   3.50088e-04 DIIS
   @RHF iter   4:  -158.46561676021591   -1.83788e-03   3.86554e-05 DIIS
   @RHF iter   5:  -158.46564035842087   -2.35982e-05   6.26666e-06 DIIS
   @RHF iter   6:  -158.46564095943071   -6.01010e-07   8.50012e-07 DIIS
   @RHF iter   7:  -158.46564096750598   -8.07526e-09   2.73855e-07 DIIS
   @RHF iter   8:  -158.46564096811369   -6.07713e-10   3.79405e-08 DIIS
   @RHF iter   9:  -158.46564096813660   -2.29079e-11   6.74064e-09 DIIS
   @RHF iter  10:  -158.46564096813682   -2.27374e-13   1.99623e-09 DIIS
   @RHF iter  11:  -158.46564096813694   -1.13687e-13   5.37179e-10 DIIS
   @RHF iter  12:  -158.46564096813691    2.84217e-14   1.35202e-10 DIIS
   @RHF iter  13:  -158.46564096813682    8.52651e-14   2.57799e-11 DIIS
  Energy and wave function converged.

  ==> Post-Iterations <==

    Orbital Energies [Eh]
    ---------------------

    Doubly Occupied:

       1A    -11.220239     2A    -11.219125     3A    -11.218149
       4A    -11.215929     5A     -1.020980     6A     -1.016701
       7A     -0.838074     8A     -0.835895     9A     -0.609040
      10A     -0.600266    11A     -0.595817    12A     -0.589087
      13A     -0.502228    14A     -0.499723    15A     -0.489086
      16A     -0.486914    17A     -0.484769    18A     -0.481522

    Virtual:

      19A      0.170093    20A      0.200995    21A      0.224685
      22A      0.229054    23A      0.252232    24A      0.254501
      25A      0.260835    26A      0.272004    27A      0.287846
      28A      0.293118    29A      0.312811    30A      0.364475
      31A      0.384049    32A      0.408627    33A      0.584100
      34A      0.587049    35A      0.602081    36A      0.608181
      37A      0.613947    38A      0.632765    39A      0.670260
      40A      0.689486    41A      0.708265    42A      0.801456
      43A      0.832570    44A      0.851722    45A      0.878061
      46A      0.883541    47A      0.893586    48A      0.895525
      49A      0.900537    50A      0.913205    51A      0.924772
      52A      0.933151    53A      0.946221    54A      0.959318
      55A      0.991516    56A      1.022225    57A      1.123096
      58A      1.126161    59A      1.131523    60A      1.137009
      61A      1.231382    62A      1.273612    63A      1.463948
      64A      1.471546    65A      1.481614    66A      1.486603
      67A      1.559287    68A      1.598099    69A      1.679301
      70A      1.686646    71A      1.698018    72A      1.712356
      73A      1.846367    74A      1.864751    75A      1.871728
      76A      1.882538    77A      1.893768    78A      1.902201
      79A      1.934574    80A      1.936262    81A      1.943622
      82A      1.950743    83A      1.955174    84A      1.959046
      85A      1.962234    86A      1.979955    87A      1.985806
      88A      2.016198    89A      2.091005    90A      2.111280
      91A      2.124736    92A      2.143501    93A      2.290403
      94A      2.298467    95A      2.316962    96A      2.324573
      97A      2.442305    98A      2.449628    99A      2.454083
     100A      2.478077   101A      2.561513   102A      2.568184
     103A      2.575560   104A      2.587948   105A      2.761302
     106A      2.763695   107A      2.787653   108A      2.792355
     109A      2.842518   110A      2.849559   111A      2.851725
     112A      2.878423   113A      2.937359   114A      2.945450
     115A      2.971474   116A      2.995328

    Final Occupation by Irrep:
              A
    DOCC [    18 ]

  @RHF Final Energy:  -158.46564096813682

   => Energetics <=

    Nuclear Repulsion Energy =            125.4184628774286381
    One-Electron Energy =                -459.9211179621740371
    Two-Electron Energy =                 176.0370141166085887
    Total Energy =                       -158.4656409681368245

Computation Completed

Properties will be evaluated at   0.000000,   0.000000,   0.000000 [a0]

Properties computed using the SCF density matrix

  Nuclear Dipole Moment: [e a0]
     X:     0.0404      Y:     0.0084      Z:    -0.0236

  Electronic Dipole Moment: [e a0]
     X:    -0.0339      Y:     0.0026      Z:     0.0114

  Dipole Moment: [e a0]
     X:     0.0064      Y:     0.0111      Z:    -0.0122     Total:     0.0177

  Dipole Moment: [D]
     X:     0.0163      Y:     0.0281      Z:    -0.0310     Total:     0.0450

*** tstop() called on ds3 at Mon Apr 27 00:46:11 2020
Module time:
	user time   =       7.79 seconds =       0.13 minutes
	system time =       2.82 seconds =       0.05 minutes
	total time  =         11 seconds =       0.18 minutes
Total time:
	user time   =       7.79 seconds =       0.13 minutes
	system time =       2.82 seconds =       0.05 minutes
	total time  =         11 seconds =       0.18 minutes
                                     G D M A

                                 by Anthony Stone

                           version 2.2.06, 22 June 2011

               Distributed Multipoles from Gaussian wavefunctions

Starting at 0:46:11 on 27 Apr 2020

Using SCF density matrix from file ./SSI/SSI-142ILE-185VAL-1-dimer.test.10762.fchk

                         Distributed Multipole Analysis

Standard DMA

Positions and radii in angstrom
Multipole moments in atomic units, ea_0^k for rank k

C          x =  0.897596  y =  1.095311  z = -1.257222 angstrom
           Maximum rank =  0   Radius =  0.650 angstrom
                   Q00  =  -0.238982

C          x = -0.255404  y =  2.101311  z = -1.272222 angstrom
           Maximum rank =  0   Radius =  0.650 angstrom
                   Q00  =  -0.237478

H          x =  1.686596  y =  1.413311  z = -1.943222 angstrom
           Maximum rank =  0   Radius =  0.325 angstrom
                   Q00  =   0.080531

H          x =  1.321596  y =  1.021311  z = -0.256222 angstrom
           Maximum rank =  0   Radius =  0.325 angstrom
                   Q00  =   0.077079

H          x =  0.554596  y =  0.096311  z = -1.532222 angstrom
           Maximum rank =  0   Radius =  0.325 angstrom
                   Q00  =   0.079423

H          x = -1.086404  y =  1.682311  z = -0.705222 angstrom
           Maximum rank =  0   Radius =  0.325 angstrom
                   Q00  =   0.080234

H          x = -0.591764  y =  2.292291  z = -2.301972 angstrom
           Maximum rank =  0   Radius =  0.325 angstrom
                   Q00  =   0.080710

H          x =  0.067116  y =  3.040211  z = -0.798472 angstrom
           Maximum rank =  0   Radius =  0.325 angstrom
                   Q00  =   0.079578

C          x = -0.874404  y = -1.078689  z =  1.179778 angstrom
           Maximum rank =  0   Radius =  0.650 angstrom
                   Q00  =  -0.240136

C          x =  0.228596  y = -2.118689  z =  1.351778 angstrom
           Maximum rank =  0   Radius =  0.650 angstrom
                   Q00  =  -0.234879

H          x = -1.397404  y = -0.915689  z =  2.123778 angstrom
           Maximum rank =  0   Radius =  0.325 angstrom
                   Q00  =   0.077341

H          x = -0.442404  y = -0.129689  z =  0.867778 angstrom
           Maximum rank =  0   Radius =  0.325 angstrom
                   Q00  =   0.082568

H          x = -1.583404  y = -1.411689  z =  0.421778 angstrom
           Maximum rank =  0   Radius =  0.325 angstrom
                   Q00  =   0.077986

H          x =  0.754596  y = -2.176689  z =  0.398778 angstrom
           Maximum rank =  0   Radius =  0.325 angstrom
                   Q00  =   0.075207

H          x = -0.191274  y = -3.108338  z =  1.584808 angstrom
           Maximum rank =  0   Radius =  0.325 angstrom
                   Q00  =   0.081352

H          x =  0.951196  y = -1.794668  z =  2.115238 angstrom
           Maximum rank =  0   Radius =  0.325 angstrom
                   Q00  =   0.079466

Total multipoles referred to origin at
           x =   0.000000,  y =    0.000000,  z =    0.000000 angstrom
                   Q00  =  -0.000000

Finished at 0:46:11 on 27 Apr 2020

  DMA results are available in the Python driver through the
	  variable('DMA DISTRIBUTED MULTIPOLES')
  and
	  variable('DMA TOTAL MULTIPOLES')
  commands.

    Psi4 stopped on: Monday, 27 April 2020 12:46AM
    Psi4 wall time for execution: 0:00:10.42

*** Psi4 exiting successfully. Buy a developer a beer!
