                               Psi4 1.3.2 release

  ==> Input File <==

--------------------------------------------------------------------------
import numpy as np
set {scf_type pk
basis cc-pvdz
d_convergence 10
gdma_switch   0
gdma_limit    0
gdma_origin   [ 0.0,  0.0,  0.0 ]
}
molecule test {
    units Angstrom
    0 1
    --
    0 1
    C                0.594149322809556     0.620728916745967     0.130714676678444
    C                0.451149322809556     2.035728916745967    -0.354285323321556
    C                0.826149322809556     2.147728916745967     2.015714676678444
    C                0.974149322809556    -1.655271083254033     1.940714676678444
    C                0.888149322809556    -0.230271083254033     2.485714676678444
    O                0.981149322809556    -0.014271083254033     3.703714676678444
    N                0.715149322809556     0.750728916745967     1.600714676678444
    H               -0.278850677190444     0.030728916745967    -0.146285323321556
    H                1.507149322809556     0.185728916745967    -0.281285323321556
    H               -0.598850677190444     2.319728916745967    -0.377285323321556
    H                0.903149322809556     2.173728916745967    -1.336285323321556
    H                1.651149322809556     2.274728916745967     2.719714676678444
    H                1.267149322809556    -1.649271083254033     0.892714676678444
    H                0.975869322809556     2.618668916745967     0.416974676678444
    H                1.083819322809556     2.655078916745967     1.074324676678444
    H               -0.088280677190444     2.549988916745967     2.476164676678444
    H                1.749169322809556    -2.205721083254033     2.494194676678444
    H               -0.019470677190444    -2.117211083254033     2.037314676678444
    C               -0.024850677190444    -1.274271083254033    -3.313285323321556
    C               -1.395850677190444    -0.861271083254033    -2.826285323321556
    O               -2.022850677190444    -0.016271083254033    -3.445285323321556
    N               -1.867850677190444    -1.475271083254033    -1.748285323321556
    H               -0.170850677190444    -2.062271083254033    -4.051285323321555
    H                0.538149322809556    -1.688271083254033    -2.477285323321556
    H               -2.777850677190444    -1.226271083254033    -1.395285323321556
    H               -1.295850677190444    -2.180271083254033    -1.290285323321556
    H                0.561959322809556    -0.451591083254033    -3.747855323321556

}
e, wfn = energy('scf', return_wfn=True)
gdma(wfn)
dmavals = variable('DMA DISTRIBUTED MULTIPOLES')
charges = np.array(dmavals)
print(charges)
np.save('SSI-013PRO-034GLN-1-dimer.npy', np.array(charges))--------------------------------------------------------------------------

*** tstart() called on ds3
*** at Sun Apr 26 17:56:40 2020

   => Loading Basis Set <=

    Name: CC-PVDZ
    Role: ORBITAL
    Keyword: BASIS
    atoms 1-5, 19-20  entry C          line   138 file /theoryfs2/ds/metcalf/miniconda2/envs/tf2gpu/share/psi4/basis/cc-pvdz.gbs
    atoms 6, 21       entry O          line   198 file /theoryfs2/ds/metcalf/miniconda2/envs/tf2gpu/share/psi4/basis/cc-pvdz.gbs
    atoms 7, 22       entry N          line   168 file /theoryfs2/ds/metcalf/miniconda2/envs/tf2gpu/share/psi4/basis/cc-pvdz.gbs
    atoms 8-18, 23-27 entry H          line    22 file /theoryfs2/ds/metcalf/miniconda2/envs/tf2gpu/share/psi4/basis/cc-pvdz.gbs

         ---------------------------------------------------------
                                   SCF
               by Justin Turney, Rob Parrish, Andy Simmonett
                          and Daniel G. A. Smith
                              RHF Reference
                        1 Threads,    500 MiB Core
         ---------------------------------------------------------

  ==> Geometry <==

    Molecular point group: c1
    Full point group: C1

    Geometry (in Angstrom), charge = 0, multiplicity = 1:

       Center              X                  Y                   Z               Mass
    ------------   -----------------  -----------------  -----------------  -----------------
         C            0.594149322810     0.620728916746     0.130714676678    12.000000000000
         C            0.451149322810     2.035728916746    -0.354285323322    12.000000000000
         C            0.826149322810     2.147728916746     2.015714676678    12.000000000000
         C            0.974149322810    -1.655271083254     1.940714676678    12.000000000000
         C            0.888149322810    -0.230271083254     2.485714676678    12.000000000000
         O            0.981149322810    -0.014271083254     3.703714676678    15.994914619570
         N            0.715149322810     0.750728916746     1.600714676678    14.003074004430
         H           -0.278850677190     0.030728916746    -0.146285323322     1.007825032230
         H            1.507149322810     0.185728916746    -0.281285323322     1.007825032230
         H           -0.598850677190     2.319728916746    -0.377285323322     1.007825032230
         H            0.903149322810     2.173728916746    -1.336285323322     1.007825032230
         H            1.651149322810     2.274728916746     2.719714676678     1.007825032230
         H            1.267149322810    -1.649271083254     0.892714676678     1.007825032230
         H            0.975869322810     2.618668916746     0.416974676678     1.007825032230
         H            1.083819322810     2.655078916746     1.074324676678     1.007825032230
         H           -0.088280677190     2.549988916746     2.476164676678     1.007825032230
         H            1.749169322810    -2.205721083254     2.494194676678     1.007825032230
         H           -0.019470677190    -2.117211083254     2.037314676678     1.007825032230
         C           -0.024850677190    -1.274271083254    -3.313285323322    12.000000000000
         C           -1.395850677190    -0.861271083254    -2.826285323322    12.000000000000
         O           -2.022850677190    -0.016271083254    -3.445285323322    15.994914619570
         N           -1.867850677190    -1.475271083254    -1.748285323322    14.003074004430
         H           -0.170850677190    -2.062271083254    -4.051285323322     1.007825032230
         H            0.538149322810    -1.688271083254    -2.477285323322     1.007825032230
         H           -2.777850677190    -1.226271083254    -1.395285323322     1.007825032230
         H           -1.295850677190    -2.180271083254    -1.290285323322     1.007825032230
         H            0.561959322810    -0.451591083254    -3.747855323322     1.007825032230

  Running in c1 symmetry.

  Rotational constants: A =      0.05456  B =      0.01399  C =      0.01225 [cm^-1]
  Rotational constants: A =   1635.73615  B =    419.28871  C =    367.24895 [MHz]
  Nuclear repulsion =  631.046784081338728

  Charge       = 0
  Multiplicity = 1
  Electrons    = 88
  Nalpha       = 44
  Nbeta        = 44

  ==> Algorithm <==

  SCF Algorithm Type is PK.
  DIIS enabled.
  MOM disabled.
  Fractional occupation disabled.
  Guess Type is SAD.
  Energy threshold   = 1.00e-06
  Density threshold  = 1.00e-10
  Integral threshold = 0.00e+00

  ==> Primary Basis <==

  Basis Set: CC-PVDZ
    Blend: CC-PVDZ
    Number of shells: 114
    Number of basis function: 234
    Number of Cartesian functions: 245
    Spherical Harmonics?: true
    Max angular momentum: 2

  ==> Pre-Iterations <==

   -------------------------------------------------------
    Irrep   Nso     Nmo     Nalpha   Nbeta   Ndocc  Nsocc
   -------------------------------------------------------
     A        234     234       0       0       0       0
   -------------------------------------------------------
    Total     234     234      44      44      44       0
   -------------------------------------------------------

  ==> Integral Setup <==

  Using integral reordering PK algorithm.
  Sizing the integral batches needed.
  Building batch lookup table.
   Calculation information:
      Number of atoms:                  27
      Number of AO shells:             114
      Number of primitives:            322
      Number of atomic orbitals:       245
      Number of basis functions:       234

      Integral cutoff                 1.00e-12
      Number of threads:                 1

	Batch   1 pq = [       0,    9405] index = [             0,44231715] size =     44231715
	Batch   2 pq = [    9405,   13301] index = [      44231715,88464951] size =     44233236
	Batch   3 pq = [   13301,   16290] index = [      88464951,132690195] size =     44225244
	Batch   4 pq = [   16290,   18810] index = [     132690195,176917455] size =     44227260
	Batch   5 pq = [   18810,   21030] index = [     176917455,221140965] size =     44223510
	Batch   6 pq = [   21030,   23037] index = [     221140965,265363203] size =     44222238
	Batch   7 pq = [   23037,   24883] index = [     265363203,309594286] size =     44231083
	Batch   8 pq = [   24883,   26601] index = [     309594286,353819901] size =     44225615
	Batch   9 pq = [   26601,   27495] index = [     353819901,378001260] size =     24181359
  Task number: 35
  Buffer size: 11059200
  Buffer per thread: 2
  We computed 20278133 shell quartets total.
  Whereas there are 21487290 unique shell quartets.

  ==> DiskJK: Disk-Based J/K Matrices <==

    J tasked:                  Yes
    K tasked:                  Yes
    wK tasked:                  No
    Memory [MiB]:              375
    Schwarz Cutoff:          1E-12

    OpenMP threads:              1

  Minimum eigenvalue in the overlap matrix is 1.5401319193E-03.
  Using Symmetric Orthogonalization.

  SCF Guess: Superposition of Atomic Densities via on-the-fly atomic UHF.

  ==> Iterations <==

                        Total Energy        Delta E     RMS |[F,P]|

   @RHF iter SAD:  -531.98784035730557   -5.31988e+02   0.00000e+00
   @RHF iter   1:  -532.51292329039154   -5.25083e-01   3.51120e-03 DIIS
   @RHF iter   2:  -532.78155327063030   -2.68630e-01   2.12646e-03 DIIS
   @RHF iter   3:  -532.87233860684364   -9.07853e-02   4.38166e-04 DIIS
   @RHF iter   4:  -532.87876269076662   -6.42408e-03   1.62429e-04 DIIS
   @RHF iter   5:  -532.87976844494040   -1.00575e-03   3.32010e-05 DIIS
   @RHF iter   6:  -532.87984386478149   -7.54198e-05   1.80600e-05 DIIS
   @RHF iter   7:  -532.87986131772652   -1.74529e-05   6.74124e-06 DIIS
   @RHF iter   8:  -532.87986459007209   -3.27235e-06   2.83916e-06 DIIS
   @RHF iter   9:  -532.87986508032725   -4.90255e-07   1.02367e-06 DIIS
   @RHF iter  10:  -532.87986514872739   -6.84001e-08   2.73153e-07 DIIS
   @RHF iter  11:  -532.87986515299463   -4.26724e-09   9.29834e-08 DIIS
   @RHF iter  12:  -532.87986515344460   -4.49973e-10   3.21579e-08 DIIS
   @RHF iter  13:  -532.87986515349655   -5.19549e-11   8.32859e-09 DIIS
   @RHF iter  14:  -532.87986515350553   -8.98126e-12   2.75350e-09 DIIS
   @RHF iter  15:  -532.87986515350804   -2.50111e-12   1.03004e-09 DIIS
   @RHF iter  16:  -532.87986515350281    5.22959e-12   4.05729e-10 DIIS
   @RHF iter  17:  -532.87986515350406   -1.25056e-12   1.40006e-10 DIIS
   @RHF iter  18:  -532.87986515350735   -3.29692e-12   6.32819e-11 DIIS
  Energy and wave function converged.

  ==> Post-Iterations <==

    Orbital Energies [Eh]
    ---------------------

    Doubly Occupied:

       1A    -20.512589     2A    -20.499007     3A    -15.602570
       4A    -15.587160     5A    -11.356199     6A    -11.343985
       7A    -11.281746     8A    -11.251085     9A    -11.247477
      10A    -11.245300    11A    -11.220449    12A     -1.381274
      13A     -1.359975    14A     -1.255306    15A     -1.229714
      16A     -1.073800    17A     -1.011656    18A     -1.009705
      19A     -0.973489    20A     -0.857432    21A     -0.809363
      22A     -0.756868    23A     -0.739708    24A     -0.732106
      25A     -0.677578    26A     -0.665691    27A     -0.653867
      28A     -0.625727    29A     -0.615652    30A     -0.605441
      31A     -0.581423    32A     -0.579116    33A     -0.567570
      34A     -0.554697    35A     -0.540772    36A     -0.535823
      37A     -0.531166    38A     -0.523012    39A     -0.486670
      40A     -0.417826    41A     -0.415883    42A     -0.405641
      43A     -0.398192    44A     -0.360929

    Virtual:

      45A      0.131868    46A      0.173388    47A      0.178282
      48A      0.187521    49A      0.192668    50A      0.198598
      51A      0.216455    52A      0.226666    53A      0.241006
      54A      0.247621    55A      0.254174    56A      0.268035
      57A      0.278918    58A      0.283517    59A      0.289062
      60A      0.306249    61A      0.322312    62A      0.330004
      63A      0.342241    64A      0.365230    65A      0.379458
      66A      0.414043    67A      0.446565    68A      0.459902
      69A      0.494669    70A      0.517776    71A      0.532821
      72A      0.572071    73A      0.583724    74A      0.609103
      75A      0.626489    76A      0.633346    77A      0.646939
      78A      0.666441    79A      0.671227    80A      0.687595
      81A      0.694687    82A      0.703571    83A      0.719452
      84A      0.735090    85A      0.746633    86A      0.755914
      87A      0.787322    88A      0.806494    89A      0.811835
      90A      0.823608    91A      0.841384    92A      0.852447
      93A      0.856425    94A      0.872967    95A      0.874759
      96A      0.880731    97A      0.891732    98A      0.895002
      99A      0.901284   100A      0.906496   101A      0.917434
     102A      0.926941   103A      0.934809   104A      0.942598
     105A      0.954367   106A      0.967840   107A      0.996342
     108A      1.013639   109A      1.037345   110A      1.054818
     111A      1.064548   112A      1.096752   113A      1.104461
     114A      1.108319   115A      1.123871   116A      1.145632
     117A      1.164534   118A      1.225118   119A      1.241008
     120A      1.263284   121A      1.316456   122A      1.347903
     123A      1.354914   124A      1.371789   125A      1.383722
     126A      1.390520   127A      1.399460   128A      1.410601
     129A      1.426277   130A      1.435648   131A      1.453922
     132A      1.464958   133A      1.474581   134A      1.493810
     135A      1.548529   136A      1.562165   137A      1.581095
     138A      1.590067   139A      1.628283   140A      1.635081
     141A      1.641221   142A      1.651768   143A      1.678454
     144A      1.682290   145A      1.724205   146A      1.744467
     147A      1.772171   148A      1.803265   149A      1.813675
     150A      1.828697   151A      1.844169   152A      1.856024
     153A      1.864481   154A      1.872028   155A      1.877484
     156A      1.885002   157A      1.894387   158A      1.906967
     159A      1.921562   160A      1.932971   161A      1.937792
     162A      1.952568   163A      1.967931   164A      1.985915
     165A      1.991879   166A      2.020544   167A      2.027764
     168A      2.040524   169A      2.044616   170A      2.065611
     171A      2.071175   172A      2.107336   173A      2.114976
     174A      2.124284   175A      2.141355   176A      2.168024
     177A      2.181598   178A      2.198708   179A      2.215291
     180A      2.228592   181A      2.241693   182A      2.262577
     183A      2.267056   184A      2.281702   185A      2.337886
     186A      2.353608   187A      2.407650   188A      2.413927
     189A      2.440777   190A      2.450916   191A      2.464385
     192A      2.485722   193A      2.495824   194A      2.522783
     195A      2.533455   196A      2.557637   197A      2.568761
     198A      2.603839   199A      2.611858   200A      2.631669
     201A      2.704860   202A      2.717161   203A      2.745814
     204A      2.751931   205A      2.758344   206A      2.774732
     207A      2.787019   208A      2.801699   209A      2.812568
     210A      2.828224   211A      2.836703   212A      2.845369
     213A      2.847200   214A      2.923856   215A      2.952873
     216A      2.976439   217A      3.055664   218A      3.087327
     219A      3.090763   220A      3.127010   221A      3.129982
     222A      3.163190   223A      3.211064   224A      3.277670
     225A      3.314841   226A      3.349968   227A      3.492393
     228A      3.515099   229A      3.542332   230A      3.817281
     231A      3.862647   232A      3.894932   233A      3.899807
     234A      5.027694

    Final Occupation by Irrep:
              A
    DOCC [    44 ]

  @RHF Final Energy:  -532.87986515350735

   => Energetics <=

    Nuclear Repulsion Energy =            631.0467840813387284
    One-Electron Energy =               -1977.6920264302557371
    Two-Electron Energy =                 813.7653771954096555
    Total Energy =                       -532.8798651535073532

Computation Completed

Properties will be evaluated at   0.000000,   0.000000,   0.000000 [a0]

Properties computed using the SCF density matrix

  Nuclear Dipole Moment: [e a0]
     X:     4.6928      Y:     1.1527      Z:    -2.8030

  Electronic Dipole Moment: [e a0]
     X:    -4.2162      Y:    -2.0417      Z:     1.9582

  Dipole Moment: [e a0]
     X:     0.4766      Y:    -0.8890      Z:    -0.8448     Total:     1.3157

  Dipole Moment: [D]
     X:     1.2113      Y:    -2.2596      Z:    -2.1472     Total:     3.3442

*** tstop() called on ds3 at Sun Apr 26 17:59:56 2020
Module time:
	user time   =     142.19 seconds =       2.37 minutes
	system time =      60.99 seconds =       1.02 minutes
	total time  =        196 seconds =       3.27 minutes
Total time:
	user time   =     142.19 seconds =       2.37 minutes
	system time =      60.99 seconds =       1.02 minutes
	total time  =        196 seconds =       3.27 minutes
                                     G D M A

                                 by Anthony Stone

                           version 2.2.06, 22 June 2011

               Distributed Multipoles from Gaussian wavefunctions

Starting at 17:59:56 on 26 Apr 2020

Using SCF density matrix from file ./SSI/SSI-013PRO-034GLN-1-dimer.test.3100.fchk

                         Distributed Multipole Analysis

Standard DMA

Positions and radii in angstrom
Multipole moments in atomic units, ea_0^k for rank k

C          x =  0.594149  y =  0.620729  z =  0.130715 angstrom
           Maximum rank =  0   Radius =  0.650 angstrom
                   Q00  =   0.004916

C          x =  0.451149  y =  2.035729  z = -0.354285 angstrom
           Maximum rank =  0   Radius =  0.650 angstrom
                   Q00  =  -0.231027

C          x =  0.826149  y =  2.147729  z =  2.015715 angstrom
           Maximum rank =  0   Radius =  0.650 angstrom
                   Q00  =  -0.093296

C          x =  0.974149  y = -1.655271  z =  1.940715 angstrom
           Maximum rank =  0   Radius =  0.650 angstrom
                   Q00  =  -0.267746

C          x =  0.888149  y = -0.230271  z =  2.485715 angstrom
           Maximum rank =  0   Radius =  0.650 angstrom
                   Q00  =   0.754896

O          x =  0.981149  y = -0.014271  z =  3.703715 angstrom
           Maximum rank =  0   Radius =  0.650 angstrom
                   Q00  =  -0.792192

N          x =  0.715149  y =  0.750729  z =  1.600715 angstrom
           Maximum rank =  0   Radius =  0.650 angstrom
                   Q00  =  -0.463651

H          x = -0.278851  y =  0.030729  z = -0.146285 angstrom
           Maximum rank =  0   Radius =  0.325 angstrom
                   Q00  =   0.078382

H          x =  1.507149  y =  0.185729  z = -0.281285 angstrom
           Maximum rank =  0   Radius =  0.325 angstrom
                   Q00  =   0.056821

H          x = -0.598851  y =  2.319729  z = -0.377285 angstrom
           Maximum rank =  0   Radius =  0.325 angstrom
                   Q00  =   0.108160

H          x =  0.903149  y =  2.173729  z = -1.336285 angstrom
           Maximum rank =  0   Radius =  0.325 angstrom
                   Q00  =   0.093472

H          x =  1.651149  y =  2.274729  z =  2.719715 angstrom
           Maximum rank =  0   Radius =  0.325 angstrom
                   Q00  =   0.107409

H          x =  1.267149  y = -1.649271  z =  0.892715 angstrom
           Maximum rank =  0   Radius =  0.325 angstrom
                   Q00  =   0.080413

H          x =  0.975869  y =  2.618669  z =  0.416975 angstrom
           Maximum rank =  0   Radius =  0.325 angstrom
                   Q00  =   0.087775

H          x =  1.083819  y =  2.655079  z =  1.074325 angstrom
           Maximum rank =  0   Radius =  0.325 angstrom
                   Q00  =   0.107814

H          x = -0.088281  y =  2.549989  z =  2.476165 angstrom
           Maximum rank =  0   Radius =  0.325 angstrom
                   Q00  =   0.104390

H          x =  1.749169  y = -2.205721  z =  2.494195 angstrom
           Maximum rank =  0   Radius =  0.325 angstrom
                   Q00  =   0.133139

H          x = -0.019471  y = -2.117211  z =  2.037315 angstrom
           Maximum rank =  0   Radius =  0.325 angstrom
                   Q00  =   0.123197

C          x = -0.024851  y = -1.274271  z = -3.313285 angstrom
           Maximum rank =  0   Radius =  0.650 angstrom
                   Q00  =  -0.260160

C          x = -1.395851  y = -0.861271  z = -2.826285 angstrom
           Maximum rank =  0   Radius =  0.650 angstrom
                   Q00  =   0.809466

O          x = -2.022851  y = -0.016271  z = -3.445285 angstrom
           Maximum rank =  0   Radius =  0.650 angstrom
                   Q00  =  -0.782475

N          x = -1.867851  y = -1.475271  z = -1.748285 angstrom
           Maximum rank =  0   Radius =  0.650 angstrom
                   Q00  =  -0.534424

H          x = -0.170851  y = -2.062271  z = -4.051285 angstrom
           Maximum rank =  0   Radius =  0.325 angstrom
                   Q00  =   0.133439

H          x =  0.538149  y = -1.688271  z = -2.477285 angstrom
           Maximum rank =  0   Radius =  0.325 angstrom
                   Q00  =   0.069124

H          x = -2.777851  y = -1.226271  z = -1.395285 angstrom
           Maximum rank =  0   Radius =  0.325 angstrom
                   Q00  =   0.228547

H          x = -1.295851  y = -2.180271  z = -1.290285 angstrom
           Maximum rank =  0   Radius =  0.325 angstrom
                   Q00  =   0.209887

H          x =  0.561959  y = -0.451591  z = -3.747855 angstrom
           Maximum rank =  0   Radius =  0.325 angstrom
                   Q00  =   0.133725

Total multipoles referred to origin at
           x =   0.000000,  y =    0.000000,  z =    0.000000 angstrom
                   Q00  =  -0.000000

Finished at 17:59:56 on 26 Apr 2020

  DMA results are available in the Python driver through the
	  variable('DMA DISTRIBUTED MULTIPOLES')
  and
	  variable('DMA TOTAL MULTIPOLES')
  commands.

    Psi4 stopped on: Sunday, 26 April 2020 05:59PM
    Psi4 wall time for execution: 0:03:15.90

*** Psi4 exiting successfully. Buy a developer a beer!
