                               Psi4 1.3.2 release

  ==> Input File <==

--------------------------------------------------------------------------
import numpy as np
set {scf_type pk
basis cc-pvdz
d_convergence 10
gdma_switch   0
gdma_limit    0
gdma_origin   [ 0.0,  0.0,  0.0 ]
}
molecule test {
    units Angstrom
    0 1
    --
    0 1
    C                0.911823094887538     2.107194559696038     0.575871425313247
    C                1.777823094887537     3.275194559696037     0.035871425313247
    H                0.010823094887537     2.502194559696037     1.048871425313247
    H                0.629823094887538     1.446194559696037    -0.242128574686753
    H                1.473823094887537     1.532194559696038     1.312871425313247
    H                2.679823094887537     2.867194559696037    -0.421128574686753
    H                2.065603094887537     3.938164559696037     0.865121425313247
    H                1.281833094887537     3.845404559696037    -0.763418574686753
    C               -0.712176905112463    -1.314805440303962     0.017871425313247
    C               -1.671176905112463    -1.401805440303962    -1.161128574686753
    C               -0.357176905112463    -2.747805440303963     0.538871425313247
    H                0.194823094887537    -0.801805440303963    -0.299128574686753
    H               -1.174176905112463    -0.737805440303963     0.810871425313247
    H               -2.545176905112463    -1.980805440303962    -0.867128574686753
    H               -1.165176905112463    -1.910805440303962    -1.984128574686753
    H               -1.267176905112463    -3.307805440303963     0.757871425313247
    H                0.218823094887537    -3.298805440303963    -0.208128574686753
    H               -2.038566905112463    -0.443585440303963    -1.557158574686753
    H                0.240773094887537    -2.673245440303963     1.459141425313247

}
e, wfn = energy('scf', return_wfn=True)
gdma(wfn)
dmavals = variable('DMA DISTRIBUTED MULTIPOLES')
charges = np.array(dmavals)
print(charges)
np.save('SSI-166ILE-187ARG-1-dimer.npy', np.array(charges))--------------------------------------------------------------------------

*** tstart() called on ds3
*** at Mon Apr 27 08:03:39 2020

   => Loading Basis Set <=

    Name: CC-PVDZ
    Role: ORBITAL
    Keyword: BASIS
    atoms 1-2, 9-11  entry C          line   138 file /theoryfs2/ds/metcalf/miniconda2/envs/tf2gpu/share/psi4/basis/cc-pvdz.gbs
    atoms 3-8, 12-19 entry H          line    22 file /theoryfs2/ds/metcalf/miniconda2/envs/tf2gpu/share/psi4/basis/cc-pvdz.gbs

         ---------------------------------------------------------
                                   SCF
               by Justin Turney, Rob Parrish, Andy Simmonett
                          and Daniel G. A. Smith
                              RHF Reference
                        1 Threads,    500 MiB Core
         ---------------------------------------------------------

  ==> Geometry <==

    Molecular point group: c1
    Full point group: C1

    Geometry (in Angstrom), charge = 0, multiplicity = 1:

       Center              X                  Y                   Z               Mass
    ------------   -----------------  -----------------  -----------------  -----------------
         C            0.911823094888     2.107194559696     0.575871425313    12.000000000000
         C            1.777823094888     3.275194559696     0.035871425313    12.000000000000
         H            0.010823094888     2.502194559696     1.048871425313     1.007825032230
         H            0.629823094888     1.446194559696    -0.242128574687     1.007825032230
         H            1.473823094888     1.532194559696     1.312871425313     1.007825032230
         H            2.679823094888     2.867194559696    -0.421128574687     1.007825032230
         H            2.065603094888     3.938164559696     0.865121425313     1.007825032230
         H            1.281833094888     3.845404559696    -0.763418574687     1.007825032230
         C           -0.712176905112    -1.314805440304     0.017871425313    12.000000000000
         C           -1.671176905112    -1.401805440304    -1.161128574687    12.000000000000
         C           -0.357176905112    -2.747805440304     0.538871425313    12.000000000000
         H            0.194823094888    -0.801805440304    -0.299128574687     1.007825032230
         H           -1.174176905112    -0.737805440304     0.810871425313     1.007825032230
         H           -2.545176905112    -1.980805440304    -0.867128574687     1.007825032230
         H           -1.165176905112    -1.910805440304    -1.984128574687     1.007825032230
         H           -1.267176905112    -3.307805440304     0.757871425313     1.007825032230
         H            0.218823094888    -3.298805440304    -0.208128574687     1.007825032230
         H           -2.038566905112    -0.443585440304    -1.557158574687     1.007825032230
         H            0.240773094888    -2.673245440304     1.459141425313     1.007825032230

  Running in c1 symmetry.

  Rotational constants: A =      0.24398  B =      0.03329  C =      0.03055 [cm^-1]
  Rotational constants: A =   7314.19862  B =    998.05264  C =    915.97878 [MHz]
  Nuclear repulsion =  173.211375041491920

  Charge       = 0
  Multiplicity = 1
  Electrons    = 44
  Nalpha       = 22
  Nbeta        = 22

  ==> Algorithm <==

  SCF Algorithm Type is PK.
  DIIS enabled.
  MOM disabled.
  Fractional occupation disabled.
  Guess Type is SAD.
  Energy threshold   = 1.00e-06
  Density threshold  = 1.00e-10
  Integral threshold = 0.00e+00

  ==> Primary Basis <==

  Basis Set: CC-PVDZ
    Blend: CC-PVDZ
    Number of shells: 72
    Number of basis function: 140
    Number of Cartesian functions: 145
    Spherical Harmonics?: true
    Max angular momentum: 2

  ==> Pre-Iterations <==

   -------------------------------------------------------
    Irrep   Nso     Nmo     Nalpha   Nbeta   Ndocc  Nsocc
   -------------------------------------------------------
     A        140     140       0       0       0       0
   -------------------------------------------------------
    Total     140     140      22      22      22       0
   -------------------------------------------------------

  ==> Integral Setup <==

  Using integral reordering PK algorithm.
  Sizing the integral batches needed.
  Building batch lookup table.
   Calculation information:
      Number of atoms:                  19
      Number of AO shells:              72
      Number of primitives:            180
      Number of atomic orbitals:       145
      Number of basis functions:       140

      Integral cutoff                 1.00e-12
      Number of threads:                 1

	Batch   1 pq = [       0,    9405] index = [             0,44231715] size =     44231715
	Batch   2 pq = [    9405,    9870] index = [      44231715,48713385] size =      4481670
  Task number: 5
  Buffer size: 11059200
  Buffer per thread: 2
  We computed 2646144 shell quartets total.
  Whereas there are 3454506 unique shell quartets.

  ==> DiskJK: Disk-Based J/K Matrices <==

    J tasked:                  Yes
    K tasked:                  Yes
    wK tasked:                  No
    Memory [MiB]:              375
    Schwarz Cutoff:          1E-12

    OpenMP threads:              1

  Minimum eigenvalue in the overlap matrix is 5.6844602896E-03.
  Using Symmetric Orthogonalization.

  SCF Guess: Superposition of Atomic Densities via on-the-fly atomic UHF.

  ==> Iterations <==

                        Total Energy        Delta E     RMS |[F,P]|

   @RHF iter SAD:  -196.27189492918296   -1.96272e+02   0.00000e+00
   @RHF iter   1:  -197.31650252471132   -1.04461e+00   3.74502e-03 DIIS
   @RHF iter   2:  -197.47277861852788   -1.56276e-01   1.60787e-03 DIIS
   @RHF iter   3:  -197.50014902241205   -2.73704e-02   3.22574e-04 DIIS
   @RHF iter   4:  -197.50233325259762   -2.18423e-03   4.72237e-05 DIIS
   @RHF iter   5:  -197.50237083647531   -3.75839e-05   1.45636e-05 DIIS
   @RHF iter   6:  -197.50237402241646   -3.18594e-06   2.49181e-06 DIIS
   @RHF iter   7:  -197.50237413263204   -1.10216e-07   4.43783e-07 DIIS
   @RHF iter   8:  -197.50237413692605   -4.29401e-09   1.08714e-07 DIIS
   @RHF iter   9:  -197.50237413716965   -2.43602e-10   3.57620e-08 DIIS
   @RHF iter  10:  -197.50237413719753   -2.78817e-11   8.15236e-09 DIIS
   @RHF iter  11:  -197.50237413720052   -2.98428e-12   1.55459e-09 DIIS
   @RHF iter  12:  -197.50237413720018    3.41061e-13   3.01378e-10 DIIS
   @RHF iter  13:  -197.50237413720100   -8.24230e-13   7.55842e-11 DIIS
  Energy and wave function converged.

  ==> Post-Iterations <==

    Orbital Energies [Eh]
    ---------------------

    Doubly Occupied:

       1A    -11.221473     2A    -11.220806     3A    -11.219483
       4A    -11.218918     5A    -11.214932     6A     -1.049148
       7A     -1.012088     8A     -0.920710     9A     -0.839807
      10A     -0.800732    11A     -0.625676    12A     -0.598273
      13A     -0.592021    14A     -0.591050    15A     -0.540619
      16A     -0.530969    17A     -0.499108    18A     -0.492301
      19A     -0.483611    20A     -0.473424    21A     -0.471366
      22A     -0.463741

    Virtual:

      23A      0.173899    24A      0.193384    25A      0.218332
      26A      0.221059    27A      0.232832    28A      0.254294
      29A      0.257371    30A      0.261868    31A      0.277124
      32A      0.283292    33A      0.285764    34A      0.296807
      35A      0.309866    36A      0.339012    37A      0.370195
      38A      0.394908    39A      0.423554    40A      0.566445
      41A      0.581388    42A      0.590022    43A      0.597596
      44A      0.606909    45A      0.616985    46A      0.622208
      47A      0.674511    48A      0.695995    49A      0.740539
      50A      0.806927    51A      0.818710    52A      0.830968
      53A      0.865367    54A      0.877386    55A      0.891618
      56A      0.892755    57A      0.898103    58A      0.898340
      59A      0.900382    60A      0.902749    61A      0.905692
      62A      0.913493    63A      0.920696    64A      0.940977
      65A      0.942493    66A      0.965209    67A      0.984445
      68A      0.996900    69A      1.122602    70A      1.123876
      71A      1.131366    72A      1.144093    73A      1.200908
      74A      1.240295    75A      1.362083    76A      1.455701
      77A      1.468873    78A      1.472590    79A      1.489652
      80A      1.541806    81A      1.577604    82A      1.599188
      83A      1.681947    84A      1.684875    85A      1.694707
      86A      1.699827    87A      1.703258    88A      1.838175
      89A      1.860906    90A      1.871378    91A      1.879607
      92A      1.892559    93A      1.896836    94A      1.915868
      95A      1.925039    96A      1.934680    97A      1.942666
      98A      1.946433    99A      1.950038   100A      1.953950
     101A      1.963518   102A      1.969056   103A      1.982410
     104A      1.992196   105A      2.008265   106A      2.028369
     107A      2.046186   108A      2.081312   109A      2.106997
     110A      2.116175   111A      2.141707   112A      2.293278
     113A      2.299564   114A      2.313777   115A      2.321920
     116A      2.324557   117A      2.340271   118A      2.445537
     119A      2.465886   120A      2.494776   121A      2.532009
     122A      2.544499   123A      2.561913   124A      2.577572
     125A      2.605413   126A      2.626609   127A      2.754148
     128A      2.756308   129A      2.776606   130A      2.781633
     131A      2.789165   132A      2.812653   133A      2.843275
     134A      2.866281   135A      2.902314   136A      2.943405
     137A      2.953467   138A      2.969361   139A      2.977082
     140A      3.065685

    Final Occupation by Irrep:
              A
    DOCC [    22 ]

  @RHF Final Energy:  -197.50237413720100

   => Energetics <=

    Nuclear Repulsion Energy =            173.2113750414919195
    One-Electron Energy =                -607.2669890557463077
    Two-Electron Energy =                 236.5532398770533860
    Total Energy =                       -197.5023741372010022

Computation Completed

Properties will be evaluated at   0.000000,   0.000000,   0.000000 [a0]

Properties computed using the SCF density matrix

  Nuclear Dipole Moment: [e a0]
     X:     0.5680      Y:     0.9156      Z:    -0.0821

  Electronic Dipole Moment: [e a0]
     X:    -0.5572      Y:    -0.9068      Z:     0.0916

  Dipole Moment: [e a0]
     X:     0.0107      Y:     0.0088      Z:     0.0095     Total:     0.0168

  Dipole Moment: [D]
     X:     0.0273      Y:     0.0223      Z:     0.0242     Total:     0.0428

*** tstop() called on ds3 at Mon Apr 27 08:03:59 2020
Module time:
	user time   =      13.87 seconds =       0.23 minutes
	system time =       6.11 seconds =       0.10 minutes
	total time  =         20 seconds =       0.33 minutes
Total time:
	user time   =      13.87 seconds =       0.23 minutes
	system time =       6.11 seconds =       0.10 minutes
	total time  =         20 seconds =       0.33 minutes
                                     G D M A

                                 by Anthony Stone

                           version 2.2.06, 22 June 2011

               Distributed Multipoles from Gaussian wavefunctions

Starting at 8:3:59 on 27 Apr 2020

Using SCF density matrix from file ./SSI/SSI-166ILE-187ARG-1-dimer.test.533.fchk

                         Distributed Multipole Analysis

Standard DMA

Positions and radii in angstrom
Multipole moments in atomic units, ea_0^k for rank k

C          x =  0.911823  y =  2.107195  z =  0.575871 angstrom
           Maximum rank =  0   Radius =  0.650 angstrom
                   Q00  =  -0.235789

C          x =  1.777823  y =  3.275195  z =  0.035871 angstrom
           Maximum rank =  0   Radius =  0.650 angstrom
                   Q00  =  -0.252162

H          x =  0.010823  y =  2.502195  z =  1.048871 angstrom
           Maximum rank =  0   Radius =  0.325 angstrom
                   Q00  =   0.081041

H          x =  0.629823  y =  1.446195  z = -0.242129 angstrom
           Maximum rank =  0   Radius =  0.325 angstrom
                   Q00  =   0.082699

H          x =  1.473823  y =  1.532195  z =  1.312871 angstrom
           Maximum rank =  0   Radius =  0.325 angstrom
                   Q00  =   0.081887

H          x =  2.679823  y =  2.867195  z = -0.421129 angstrom
           Maximum rank =  0   Radius =  0.325 angstrom
                   Q00  =   0.078346

H          x =  2.065603  y =  3.938165  z =  0.865121 angstrom
           Maximum rank =  0   Radius =  0.325 angstrom
                   Q00  =   0.081124

H          x =  1.281833  y =  3.845405  z = -0.763419 angstrom
           Maximum rank =  0   Radius =  0.325 angstrom
                   Q00  =   0.082274

C          x = -0.712177  y = -1.314805  z =  0.017871 angstrom
           Maximum rank =  0   Radius =  0.650 angstrom
                   Q00  =  -0.078238

C          x = -1.671177  y = -1.401805  z = -1.161129 angstrom
           Maximum rank =  0   Radius =  0.650 angstrom
                   Q00  =  -0.245419

C          x = -0.357177  y = -2.747805  z =  0.538871 angstrom
           Maximum rank =  0   Radius =  0.650 angstrom
                   Q00  =  -0.258886

H          x =  0.194823  y = -0.801805  z = -0.299129 angstrom
           Maximum rank =  0   Radius =  0.325 angstrom
                   Q00  =   0.051910

H          x = -1.174177  y = -0.737805  z =  0.810871 angstrom
           Maximum rank =  0   Radius =  0.325 angstrom
                   Q00  =   0.053827

H          x = -2.545177  y = -1.980805  z = -0.867129 angstrom
           Maximum rank =  0   Radius =  0.325 angstrom
                   Q00  =   0.074513

H          x = -1.165177  y = -1.910805  z = -1.984129 angstrom
           Maximum rank =  0   Radius =  0.325 angstrom
                   Q00  =   0.072400

H          x = -1.267177  y = -3.307805  z =  0.757871 angstrom
           Maximum rank =  0   Radius =  0.325 angstrom
                   Q00  =   0.080441

H          x =  0.218823  y = -3.298805  z = -0.208129 angstrom
           Maximum rank =  0   Radius =  0.325 angstrom
                   Q00  =   0.081373

H          x = -2.038567  y = -0.443585  z = -1.557159 angstrom
           Maximum rank =  0   Radius =  0.325 angstrom
                   Q00  =   0.083214

H          x =  0.240773  y = -2.673245  z =  1.459141 angstrom
           Maximum rank =  0   Radius =  0.325 angstrom
                   Q00  =   0.085446

Total multipoles referred to origin at
           x =   0.000000,  y =    0.000000,  z =    0.000000 angstrom
                   Q00  =  -0.000000

Finished at 8:3:59 on 27 Apr 2020

  DMA results are available in the Python driver through the
	  variable('DMA DISTRIBUTED MULTIPOLES')
  and
	  variable('DMA TOTAL MULTIPOLES')
  commands.

    Psi4 stopped on: Monday, 27 April 2020 08:03AM
    Psi4 wall time for execution: 0:00:19.97

*** Psi4 exiting successfully. Buy a developer a beer!
