                               Psi4 1.3.2 release

  ==> Input File <==

--------------------------------------------------------------------------
import numpy as np
set {scf_type pk
basis cc-pvdz
d_convergence 10
gdma_switch   0
gdma_limit    0
gdma_origin   [ 0.0,  0.0,  0.0 ]
}
molecule test {
    units Angstrom
    0 1
    --
    0 1
    C                1.578099071433246    -1.244085575601002    -1.712945012562642
    C               -0.580900928566754    -0.068085575601002    -1.259945012562642
    C                0.366099071433246    -1.022085575601002    -0.863945012562642
    C               -1.705900928566754     0.185914424398998    -0.493945012562642
    C               -1.933900928566754    -0.544085575601002     0.663054987437358
    C                0.137099071433246    -1.767085575601002     0.281054987437358
    C               -1.012900928566754    -1.536085575601002     1.056054987437358
    H               -0.419900928566754     0.497914424398998    -2.166945012562642
    H               -2.418900928566754     0.935914424398998    -0.803945012562642
    H                2.386099071433247    -1.611085575601002    -1.081945012562642
    H                1.893099071433246    -0.291085575601002    -2.138945012562642
    H               -2.815900928566753    -0.357085575601002     1.260054987437358
    H                0.847099071433246    -2.523085575601002     0.586054987437358
    H               -1.186900928566754    -2.112085575601002     1.955054987437358
    H                1.405669071433246    -1.959895575601002    -2.530185012562642
    C                1.358099071433246     1.890914424398998     1.183054987437358
    C                1.180099071433246     3.394914424398998     1.010054987437358
    H                0.572099071433246     1.480914424398998     1.814054987437358
    H                1.319099071433246     1.411914424398998     0.207054987437358
    H                2.330099071433247     1.680914424398998     1.631054987437358
    H                1.883099071433246     3.768914424398998     0.287054987437358
    H                1.356489071433246     3.917984424398998     1.961514987437358
    H                0.160835071433246     3.610964424398998     0.657314987437358

}
e, wfn = energy('scf', return_wfn=True)
gdma(wfn)
dmavals = variable('DMA DISTRIBUTED MULTIPOLES')
charges = np.array(dmavals)
print(charges)
np.save('SSI-022PHE-040ALA-1-dimer.npy', np.array(charges))--------------------------------------------------------------------------

*** tstart() called on ds3
*** at Tue Apr 28 10:02:49 2020

   => Loading Basis Set <=

    Name: CC-PVDZ
    Role: ORBITAL
    Keyword: BASIS
    atoms 1-7, 16-17  entry C          line   138 file /theoryfs2/ds/metcalf/miniconda2/envs/tf2gpu/share/psi4/basis/cc-pvdz.gbs
    atoms 8-15, 18-23 entry H          line    22 file /theoryfs2/ds/metcalf/miniconda2/envs/tf2gpu/share/psi4/basis/cc-pvdz.gbs

         ---------------------------------------------------------
                                   SCF
               by Justin Turney, Rob Parrish, Andy Simmonett
                          and Daniel G. A. Smith
                              RHF Reference
                        1 Threads,    500 MiB Core
         ---------------------------------------------------------

  ==> Geometry <==

    Molecular point group: c1
    Full point group: C1

    Geometry (in Angstrom), charge = 0, multiplicity = 1:

       Center              X                  Y                   Z               Mass
    ------------   -----------------  -----------------  -----------------  -----------------
         C            1.578099071433    -1.244085575601    -1.712945012563    12.000000000000
         C           -0.580900928567    -0.068085575601    -1.259945012563    12.000000000000
         C            0.366099071433    -1.022085575601    -0.863945012563    12.000000000000
         C           -1.705900928567     0.185914424399    -0.493945012563    12.000000000000
         C           -1.933900928567    -0.544085575601     0.663054987437    12.000000000000
         C            0.137099071433    -1.767085575601     0.281054987437    12.000000000000
         C           -1.012900928567    -1.536085575601     1.056054987437    12.000000000000
         H           -0.419900928567     0.497914424399    -2.166945012563     1.007825032230
         H           -2.418900928567     0.935914424399    -0.803945012563     1.007825032230
         H            2.386099071433    -1.611085575601    -1.081945012563     1.007825032230
         H            1.893099071433    -0.291085575601    -2.138945012563     1.007825032230
         H           -2.815900928567    -0.357085575601     1.260054987437     1.007825032230
         H            0.847099071433    -2.523085575601     0.586054987437     1.007825032230
         H           -1.186900928567    -2.112085575601     1.955054987437     1.007825032230
         H            1.405669071433    -1.959895575601    -2.530185012563     1.007825032230
         C            1.358099071433     1.890914424399     1.183054987437    12.000000000000
         C            1.180099071433     3.394914424399     1.010054987437    12.000000000000
         H            0.572099071433     1.480914424399     1.814054987437     1.007825032230
         H            1.319099071433     1.411914424399     0.207054987437     1.007825032230
         H            2.330099071433     1.680914424399     1.631054987437     1.007825032230
         H            1.883099071433     3.768914424399     0.287054987437     1.007825032230
         H            1.356489071433     3.917984424399     1.961514987437     1.007825032230
         H            0.160835071433     3.610964424399     0.657314987437     1.007825032230

  Running in c1 symmetry.

  Rotational constants: A =      0.05766  B =      0.03330  C =      0.02741 [cm^-1]
  Rotational constants: A =   1728.54680  B =    998.33332  C =    821.73371 [MHz]
  Nuclear repulsion =  418.385788316245169

  Charge       = 0
  Multiplicity = 1
  Electrons    = 68
  Nalpha       = 34
  Nbeta        = 34

  ==> Algorithm <==

  SCF Algorithm Type is PK.
  DIIS enabled.
  MOM disabled.
  Fractional occupation disabled.
  Guess Type is SAD.
  Energy threshold   = 1.00e-06
  Density threshold  = 1.00e-10
  Integral threshold = 0.00e+00

  ==> Primary Basis <==

  Basis Set: CC-PVDZ
    Blend: CC-PVDZ
    Number of shells: 96
    Number of basis function: 196
    Number of Cartesian functions: 205
    Spherical Harmonics?: true
    Max angular momentum: 2

  ==> Pre-Iterations <==

   -------------------------------------------------------
    Irrep   Nso     Nmo     Nalpha   Nbeta   Ndocc  Nsocc
   -------------------------------------------------------
     A        196     196       0       0       0       0
   -------------------------------------------------------
    Total     196     196      34      34      34       0
   -------------------------------------------------------

  ==> Integral Setup <==

  Using integral reordering PK algorithm.
  Sizing the integral batches needed.
  Building batch lookup table.
   Calculation information:
      Number of atoms:                  23
      Number of AO shells:              96
      Number of primitives:            268
      Number of atomic orbitals:       205
      Number of basis functions:       196

      Integral cutoff                 1.00e-12
      Number of threads:                 1

	Batch   1 pq = [       0,    9405] index = [             0,44231715] size =     44231715
	Batch   2 pq = [    9405,   13301] index = [      44231715,88464951] size =     44233236
	Batch   3 pq = [   13301,   16290] index = [      88464951,132690195] size =     44225244
	Batch   4 pq = [   16290,   18810] index = [     132690195,176917455] size =     44227260
	Batch   5 pq = [   18810,   19306] index = [     176917455,186370471] size =      9453016
  Task number: 17
  Buffer size: 11059200
  Buffer per thread: 2
  We computed 10575593 shell quartets total.
  Whereas there are 10841496 unique shell quartets.

  ==> DiskJK: Disk-Based J/K Matrices <==

    J tasked:                  Yes
    K tasked:                  Yes
    wK tasked:                  No
    Memory [MiB]:              375
    Schwarz Cutoff:          1E-12

    OpenMP threads:              1

  Minimum eigenvalue in the overlap matrix is 3.1735452644E-04.
  Using Symmetric Orthogonalization.

  SCF Guess: Superposition of Atomic Densities via on-the-fly atomic UHF.

  ==> Iterations <==

                        Total Energy        Delta E     RMS |[F,P]|

   @RHF iter SAD:  -347.87450913687564   -3.47875e+02   0.00000e+00
   @RHF iter   1:  -348.76565366390457   -8.91145e-01   2.90075e-03 DIIS
   @RHF iter   2:  -348.95853733393056   -1.92884e-01   1.20429e-03 DIIS
   @RHF iter   3:  -348.98884462907398   -3.03073e-02   2.59929e-04 DIIS
   @RHF iter   4:  -348.99131504345684   -2.47041e-03   6.01192e-05 DIIS
   @RHF iter   5:  -348.99140502956902   -8.99861e-05   2.00135e-05 DIIS
   @RHF iter   6:  -348.99141500284588   -9.97328e-06   5.09651e-06 DIIS
   @RHF iter   7:  -348.99141578182025   -7.78974e-07   1.25607e-06 DIIS
   @RHF iter   8:  -348.99141585288231   -7.10621e-08   4.01251e-07 DIIS
   @RHF iter   9:  -348.99141586834708   -1.54648e-08   2.06628e-07 DIIS
   @RHF iter  10:  -348.99141587276318   -4.41611e-09   9.61659e-08 DIIS
   @RHF iter  11:  -348.99141587406416   -1.30098e-09   3.54177e-08 DIIS
   @RHF iter  12:  -348.99141587418671   -1.22554e-10   1.42728e-08 DIIS
   @RHF iter  13:  -348.99141587419774   -1.10276e-11   3.96051e-09 DIIS
   @RHF iter  14:  -348.99141587419990   -2.16005e-12   1.17602e-09 DIIS
   @RHF iter  15:  -348.99141587420053   -6.25278e-13   4.63911e-10 DIIS
   @RHF iter  16:  -348.99141587420075   -2.27374e-13   1.95955e-10 DIIS
   @RHF iter  17:  -348.99141587419922    1.53477e-12   8.01512e-11 DIIS
  Energy and wave function converged.

  ==> Post-Iterations <==

    Orbital Energies [Eh]
    ---------------------

    Doubly Occupied:

       1A    -11.240047     2A    -11.239815     3A    -11.234964
       4A    -11.233413     5A    -11.232242     6A    -11.229825
       7A    -11.228994     8A    -11.209653     9A    -11.203676
      10A     -1.152182    11A     -1.045617    12A     -1.011315
      13A     -1.009869    14A     -0.931327    15A     -0.828385
      16A     -0.825346    17A     -0.795227    18A     -0.690468
      19A     -0.631696    20A     -0.631244    21A     -0.591102
      22A     -0.590185    23A     -0.583189    24A     -0.576635
      25A     -0.562672    26A     -0.535809    27A     -0.496568
      28A     -0.486441    29A     -0.484634    30A     -0.481793
      31A     -0.477814    32A     -0.470937    33A     -0.333132
      34A     -0.320179

    Virtual:

      35A      0.132979    36A      0.140011    37A      0.175166
      38A      0.198311    39A      0.201381    40A      0.218267
      41A      0.241058    42A      0.249319    43A      0.253531
      44A      0.259140    45A      0.267501    46A      0.271603
      47A      0.285548    48A      0.288191    49A      0.301389
      50A      0.326619    51A      0.365374    52A      0.377314
      53A      0.404908    54A      0.449420    55A      0.459839
      56A      0.481547    57A      0.490618    58A      0.560435
      59A      0.577427    60A      0.590422    61A      0.600856
      62A      0.604589    63A      0.645244    64A      0.664715
      65A      0.678066    66A      0.686137    67A      0.693781
      68A      0.709875    69A      0.737223    70A      0.743000
      71A      0.744190    72A      0.758278    73A      0.761619
      74A      0.776627    75A      0.782483    76A      0.827299
      77A      0.842494    78A      0.858162    79A      0.862269
      80A      0.875745    81A      0.886183    82A      0.892056
      83A      0.892906    84A      0.900098    85A      0.903657
      86A      0.910922    87A      0.918967    88A      0.934284
      89A      0.939352    90A      0.942468    91A      0.954777
      92A      0.973781    93A      0.989967    94A      1.004955
      95A      1.039086    96A      1.079661    97A      1.115876
      98A      1.135073    99A      1.137288   100A      1.147313
     101A      1.156896   102A      1.167135   103A      1.196631
     104A      1.234882   105A      1.241771   106A      1.249252
     107A      1.258252   108A      1.284697   109A      1.299223
     110A      1.304512   111A      1.320831   112A      1.328638
     113A      1.410787   114A      1.487912   115A      1.494200
     116A      1.508943   117A      1.514835   118A      1.565087
     119A      1.592725   120A      1.603952   121A      1.674745
     122A      1.693306   123A      1.699072   124A      1.707085
     125A      1.733074   126A      1.750315   127A      1.757937
     128A      1.790473   129A      1.808715   130A      1.854948
     131A      1.873322   132A      1.880251   133A      1.881766
     134A      1.901402   135A      1.916771   136A      1.917922
     137A      1.924238   138A      1.938318   139A      1.943018
     140A      1.946602   141A      1.956867   142A      1.962452
     143A      1.964038   144A      1.969583   145A      1.982342
     146A      1.986374   147A      1.999565   148A      2.010645
     149A      2.045143   150A      2.066934   151A      2.079648
     152A      2.109800   153A      2.123002   154A      2.124510
     155A      2.151417   156A      2.158416   157A      2.160613
     158A      2.171849   159A      2.180006   160A      2.259816
     161A      2.277844   162A      2.292476   163A      2.299565
     164A      2.309997   165A      2.314717   166A      2.322337
     167A      2.334006   168A      2.458751   169A      2.471816
     170A      2.477132   171A      2.480564   172A      2.492724
     173A      2.545630   174A      2.586394   175A      2.590514
     176A      2.624216   177A      2.743061   178A      2.753017
     179A      2.772498   180A      2.779357   181A      2.782028
     182A      2.805106   183A      2.818590   184A      2.849703
     185A      2.863361   186A      2.872706   187A      2.887792
     188A      2.971894   189A      2.974508   190A      2.999442
     191A      3.017860   192A      3.024197   193A      3.150119
     194A      3.194527   195A      3.292693   196A      3.958083

    Final Occupation by Irrep:
              A
    DOCC [    34 ]

  @RHF Final Energy:  -348.99141587419922

   => Energetics <=

    Nuclear Repulsion Energy =            418.3857883162451685
    One-Electron Energy =               -1299.5616198838370110
    Two-Electron Energy =                 532.1844156933925660
    Total Energy =                       -348.9914158741992196

Computation Completed

Properties will be evaluated at   0.000000,   0.000000,   0.000000 [a0]

Properties computed using the SCF density matrix

  Nuclear Dipole Moment: [e a0]
     X:     6.8549      Y:     7.9227      Z:     1.5349

  Electronic Dipole Moment: [e a0]
     X:    -6.7985      Y:    -8.0361      Z:    -1.6367

  Dipole Moment: [e a0]
     X:     0.0564      Y:    -0.1134      Z:    -0.1019     Total:     0.1625

  Dipole Moment: [D]
     X:     0.1433      Y:    -0.2882      Z:    -0.2589     Total:     0.4131

*** tstop() called on ds3 at Tue Apr 28 10:04:34 2020
Module time:
	user time   =      77.70 seconds =       1.30 minutes
	system time =      30.74 seconds =       0.51 minutes
	total time  =        105 seconds =       1.75 minutes
Total time:
	user time   =      77.70 seconds =       1.30 minutes
	system time =      30.74 seconds =       0.51 minutes
	total time  =        105 seconds =       1.75 minutes
                                     G D M A

                                 by Anthony Stone

                           version 2.2.06, 22 June 2011

               Distributed Multipoles from Gaussian wavefunctions

Starting at 10:4:34 on 28 Apr 2020

Using SCF density matrix from file ./SSI/SSI-022PHE-040ALA-1-dimer.test.8794.fchk

                         Distributed Multipole Analysis

Standard DMA

Positions and radii in angstrom
Multipole moments in atomic units, ea_0^k for rank k

C          x =  1.578099  y = -1.244086  z = -1.712945 angstrom
           Maximum rank =  0   Radius =  0.650 angstrom
                   Q00  =  -0.202986

C          x = -0.580901  y = -0.068086  z = -1.259945 angstrom
           Maximum rank =  0   Radius =  0.650 angstrom
                   Q00  =   0.013445

C          x =  0.366099  y = -1.022086  z = -0.863945 angstrom
           Maximum rank =  0   Radius =  0.650 angstrom
                   Q00  =  -0.100026

C          x = -1.705901  y =  0.185914  z = -0.493945 angstrom
           Maximum rank =  0   Radius =  0.650 angstrom
                   Q00  =  -0.077536

C          x = -1.933901  y = -0.544086  z =  0.663055 angstrom
           Maximum rank =  0   Radius =  0.650 angstrom
                   Q00  =  -0.092568

C          x =  0.137099  y = -1.767086  z =  0.281055 angstrom
           Maximum rank =  0   Radius =  0.650 angstrom
                   Q00  =  -0.086131

C          x = -1.012901  y = -1.536086  z =  1.056055 angstrom
           Maximum rank =  0   Radius =  0.650 angstrom
                   Q00  =  -0.058835

H          x = -0.419901  y =  0.497914  z = -2.166945 angstrom
           Maximum rank =  0   Radius =  0.325 angstrom
                   Q00  =   0.053924

H          x = -2.418901  y =  0.935914  z = -0.803945 angstrom
           Maximum rank =  0   Radius =  0.325 angstrom
                   Q00  =   0.063936

H          x =  2.386099  y = -1.611086  z = -1.081945 angstrom
           Maximum rank =  0   Radius =  0.325 angstrom
                   Q00  =   0.098344

H          x =  1.893099  y = -0.291086  z = -2.138945 angstrom
           Maximum rank =  0   Radius =  0.325 angstrom
                   Q00  =   0.096571

H          x = -2.815901  y = -0.357086  z =  1.260055 angstrom
           Maximum rank =  0   Radius =  0.325 angstrom
                   Q00  =   0.063319

H          x =  0.847099  y = -2.523086  z =  0.586055 angstrom
           Maximum rank =  0   Radius =  0.325 angstrom
                   Q00  =   0.058993

H          x = -1.186901  y = -2.112086  z =  1.955055 angstrom
           Maximum rank =  0   Radius =  0.325 angstrom
                   Q00  =   0.068876

H          x =  1.405669  y = -1.959896  z = -2.530185 angstrom
           Maximum rank =  0   Radius =  0.325 angstrom
                   Q00  =   0.105513

C          x =  1.358099  y =  1.890914  z =  1.183055 angstrom
           Maximum rank =  0   Radius =  0.650 angstrom
                   Q00  =  -0.225395

C          x =  1.180099  y =  3.394914  z =  1.010055 angstrom
           Maximum rank =  0   Radius =  0.650 angstrom
                   Q00  =  -0.238473

H          x =  0.572099  y =  1.480914  z =  1.814055 angstrom
           Maximum rank =  0   Radius =  0.325 angstrom
                   Q00  =   0.085364

H          x =  1.319099  y =  1.411914  z =  0.207055 angstrom
           Maximum rank =  0   Radius =  0.325 angstrom
                   Q00  =   0.081003

H          x =  2.330099  y =  1.680914  z =  1.631055 angstrom
           Maximum rank =  0   Radius =  0.325 angstrom
                   Q00  =   0.068595

H          x =  1.883099  y =  3.768914  z =  0.287055 angstrom
           Maximum rank =  0   Radius =  0.325 angstrom
                   Q00  =   0.076466

H          x =  1.356489  y =  3.917984  z =  1.961515 angstrom
           Maximum rank =  0   Radius =  0.325 angstrom
                   Q00  =   0.073823

H          x =  0.160835  y =  3.610964  z =  0.657315 angstrom
           Maximum rank =  0   Radius =  0.325 angstrom
                   Q00  =   0.073780

Total multipoles referred to origin at
           x =   0.000000,  y =    0.000000,  z =    0.000000 angstrom
                   Q00  =  -0.000000

Finished at 10:4:34 on 28 Apr 2020

  DMA results are available in the Python driver through the
	  variable('DMA DISTRIBUTED MULTIPOLES')
  and
	  variable('DMA TOTAL MULTIPOLES')
  commands.

    Psi4 stopped on: Tuesday, 28 April 2020 10:04AM
    Psi4 wall time for execution: 0:01:44.70

*** Psi4 exiting successfully. Buy a developer a beer!
