                               Psi4 1.3.2 release

  ==> Input File <==

--------------------------------------------------------------------------
import numpy as np
set {scf_type pk
basis cc-pvdz
d_convergence 10
gdma_switch   0
gdma_limit    0
gdma_origin   [ 0.0,  0.0,  0.0 ]
}
molecule test {
    units Angstrom
    0 1
    --
    0 1
    C                1.637857311071338     3.277522408480641     0.367391504147231
    C                1.133857311071338    -0.504477591519359     0.803391504147231
    C                1.155857311071338     0.876522408480641     1.058391504147231
    C                1.513857311071338    -0.979477591519359    -0.420608495852769
    C                1.565857311071338     1.785522408480641     0.085391504147231
    C                1.919857311071338    -0.108477591519359    -1.398608495852769
    C                1.947857311071338     1.278522408480641    -1.153608495852769
    O                1.478857311071338    -2.312477591519359    -0.631608495852769
    H                0.819857311071338    -1.187477591519359     1.580391504147231
    H                0.855857311071338     1.236522408480641     2.034391504147231
    H                1.202857311071338    -2.792477591519359     0.153391504147231
    H                2.211857311071338    -0.481477591519359    -2.364608495852769
    H                2.580857311071338     3.656522408480641    -0.031608495852769
    H                1.673857311071338     3.415522408480641     1.449391504147231
    H                2.285857311071338     1.949522408480641    -1.932608495852769
    H                0.807856311071338     3.880702408480641    -0.029188495852769
    C               -2.529142688928662    -0.519477591519359     0.156391504147231
    C               -3.787142688928662     0.319522408480641    -0.128608495852769
    C               -2.378142688928662    -0.681477591519359     1.670391504147231
    C               -2.733142688928663    -1.864477591519359    -0.526608495852769
    H               -1.645142688928662    -0.037477591519359    -0.260608495852769
    H               -4.638142688928662    -0.073477591519359     0.430391504147231
    H               -4.024142688928662     0.189522408480641    -1.186608495852769
    H               -3.337142688928662    -0.910477591519359     2.130391504147231
    H               -1.681142688928662    -1.490477591519359     1.884391504147231
    H               -1.966142688928662     0.225522408480641     2.107391504147231
    H               -2.793142688928663    -1.731477591519359    -1.607608495852769
    H               -1.887142688928662    -2.518477591519359    -0.308608495852769
    H               -3.653142688928662    -2.322477591519359    -0.172608495852769
    H               -3.704760688928662     1.403988408480641     0.036156504147231

}
e, wfn = energy('scf', return_wfn=True)
gdma(wfn)
dmavals = variable('DMA DISTRIBUTED MULTIPOLES')
charges = np.array(dmavals)
print(charges)
np.save('SSI-061TYR-066LEU-1-dimer.npy', np.array(charges))--------------------------------------------------------------------------

*** tstart() called on ds3
*** at Tue Apr 28 17:03:19 2020

   => Loading Basis Set <=

    Name: CC-PVDZ
    Role: ORBITAL
    Keyword: BASIS
    atoms 1-7, 17-20  entry C          line   138 file /theoryfs2/ds/metcalf/miniconda2/envs/tf2gpu/share/psi4/basis/cc-pvdz.gbs
    atoms 8           entry O          line   198 file /theoryfs2/ds/metcalf/miniconda2/envs/tf2gpu/share/psi4/basis/cc-pvdz.gbs
    atoms 9-16, 21-30 entry H          line    22 file /theoryfs2/ds/metcalf/miniconda2/envs/tf2gpu/share/psi4/basis/cc-pvdz.gbs

         ---------------------------------------------------------
                                   SCF
               by Justin Turney, Rob Parrish, Andy Simmonett
                          and Daniel G. A. Smith
                              RHF Reference
                        1 Threads,    500 MiB Core
         ---------------------------------------------------------

  ==> Geometry <==

    Molecular point group: c1
    Full point group: C1

    Geometry (in Angstrom), charge = 0, multiplicity = 1:

       Center              X                  Y                   Z               Mass
    ------------   -----------------  -----------------  -----------------  -----------------
         C            1.637857311071     3.277522408481     0.367391504147    12.000000000000
         C            1.133857311071    -0.504477591519     0.803391504147    12.000000000000
         C            1.155857311071     0.876522408481     1.058391504147    12.000000000000
         C            1.513857311071    -0.979477591519    -0.420608495853    12.000000000000
         C            1.565857311071     1.785522408481     0.085391504147    12.000000000000
         C            1.919857311071    -0.108477591519    -1.398608495853    12.000000000000
         C            1.947857311071     1.278522408481    -1.153608495853    12.000000000000
         O            1.478857311071    -2.312477591519    -0.631608495853    15.994914619570
         H            0.819857311071    -1.187477591519     1.580391504147     1.007825032230
         H            0.855857311071     1.236522408481     2.034391504147     1.007825032230
         H            1.202857311071    -2.792477591519     0.153391504147     1.007825032230
         H            2.211857311071    -0.481477591519    -2.364608495853     1.007825032230
         H            2.580857311071     3.656522408481    -0.031608495853     1.007825032230
         H            1.673857311071     3.415522408481     1.449391504147     1.007825032230
         H            2.285857311071     1.949522408481    -1.932608495853     1.007825032230
         H            0.807856311071     3.880702408481    -0.029188495853     1.007825032230
         C           -2.529142688929    -0.519477591519     0.156391504147    12.000000000000
         C           -3.787142688929     0.319522408481    -0.128608495853    12.000000000000
         C           -2.378142688929    -0.681477591519     1.670391504147    12.000000000000
         C           -2.733142688929    -1.864477591519    -0.526608495853    12.000000000000
         H           -1.645142688929    -0.037477591519    -0.260608495853     1.007825032230
         H           -4.638142688929    -0.073477591519     0.430391504147     1.007825032230
         H           -4.024142688929     0.189522408481    -1.186608495853     1.007825032230
         H           -3.337142688929    -0.910477591519     2.130391504147     1.007825032230
         H           -1.681142688929    -1.490477591519     1.884391504147     1.007825032230
         H           -1.966142688929     0.225522408481     2.107391504147     1.007825032230
         H           -2.793142688929    -1.731477591519    -1.607608495853     1.007825032230
         H           -1.887142688929    -2.518477591519    -0.308608495853     1.007825032230
         H           -3.653142688929    -2.322477591519    -0.172608495853     1.007825032230
         H           -3.704760688929     1.403988408481     0.036156504147     1.007825032230

  Running in c1 symmetry.

  Rotational constants: A =      0.03463  B =      0.01735  C =      0.01382 [cm^-1]
  Rotational constants: A =   1038.23186  B =    520.09646  C =    414.34581 [MHz]
  Nuclear repulsion =  687.871016658780945

  Charge       = 0
  Multiplicity = 1
  Electrons    = 92
  Nalpha       = 46
  Nbeta        = 46

  ==> Algorithm <==

  SCF Algorithm Type is PK.
  DIIS enabled.
  MOM disabled.
  Fractional occupation disabled.
  Guess Type is SAD.
  Energy threshold   = 1.00e-06
  Density threshold  = 1.00e-10
  Integral threshold = 0.00e+00

  ==> Primary Basis <==

  Basis Set: CC-PVDZ
    Blend: CC-PVDZ
    Number of shells: 126
    Number of basis function: 258
    Number of Cartesian functions: 270
    Spherical Harmonics?: true
    Max angular momentum: 2

  ==> Pre-Iterations <==

   -------------------------------------------------------
    Irrep   Nso     Nmo     Nalpha   Nbeta   Ndocc  Nsocc
   -------------------------------------------------------
     A        258     258       0       0       0       0
   -------------------------------------------------------
    Total     258     258      46      46      46       0
   -------------------------------------------------------

  ==> Integral Setup <==

  Using integral reordering PK algorithm.
  Sizing the integral batches needed.
  Building batch lookup table.
   Calculation information:
      Number of atoms:                  30
      Number of AO shells:             126
      Number of primitives:            354
      Number of atomic orbitals:       270
      Number of basis functions:       258

      Integral cutoff                 1.00e-12
      Number of threads:                 1

	Batch   1 pq = [       0,    9405] index = [             0,44231715] size =     44231715
	Batch   2 pq = [    9405,   13301] index = [      44231715,88464951] size =     44233236
	Batch   3 pq = [   13301,   16290] index = [      88464951,132690195] size =     44225244
	Batch   4 pq = [   16290,   18810] index = [     132690195,176917455] size =     44227260
	Batch   5 pq = [   18810,   21030] index = [     176917455,221140965] size =     44223510
	Batch   6 pq = [   21030,   23037] index = [     221140965,265363203] size =     44222238
	Batch   7 pq = [   23037,   24883] index = [     265363203,309594286] size =     44231083
	Batch   8 pq = [   24883,   26601] index = [     309594286,353819901] size =     44225615
	Batch   9 pq = [   26601,   28214] index = [     353819901,398029005] size =     44209104
	Batch  10 pq = [   28214,   29740] index = [     398029005,442248670] size =     44219665
	Batch  11 pq = [   29740,   31191] index = [     442248670,486454836] size =     44206166
	Batch  12 pq = [   31191,   32578] index = [     486454836,530679331] size =     44224495
	Batch  13 pq = [   32578,   33411] index = [     530679331,558164166] size =     27484835
  Task number: 51
  Buffer size: 11059200
  Buffer per thread: 2
  We computed 32686898 shell quartets total.
  Whereas there are 32012001 unique shell quartets.
     2.11 percent of shell quartets recomputed by reordering.

  ==> DiskJK: Disk-Based J/K Matrices <==

    J tasked:                  Yes
    K tasked:                  Yes
    wK tasked:                  No
    Memory [MiB]:              375
    Schwarz Cutoff:          1E-12

    OpenMP threads:              1

  Minimum eigenvalue in the overlap matrix is 3.1436278583E-04.
  Using Symmetric Orthogonalization.

  SCF Guess: Superposition of Atomic Densities via on-the-fly atomic UHF.

  ==> Iterations <==

                        Total Energy        Delta E     RMS |[F,P]|

   @RHF iter SAD:  -500.83141912115485   -5.00831e+02   0.00000e+00
   @RHF iter   1:  -501.60249760691363   -7.71078e-01   2.70784e-03 DIIS
   @RHF iter   2:  -501.87598651122318   -2.73489e-01   1.15649e-03 DIIS
   @RHF iter   3:  -501.92127125825414   -4.52847e-02   2.53033e-04 DIIS
   @RHF iter   4:  -501.92489195162017   -3.62069e-03   8.50747e-05 DIIS
   @RHF iter   5:  -501.92517377857496   -2.81827e-04   1.92900e-05 DIIS
   @RHF iter   6:  -501.92519278288387   -1.90043e-05   6.96266e-06 DIIS
   @RHF iter   7:  -501.92519532199100   -2.53911e-06   1.75873e-06 DIIS
   @RHF iter   8:  -501.92519562344569   -3.01455e-07   6.49795e-07 DIIS
   @RHF iter   9:  -501.92519567365667   -5.02110e-08   2.94937e-07 DIIS
   @RHF iter  10:  -501.92519568367368   -1.00170e-08   1.36586e-07 DIIS
   @RHF iter  11:  -501.92519568732416   -3.65048e-09   5.74013e-08 DIIS
   @RHF iter  12:  -501.92519568794205   -6.17888e-10   2.03776e-08 DIIS
   @RHF iter  13:  -501.92519568799662   -5.45697e-11   6.88615e-09 DIIS
   @RHF iter  14:  -501.92519568800350   -6.87805e-12   2.01987e-09 DIIS
   @RHF iter  15:  -501.92519568800640   -2.89901e-12   6.71974e-10 DIIS
   @RHF iter  16:  -501.92519568800287    3.52429e-12   2.48748e-10 DIIS
   @RHF iter  17:  -501.92519568800583   -2.95586e-12   1.14717e-10 DIIS
   @RHF iter  18:  -501.92519568800333    2.50111e-12   5.94916e-11 DIIS
  Energy and wave function converged.

  ==> Post-Iterations <==

    Orbital Energies [Eh]
    ---------------------

    Doubly Occupied:

       1A    -20.583106     2A    -11.294475     3A    -11.240973
       4A    -11.240804     5A    -11.235780     6A    -11.230967
       7A    -11.230673     8A    -11.229880     9A    -11.218634
      10A    -11.211439    11A    -11.210159    12A    -11.209892
      13A     -1.407252    14A     -1.152770    15A     -1.079839
      16A     -1.040746    17A     -1.015469    18A     -0.929548
      19A     -0.927076    20A     -0.918093    21A     -0.849667
      22A     -0.803592    23A     -0.762868    24A     -0.735987
      25A     -0.671089    26A     -0.643187    27A     -0.630804
      28A     -0.609403    29A     -0.592289    30A     -0.588110
      31A     -0.584247    32A     -0.578537    33A     -0.572055
      34A     -0.568125    35A     -0.539033    36A     -0.527397
      37A     -0.526421    38A     -0.500677    39A     -0.498059
      40A     -0.485975    41A     -0.471577    42A     -0.459103
      43A     -0.453639    44A     -0.449118    45A     -0.335411
      46A     -0.307690

    Virtual:

      47A      0.125310    48A      0.156406    49A      0.160420
      50A      0.180548    51A      0.199863    52A      0.210268
      53A      0.216503    54A      0.228193    55A      0.243789
      56A      0.248261    57A      0.257076    58A      0.259180
      59A      0.273345    60A      0.275291    61A      0.283734
      62A      0.285468    63A      0.305452    64A      0.311595
      65A      0.320249    66A      0.350316    67A      0.366904
      68A      0.371811    69A      0.381359    70A      0.409875
      71A      0.418129    72A      0.435517    73A      0.455790
      74A      0.480135    75A      0.498034    76A      0.512154
      77A      0.563131    78A      0.575778    79A      0.609125
      80A      0.614930    81A      0.620409    82A      0.624940
      83A      0.635962    84A      0.650697    85A      0.675696
      86A      0.683455    87A      0.703381    88A      0.710935
      89A      0.735571    90A      0.737866    91A      0.753894
      92A      0.760269    93A      0.773977    94A      0.779128
      95A      0.786752    96A      0.788239    97A      0.801562
      98A      0.814800    99A      0.825333   100A      0.841626
     101A      0.851099   102A      0.860439   103A      0.867344
     104A      0.876695   105A      0.884230   106A      0.884874
     107A      0.891851   108A      0.895234   109A      0.900512
     110A      0.909583   111A      0.914143   112A      0.919507
     113A      0.930963   114A      0.934471   115A      0.941456
     116A      0.945980   117A      0.953652   118A      0.957121
     119A      0.972036   120A      0.985250   121A      0.996912
     122A      1.008546   123A      1.019592   124A      1.024789
     125A      1.050041   126A      1.069697   127A      1.124483
     128A      1.126721   129A      1.130971   130A      1.139895
     131A      1.146972   132A      1.176371   133A      1.189417
     134A      1.196326   135A      1.246096   136A      1.259921
     137A      1.263320   138A      1.300084   139A      1.303388
     140A      1.315563   141A      1.322216   142A      1.349548
     143A      1.361788   144A      1.383629   145A      1.394676
     146A      1.405964   147A      1.422540   148A      1.490138
     149A      1.503268   150A      1.528579   151A      1.544122
     152A      1.547182   153A      1.560710   154A      1.606999
     155A      1.627738   156A      1.643726   157A      1.661936
     158A      1.675057   159A      1.686856   160A      1.692710
     161A      1.700386   162A      1.710248   163A      1.739670
     164A      1.740967   165A      1.750240   166A      1.770409
     167A      1.781977   168A      1.810736   169A      1.818067
     170A      1.845648   171A      1.854266   172A      1.869176
     173A      1.876191   174A      1.892636   175A      1.901961
     176A      1.909736   177A      1.911199   178A      1.926607
     179A      1.932804   180A      1.944167   181A      1.949275
     182A      1.954182   183A      1.961818   184A      1.967560
     185A      1.979606   186A      1.989283   187A      1.995247
     188A      2.001149   189A      2.022618   190A      2.034034
     191A      2.045989   192A      2.050407   193A      2.060823
     194A      2.065399   195A      2.080820   196A      2.087323
     197A      2.094113   198A      2.097791   199A      2.134410
     200A      2.145019   201A      2.153875   202A      2.159305
     203A      2.171575   204A      2.208569   205A      2.233468
     206A      2.239976   207A      2.258274   208A      2.267393
     209A      2.274818   210A      2.301096   211A      2.310838
     212A      2.324425   213A      2.332296   214A      2.344241
     215A      2.369149   216A      2.378062   217A      2.411227
     218A      2.421634   219A      2.464660   220A      2.474894
     221A      2.493513   222A      2.496585   223A      2.525566
     224A      2.551870   225A      2.569744   226A      2.580044
     227A      2.599426   228A      2.656350   229A      2.674812
     230A      2.681922   231A      2.737808   232A      2.747941
     233A      2.765026   234A      2.772935   235A      2.791739
     236A      2.793513   237A      2.800579   238A      2.814577
     239A      2.819932   240A      2.846928   241A      2.856184
     242A      2.863026   243A      2.881071   244A      2.899382
     245A      2.964014   246A      3.009187   247A      3.012938
     248A      3.028847   249A      3.093084   250A      3.105599
     251A      3.130271   252A      3.262322   253A      3.283838
     254A      3.357576   255A      3.595574   256A      3.678391
     257A      3.999884   258A      4.202443

    Final Occupation by Irrep:
              A
    DOCC [    46 ]

  @RHF Final Energy:  -501.92519568800333

   => Energetics <=

    Nuclear Repulsion Energy =            687.8710166587809454
    One-Electron Energy =               -2044.8891605333051302
    Two-Electron Energy =                 855.0929481865208572
    Total Energy =                       -501.9251956880033276

Computation Completed

Properties will be evaluated at   0.000000,   0.000000,   0.000000 [a0]

Properties computed using the SCF density matrix

  Nuclear Dipole Moment: [e a0]
     X:   -15.8279      Y:     2.2501      Z:     3.6646

  Electronic Dipole Moment: [e a0]
     X:    15.7928      Y:    -2.0797      Z:    -3.2073

  Dipole Moment: [e a0]
     X:    -0.0351      Y:     0.1705      Z:     0.4573     Total:     0.4893

  Dipole Moment: [D]
     X:    -0.0891      Y:     0.4333      Z:     1.1622     Total:     1.2436

*** tstop() called on ds3 at Tue Apr 28 17:08:58 2020
Module time:
	user time   =     232.30 seconds =       3.87 minutes
	system time =      82.74 seconds =       1.38 minutes
	total time  =        339 seconds =       5.65 minutes
Total time:
	user time   =     232.30 seconds =       3.87 minutes
	system time =      82.74 seconds =       1.38 minutes
	total time  =        339 seconds =       5.65 minutes
                                     G D M A

                                 by Anthony Stone

                           version 2.2.06, 22 June 2011

               Distributed Multipoles from Gaussian wavefunctions

Starting at 17:8:58 on 28 Apr 2020

Using SCF density matrix from file ./SSI/SSI-061TYR-066LEU-1-dimer.test.23621.fchk

                         Distributed Multipole Analysis

Standard DMA

Positions and radii in angstrom
Multipole moments in atomic units, ea_0^k for rank k

C          x =  1.637857  y =  3.277522  z =  0.367392 angstrom
           Maximum rank =  0   Radius =  0.650 angstrom
                   Q00  =  -0.203276

C          x =  1.133857  y = -0.504478  z =  0.803392 angstrom
           Maximum rank =  0   Radius =  0.650 angstrom
                   Q00  =  -0.185041

C          x =  1.155857  y =  0.876522  z =  1.058392 angstrom
           Maximum rank =  0   Radius =  0.650 angstrom
                   Q00  =   0.010872

C          x =  1.513857  y = -0.979478  z = -0.420608 angstrom
           Maximum rank =  0   Radius =  0.650 angstrom
                   Q00  =   0.281194

C          x =  1.565857  y =  1.785522  z =  0.085392 angstrom
           Maximum rank =  0   Radius =  0.650 angstrom
                   Q00  =  -0.138061

C          x =  1.919857  y = -0.108478  z = -1.398608 angstrom
           Maximum rank =  0   Radius =  0.650 angstrom
                   Q00  =  -0.056556

C          x =  1.947857  y =  1.278522  z = -1.153608 angstrom
           Maximum rank =  0   Radius =  0.650 angstrom
                   Q00  =  -0.048242

O          x =  1.478857  y = -2.312478  z = -0.631608 angstrom
           Maximum rank =  0   Radius =  0.650 angstrom
                   Q00  =  -0.647341

H          x =  0.819857  y = -1.187478  z =  1.580392 angstrom
           Maximum rank =  0   Radius =  0.325 angstrom
                   Q00  =   0.069486

H          x =  0.855857  y =  1.236522  z =  2.034392 angstrom
           Maximum rank =  0   Radius =  0.325 angstrom
                   Q00  =   0.070208

H          x =  1.202857  y = -2.792478  z =  0.153392 angstrom
           Maximum rank =  0   Radius =  0.325 angstrom
                   Q00  =   0.407370

H          x =  2.211857  y = -0.481478  z = -2.364608 angstrom
           Maximum rank =  0   Radius =  0.325 angstrom
                   Q00  =   0.081182

H          x =  2.580857  y =  3.656522  z = -0.031608 angstrom
           Maximum rank =  0   Radius =  0.325 angstrom
                   Q00  =   0.097855

H          x =  1.673857  y =  3.415522  z =  1.449392 angstrom
           Maximum rank =  0   Radius =  0.325 angstrom
                   Q00  =   0.095884

H          x =  2.285857  y =  1.949522  z = -1.932608 angstrom
           Maximum rank =  0   Radius =  0.325 angstrom
                   Q00  =   0.064718

H          x =  0.807856  y =  3.880702  z = -0.029188 angstrom
           Maximum rank =  0   Radius =  0.325 angstrom
                   Q00  =   0.102877

C          x = -2.529143  y = -0.519478  z =  0.156392 angstrom
           Maximum rank =  0   Radius =  0.650 angstrom
                   Q00  =  -0.006143

C          x = -3.787143  y =  0.319522  z = -0.128608 angstrom
           Maximum rank =  0   Radius =  0.650 angstrom
                   Q00  =  -0.246062

C          x = -2.378143  y = -0.681478  z =  1.670392 angstrom
           Maximum rank =  0   Radius =  0.650 angstrom
                   Q00  =  -0.233714

C          x = -2.733143  y = -1.864478  z = -0.526608 angstrom
           Maximum rank =  0   Radius =  0.650 angstrom
                   Q00  =  -0.229823

H          x = -1.645143  y = -0.037478  z = -0.260608 angstrom
           Maximum rank =  0   Radius =  0.325 angstrom
                   Q00  =   0.042474

H          x = -4.638143  y = -0.073478  z =  0.430392 angstrom
           Maximum rank =  0   Radius =  0.325 angstrom
                   Q00  =   0.072718

H          x = -4.024143  y =  0.189522  z = -1.186608 angstrom
           Maximum rank =  0   Radius =  0.325 angstrom
                   Q00  =   0.069918

H          x = -3.337143  y = -0.910478  z =  2.130392 angstrom
           Maximum rank =  0   Radius =  0.325 angstrom
                   Q00  =   0.076757

H          x = -1.681143  y = -1.490478  z =  1.884392 angstrom
           Maximum rank =  0   Radius =  0.325 angstrom
                   Q00  =   0.063772

H          x = -1.966143  y =  0.225522  z =  2.107392 angstrom
           Maximum rank =  0   Radius =  0.325 angstrom
                   Q00  =   0.082264

H          x = -2.793143  y = -1.731478  z = -1.607608 angstrom
           Maximum rank =  0   Radius =  0.325 angstrom
                   Q00  =   0.083967

H          x = -1.887143  y = -2.518478  z = -0.308608 angstrom
           Maximum rank =  0   Radius =  0.325 angstrom
                   Q00  =   0.067016

H          x = -3.653143  y = -2.322478  z = -0.172608 angstrom
           Maximum rank =  0   Radius =  0.325 angstrom
                   Q00  =   0.070752

H          x = -3.704761  y =  1.403988  z =  0.036157 angstrom
           Maximum rank =  0   Radius =  0.325 angstrom
                   Q00  =   0.082974

Total multipoles referred to origin at
           x =   0.000000,  y =    0.000000,  z =    0.000000 angstrom
                   Q00  =  -0.000000

Finished at 17:8:58 on 28 Apr 2020

  DMA results are available in the Python driver through the
	  variable('DMA DISTRIBUTED MULTIPOLES')
  and
	  variable('DMA TOTAL MULTIPOLES')
  commands.

    Psi4 stopped on: Tuesday, 28 April 2020 05:08PM
    Psi4 wall time for execution: 0:05:38.92

*** Psi4 exiting successfully. Buy a developer a beer!
