                               Psi4 1.3.2 release

  ==> Input File <==

--------------------------------------------------------------------------
import numpy as np
set {scf_type pk
basis cc-pvdz
d_convergence 10
gdma_switch   0
gdma_limit    0
gdma_origin   [ 0.0,  0.0,  0.0 ]
}
molecule test {
    units Angstrom
    0 1
    --
    0 1
    C                0.508849158527107     0.174092208768785    -2.648844579394239
    C                1.193849158527107    -0.139907791231215    -0.231844579394239
    C                0.448849158527107    -0.563907791231215    -1.335844579394239
    C                1.116849158527107    -0.827907791231215     0.991155420605761
    C               -0.377150841472893    -1.675907791231215    -1.191844579394239
    C                0.290849158527107    -1.942907791231215     1.116155420605761
    C               -0.446150841472893    -2.374907791231214     0.019155420605761
    O                0.222849158527107    -2.625907791231215     2.293155420605762
    H                1.836849158527107     0.725092208768785    -0.315844579394239
    H                1.695849158527107    -0.498907791231215     1.841155420605761
    H                0.745849158527107     1.221092208768785    -2.460844579394239
    H               -0.482150841472893     0.139092208768785    -3.105844579394238
    H               -0.971150841472893    -2.014907791231215    -2.029844579394239
    H               -1.089150841472893    -3.236907791231214     0.101155420605761
    H               -0.385150841472893    -3.378907791231215     2.203155420605761
    H                1.244776158527107    -0.239956791231215    -3.353808579394239
    C               -1.093150841472893     2.615092208768786     0.327155420605761
    C               -1.790150841472893     3.623092208768785    -0.600844579394239
    C                0.216849158527107     3.106092208768785     0.952155420605761
    H               -1.768150841472893     2.326092208768785     1.131155420605761
    H               -0.885150841472893     1.714092208768785    -0.247844579394239
    H               -2.696150841472893     3.153092208768785    -0.983844579394239
    H                0.034849158527107     3.953092208768785     1.610155420605761
    H                0.642849158527107     2.299092208768786     1.547155420605761
    H                0.940849158527107     3.376092208768785     0.184155420605761
    H               -2.074251841472893     4.533508208768785    -0.052729879394239
    H               -1.154765641472893     3.874930208768785    -1.462739579394239

}
e, wfn = energy('scf', return_wfn=True)
gdma(wfn)
dmavals = variable('DMA DISTRIBUTED MULTIPOLES')
charges = np.array(dmavals)
print(charges)
np.save('SSI-056TYR-084ILE-1-dimer.npy', np.array(charges))--------------------------------------------------------------------------

*** tstart() called on ds3
*** at Sun Apr 26 22:12:58 2020

   => Loading Basis Set <=

    Name: CC-PVDZ
    Role: ORBITAL
    Keyword: BASIS
    atoms 1-7, 17-19  entry C          line   138 file /theoryfs2/ds/metcalf/miniconda2/envs/tf2gpu/share/psi4/basis/cc-pvdz.gbs
    atoms 8           entry O          line   198 file /theoryfs2/ds/metcalf/miniconda2/envs/tf2gpu/share/psi4/basis/cc-pvdz.gbs
    atoms 9-16, 20-27 entry H          line    22 file /theoryfs2/ds/metcalf/miniconda2/envs/tf2gpu/share/psi4/basis/cc-pvdz.gbs

         ---------------------------------------------------------
                                   SCF
               by Justin Turney, Rob Parrish, Andy Simmonett
                          and Daniel G. A. Smith
                              RHF Reference
                        1 Threads,    500 MiB Core
         ---------------------------------------------------------

  ==> Geometry <==

    Molecular point group: c1
    Full point group: C1

    Geometry (in Angstrom), charge = 0, multiplicity = 1:

       Center              X                  Y                   Z               Mass
    ------------   -----------------  -----------------  -----------------  -----------------
         C            0.508849158527     0.174092208769    -2.648844579394    12.000000000000
         C            1.193849158527    -0.139907791231    -0.231844579394    12.000000000000
         C            0.448849158527    -0.563907791231    -1.335844579394    12.000000000000
         C            1.116849158527    -0.827907791231     0.991155420606    12.000000000000
         C           -0.377150841473    -1.675907791231    -1.191844579394    12.000000000000
         C            0.290849158527    -1.942907791231     1.116155420606    12.000000000000
         C           -0.446150841473    -2.374907791231     0.019155420606    12.000000000000
         O            0.222849158527    -2.625907791231     2.293155420606    15.994914619570
         H            1.836849158527     0.725092208769    -0.315844579394     1.007825032230
         H            1.695849158527    -0.498907791231     1.841155420606     1.007825032230
         H            0.745849158527     1.221092208769    -2.460844579394     1.007825032230
         H           -0.482150841473     0.139092208769    -3.105844579394     1.007825032230
         H           -0.971150841473    -2.014907791231    -2.029844579394     1.007825032230
         H           -1.089150841473    -3.236907791231     0.101155420606     1.007825032230
         H           -0.385150841473    -3.378907791231     2.203155420606     1.007825032230
         H            1.244776158527    -0.239956791231    -3.353808579394     1.007825032230
         C           -1.093150841473     2.615092208769     0.327155420606    12.000000000000
         C           -1.790150841473     3.623092208769    -0.600844579394    12.000000000000
         C            0.216849158527     3.106092208769     0.952155420606    12.000000000000
         H           -1.768150841473     2.326092208769     1.131155420606     1.007825032230
         H           -0.885150841473     1.714092208769    -0.247844579394     1.007825032230
         H           -2.696150841473     3.153092208769    -0.983844579394     1.007825032230
         H            0.034849158527     3.953092208769     1.610155420606     1.007825032230
         H            0.642849158527     2.299092208769     1.547155420606     1.007825032230
         H            0.940849158527     3.376092208769     0.184155420606     1.007825032230
         H           -2.074251841473     4.533508208769    -0.052729879394     1.007825032230
         H           -1.154765641473     3.874930208769    -1.462739579394     1.007825032230

  Running in c1 symmetry.

  Rotational constants: A =      0.04408  B =      0.01908  C =      0.01580 [cm^-1]
  Rotational constants: A =   1321.61200  B =    572.06128  C =    473.71704 [MHz]
  Nuclear repulsion =  587.933931427949574

  Charge       = 0
  Multiplicity = 1
  Electrons    = 84
  Nalpha       = 42
  Nbeta        = 42

  ==> Algorithm <==

  SCF Algorithm Type is PK.
  DIIS enabled.
  MOM disabled.
  Fractional occupation disabled.
  Guess Type is SAD.
  Energy threshold   = 1.00e-06
  Density threshold  = 1.00e-10
  Integral threshold = 0.00e+00

  ==> Primary Basis <==

  Basis Set: CC-PVDZ
    Blend: CC-PVDZ
    Number of shells: 114
    Number of basis function: 234
    Number of Cartesian functions: 245
    Spherical Harmonics?: true
    Max angular momentum: 2

  ==> Pre-Iterations <==

   -------------------------------------------------------
    Irrep   Nso     Nmo     Nalpha   Nbeta   Ndocc  Nsocc
   -------------------------------------------------------
     A        234     234       0       0       0       0
   -------------------------------------------------------
    Total     234     234      42      42      42       0
   -------------------------------------------------------

  ==> Integral Setup <==

  Using integral reordering PK algorithm.
  Sizing the integral batches needed.
  Building batch lookup table.
   Calculation information:
      Number of atoms:                  27
      Number of AO shells:             114
      Number of primitives:            322
      Number of atomic orbitals:       245
      Number of basis functions:       234

      Integral cutoff                 1.00e-12
      Number of threads:                 1

	Batch   1 pq = [       0,    9405] index = [             0,44231715] size =     44231715
	Batch   2 pq = [    9405,   13301] index = [      44231715,88464951] size =     44233236
	Batch   3 pq = [   13301,   16290] index = [      88464951,132690195] size =     44225244
	Batch   4 pq = [   16290,   18810] index = [     132690195,176917455] size =     44227260
	Batch   5 pq = [   18810,   21030] index = [     176917455,221140965] size =     44223510
	Batch   6 pq = [   21030,   23037] index = [     221140965,265363203] size =     44222238
	Batch   7 pq = [   23037,   24883] index = [     265363203,309594286] size =     44231083
	Batch   8 pq = [   24883,   26601] index = [     309594286,353819901] size =     44225615
	Batch   9 pq = [   26601,   27495] index = [     353819901,378001260] size =     24181359
  Task number: 35
  Buffer size: 11059200
  Buffer per thread: 2
  We computed 21200578 shell quartets total.
  Whereas there are 21487290 unique shell quartets.

  ==> DiskJK: Disk-Based J/K Matrices <==

    J tasked:                  Yes
    K tasked:                  Yes
    wK tasked:                  No
    Memory [MiB]:              375
    Schwarz Cutoff:          1E-12

    OpenMP threads:              1

  Minimum eigenvalue in the overlap matrix is 3.2907443710E-04.
  Using Symmetric Orthogonalization.

  SCF Guess: Superposition of Atomic Densities via on-the-fly atomic UHF.

  ==> Iterations <==

                        Total Energy        Delta E     RMS |[F,P]|

   @RHF iter SAD:  -461.65242377628647   -4.61652e+02   0.00000e+00
   @RHF iter   1:  -462.60766292197587   -9.55239e-01   2.80741e-03 DIIS
   @RHF iter   2:  -462.84927270311010   -2.41610e-01   1.19323e-03 DIIS
   @RHF iter   3:  -462.88865317964081   -3.93805e-02   2.72190e-04 DIIS
   @RHF iter   4:  -462.89193420611264   -3.28103e-03   1.10399e-04 DIIS
   @RHF iter   5:  -462.89232326686943   -3.89061e-04   2.03182e-05 DIIS
   @RHF iter   6:  -462.89234321001101   -1.99431e-05   6.47302e-06 DIIS
   @RHF iter   7:  -462.89234529732215   -2.08731e-06   1.98931e-06 DIIS
   @RHF iter   8:  -462.89234558136195   -2.84040e-07   7.76891e-07 DIIS
   @RHF iter   9:  -462.89234563303870   -5.16767e-08   3.49383e-07 DIIS
   @RHF iter  10:  -462.89234564471576   -1.16771e-08   1.51022e-07 DIIS
   @RHF iter  11:  -462.89234564856122   -3.84546e-09   6.16814e-08 DIIS
   @RHF iter  12:  -462.89234564914193   -5.80712e-10   2.73222e-08 DIIS
   @RHF iter  13:  -462.89234564921884   -7.69091e-11   8.47704e-09 DIIS
   @RHF iter  14:  -462.89234564922924   -1.04023e-11   2.08438e-09 DIIS
   @RHF iter  15:  -462.89234564922742    1.81899e-12   7.48035e-10 DIIS
   @RHF iter  16:  -462.89234564922589    1.53477e-12   2.78219e-10 DIIS
   @RHF iter  17:  -462.89234564922702   -1.13687e-12   1.30213e-10 DIIS
   @RHF iter  18:  -462.89234564922583    1.19371e-12   6.67593e-11 DIIS
  Energy and wave function converged.

  ==> Post-Iterations <==

    Orbital Energies [Eh]
    ---------------------

    Doubly Occupied:

       1A    -20.586059     2A    -11.300537     3A    -11.241037
       4A    -11.240601     5A    -11.234686     6A    -11.234539
       7A    -11.232610     8A    -11.229658     9A    -11.214390
      10A    -11.212536    11A    -11.210389    12A     -1.400645
      13A     -1.149787    14A     -1.044972    15A     -1.038435
      16A     -1.015781    17A     -0.927217    18A     -0.922290
      19A     -0.846055    20A     -0.800936    21A     -0.791072
      22A     -0.730395    23A     -0.669631    24A     -0.642377
      25A     -0.620797    26A     -0.606788    27A     -0.590049
      28A     -0.586744    29A     -0.583132    30A     -0.572333
      31A     -0.569761    32A     -0.545457    33A     -0.532382
      34A     -0.527593    35A     -0.498924    36A     -0.486107
      37A     -0.471176    38A     -0.465583    39A     -0.463560
      40A     -0.458185    41A     -0.336786    42A     -0.303590

    Virtual:

      43A      0.126540    44A      0.152309    45A      0.167234
      46A      0.178084    47A      0.202620    48A      0.203883
      49A      0.216157    50A      0.233128    51A      0.243285
      52A      0.258965    53A      0.259599    54A      0.272255
      55A      0.276649    56A      0.285722    57A      0.304951
      58A      0.312299    59A      0.316381    60A      0.326691
      61A      0.370517    62A      0.372235    63A      0.379085
      64A      0.425866    65A      0.430294    66A      0.456591
      67A      0.486740    68A      0.494257    69A      0.503505
      70A      0.576320    71A      0.603594    72A      0.608001
      73A      0.610605    74A      0.627677    75A      0.632592
      76A      0.646294    77A      0.661102    78A      0.681390
      79A      0.693232    80A      0.701332    81A      0.723284
      82A      0.728779    83A      0.738096    84A      0.760205
      85A      0.765253    86A      0.776155    87A      0.787007
      88A      0.788216    89A      0.810438    90A      0.822565
      91A      0.836973    92A      0.848882    93A      0.853456
      94A      0.869435    95A      0.880839    96A      0.885732
      97A      0.890797    98A      0.891466    99A      0.898718
     100A      0.907802   101A      0.910885   102A      0.911184
     103A      0.916691   104A      0.928566   105A      0.936999
     106A      0.942779   107A      0.961745   108A      0.984244
     109A      0.991904   110A      1.003593   111A      1.006122
     112A      1.027000   113A      1.053391   114A      1.090300
     115A      1.117718   116A      1.130734   117A      1.136681
     118A      1.141096   119A      1.157961   120A      1.184087
     121A      1.200720   122A      1.243889   123A      1.247921
     124A      1.252489   125A      1.282752   126A      1.292241
     127A      1.296074   128A      1.303985   129A      1.332820
     130A      1.356824   131A      1.365967   132A      1.378859
     133A      1.388569   134A      1.464432   135A      1.472171
     136A      1.487343   137A      1.501388   138A      1.508278
     139A      1.551876   140A      1.556187   141A      1.608478
     142A      1.615115   143A      1.657765   144A      1.682572
     145A      1.685083   146A      1.688034   147A      1.697859
     148A      1.706775   149A      1.734582   150A      1.752886
     151A      1.785060   152A      1.801800   153A      1.809229
     154A      1.867778   155A      1.871269   156A      1.874336
     157A      1.881712   158A      1.893279   159A      1.898971
     160A      1.905753   161A      1.910693   162A      1.921305
     163A      1.923372   164A      1.936966   165A      1.946410
     166A      1.953145   167A      1.969742   168A      1.972530
     169A      1.981845   170A      1.986788   171A      1.995451
     172A      2.002928   173A      2.004304   174A      2.024945
     175A      2.042943   176A      2.046218   177A      2.052207
     178A      2.063645   179A      2.072836   180A      2.092819
     181A      2.131281   182A      2.136165   183A      2.143679
     184A      2.156869   185A      2.166182   186A      2.204456
     187A      2.230173   188A      2.262626   189A      2.274095
     190A      2.294789   191A      2.301870   192A      2.312258
     193A      2.328598   194A      2.340244   195A      2.363481
     196A      2.371908   197A      2.422640   198A      2.442938
     199A      2.474947   200A      2.482922   201A      2.494910
     202A      2.531250   203A      2.535715   204A      2.547480
     205A      2.587497   206A      2.601654   207A      2.618339
     208A      2.623133   209A      2.642513   210A      2.751149
     211A      2.761456   212A      2.771057   213A      2.780267
     214A      2.793527   215A      2.800850   216A      2.809314
     217A      2.842694   218A      2.845142   219A      2.898956
     220A      2.933849   221A      2.963954   222A      2.984339
     223A      2.994315   224A      3.010320   225A      3.072698
     226A      3.086748   227A      3.106718   228A      3.255125
     229A      3.274494   230A      3.334874   231A      3.577445
     232A      3.672606   233A      3.950400   234A      4.174598

    Final Occupation by Irrep:
              A
    DOCC [    42 ]

  @RHF Final Energy:  -462.89234564922583

   => Energetics <=

    Nuclear Repulsion Energy =            587.9339314279495738
    One-Electron Energy =               -1793.3813853089300210
    Two-Electron Energy =                 742.5551082317546161
    Total Energy =                       -462.8923456492258310

Computation Completed

Properties will be evaluated at   0.000000,   0.000000,   0.000000 [a0]

Properties computed using the SCF density matrix

  Nuclear Dipole Moment: [e a0]
     X:    -4.0902      Y:    16.8109      Z:    -5.0469

  Electronic Dipole Moment: [e a0]
     X:     3.7316      Y:   -17.1789      Z:     4.6619

  Dipole Moment: [e a0]
     X:    -0.3586      Y:    -0.3680      Z:    -0.3850     Total:     0.6420

  Dipole Moment: [D]
     X:    -0.9115      Y:    -0.9354      Z:    -0.9785     Total:     1.6319

*** tstop() called on ds3 at Sun Apr 26 22:16:27 2020
Module time:
	user time   =     154.32 seconds =       2.57 minutes
	system time =      62.70 seconds =       1.05 minutes
	total time  =        209 seconds =       3.48 minutes
Total time:
	user time   =     154.32 seconds =       2.57 minutes
	system time =      62.70 seconds =       1.05 minutes
	total time  =        209 seconds =       3.48 minutes
                                     G D M A

                                 by Anthony Stone

                           version 2.2.06, 22 June 2011

               Distributed Multipoles from Gaussian wavefunctions

Starting at 22:16:27 on 26 Apr 2020

Using SCF density matrix from file ./SSI/SSI-056TYR-084ILE-1-dimer.test.2772.fchk

                         Distributed Multipole Analysis

Standard DMA

Positions and radii in angstrom
Multipole moments in atomic units, ea_0^k for rank k

C          x =  0.508849  y =  0.174092  z = -2.648845 angstrom
           Maximum rank =  0   Radius =  0.650 angstrom
                   Q00  =  -0.196635

C          x =  1.193849  y = -0.139908  z = -0.231845 angstrom
           Maximum rank =  0   Radius =  0.650 angstrom
                   Q00  =  -0.050405

C          x =  0.448849  y = -0.563908  z = -1.335845 angstrom
           Maximum rank =  0   Radius =  0.650 angstrom
                   Q00  =  -0.143761

C          x =  1.116849  y = -0.827908  z =  0.991155 angstrom
           Maximum rank =  0   Radius =  0.650 angstrom
                   Q00  =  -0.110659

C          x = -0.377151  y = -1.675908  z = -1.191845 angstrom
           Maximum rank =  0   Radius =  0.650 angstrom
                   Q00  =   0.052452

C          x =  0.290849  y = -1.942908  z =  1.116155 angstrom
           Maximum rank =  0   Radius =  0.650 angstrom
                   Q00  =   0.319789

C          x = -0.446151  y = -2.374908  z =  0.019155 angstrom
           Maximum rank =  0   Radius =  0.650 angstrom
                   Q00  =  -0.183457

O          x =  0.222849  y = -2.625908  z =  2.293155 angstrom
           Maximum rank =  0   Radius =  0.650 angstrom
                   Q00  =  -0.675235

H          x =  1.836849  y =  0.725092  z = -0.315845 angstrom
           Maximum rank =  0   Radius =  0.325 angstrom
                   Q00  =   0.067704

H          x =  1.695849  y = -0.498908  z =  1.841155 angstrom
           Maximum rank =  0   Radius =  0.325 angstrom
                   Q00  =   0.081299

H          x =  0.745849  y =  1.221092  z = -2.460845 angstrom
           Maximum rank =  0   Radius =  0.325 angstrom
                   Q00  =   0.096031

H          x = -0.482151  y =  0.139092  z = -3.105845 angstrom
           Maximum rank =  0   Radius =  0.325 angstrom
                   Q00  =   0.095153

H          x = -0.971151  y = -2.014908  z = -2.029845 angstrom
           Maximum rank =  0   Radius =  0.325 angstrom
                   Q00  =   0.068621

H          x = -1.089151  y = -3.236908  z =  0.101155 angstrom
           Maximum rank =  0   Radius =  0.325 angstrom
                   Q00  =   0.071002

H          x = -0.385151  y = -3.378908  z =  2.203155 angstrom
           Maximum rank =  0   Radius =  0.325 angstrom
                   Q00  =   0.408057

H          x =  1.244776  y = -0.239957  z = -3.353809 angstrom
           Maximum rank =  0   Radius =  0.325 angstrom
                   Q00  =   0.103061

C          x = -1.093151  y =  2.615092  z =  0.327155 angstrom
           Maximum rank =  0   Radius =  0.650 angstrom
                   Q00  =  -0.064904

C          x = -1.790151  y =  3.623092  z = -0.600845 angstrom
           Maximum rank =  0   Radius =  0.650 angstrom
                   Q00  =  -0.261793

C          x =  0.216849  y =  3.106092  z =  0.952155 angstrom
           Maximum rank =  0   Radius =  0.650 angstrom
                   Q00  =  -0.251562

H          x = -1.768151  y =  2.326092  z =  1.131155 angstrom
           Maximum rank =  0   Radius =  0.325 angstrom
                   Q00  =   0.049328

H          x = -0.885151  y =  1.714092  z = -0.247845 angstrom
           Maximum rank =  0   Radius =  0.325 angstrom
                   Q00  =   0.058557

H          x = -2.696151  y =  3.153092  z = -0.983845 angstrom
           Maximum rank =  0   Radius =  0.325 angstrom
                   Q00  =   0.082240

H          x =  0.034849  y =  3.953092  z =  1.610155 angstrom
           Maximum rank =  0   Radius =  0.325 angstrom
                   Q00  =   0.078302

H          x =  0.642849  y =  2.299092  z =  1.547155 angstrom
           Maximum rank =  0   Radius =  0.325 angstrom
                   Q00  =   0.085273

H          x =  0.940849  y =  3.376092  z =  0.184155 angstrom
           Maximum rank =  0   Radius =  0.325 angstrom
                   Q00  =   0.070381

H          x = -2.074252  y =  4.533508  z = -0.052730 angstrom
           Maximum rank =  0   Radius =  0.325 angstrom
                   Q00  =   0.076512

H          x = -1.154766  y =  3.874930  z = -1.462740 angstrom
           Maximum rank =  0   Radius =  0.325 angstrom
                   Q00  =   0.074648

Total multipoles referred to origin at
           x =   0.000000,  y =    0.000000,  z =    0.000000 angstrom
                   Q00  =  -0.000000

Finished at 22:16:27 on 26 Apr 2020

  DMA results are available in the Python driver through the
	  variable('DMA DISTRIBUTED MULTIPOLES')
  and
	  variable('DMA TOTAL MULTIPOLES')
  commands.

    Psi4 stopped on: Sunday, 26 April 2020 10:16PM
    Psi4 wall time for execution: 0:03:29.13

*** Psi4 exiting successfully. Buy a developer a beer!
