                               Psi4 1.3.2 release

  ==> Input File <==

--------------------------------------------------------------------------
import numpy as np
set {scf_type pk
basis cc-pvdz
d_convergence 10
gdma_switch   0
gdma_limit    0
gdma_origin   [ 0.0,  0.0,  0.0 ]
}
molecule test {
    units Angstrom
    1 1
    --
    1 1
    C               -0.693974497591666     1.192265973808790     2.403979553757427
    N               -0.778974497591666     0.578265973808791     1.033979553757427
    H               -0.739974497591666    -0.434734026191209     1.068979553757427
    H               -1.660974497591666     0.816265973808791     0.589979553757427
    H               -0.046974497591666     0.903265973808791     0.410979553757427
    H               -1.541974497591666     0.844265973808791     3.005979553757427
    H               -0.789974497591666     2.281265973808791     2.317979553757427
    H                0.231025502408334     0.975479973808791     2.958394553757427
    C                1.293025502408334    -1.343734026191210    -1.716020446242573
    O                0.244025502408334    -0.399734026191210    -1.599020446242573
    H               -0.369974497591666    -0.534734026191209    -2.337020446242573
    H                0.929025502408334    -2.262734026191210    -2.172020446242573
    H                2.112915502408334    -0.909973926191209    -2.307311446242573
    H                1.694565502408334    -1.565424626191209    -0.716210446242573

}
e, wfn = energy('scf', return_wfn=True)
gdma(wfn)
dmavals = variable('DMA DISTRIBUTED MULTIPOLES')
charges = np.array(dmavals)
print(charges)
np.save('SSI-008LYS-043THR-1-dimer.npy', np.array(charges))--------------------------------------------------------------------------

*** tstart() called on ds3
*** at Mon Apr 27 14:00:00 2020

   => Loading Basis Set <=

    Name: CC-PVDZ
    Role: ORBITAL
    Keyword: BASIS
    atoms 1, 9       entry C          line   138 file /theoryfs2/ds/metcalf/miniconda2/envs/tf2gpu/share/psi4/basis/cc-pvdz.gbs
    atoms 2          entry N          line   168 file /theoryfs2/ds/metcalf/miniconda2/envs/tf2gpu/share/psi4/basis/cc-pvdz.gbs
    atoms 3-8, 11-14 entry H          line    22 file /theoryfs2/ds/metcalf/miniconda2/envs/tf2gpu/share/psi4/basis/cc-pvdz.gbs
    atoms 10         entry O          line   198 file /theoryfs2/ds/metcalf/miniconda2/envs/tf2gpu/share/psi4/basis/cc-pvdz.gbs

         ---------------------------------------------------------
                                   SCF
               by Justin Turney, Rob Parrish, Andy Simmonett
                          and Daniel G. A. Smith
                              RHF Reference
                        1 Threads,    500 MiB Core
         ---------------------------------------------------------

  ==> Geometry <==

    Molecular point group: c1
    Full point group: C1

    Geometry (in Angstrom), charge = 1, multiplicity = 1:

       Center              X                  Y                   Z               Mass
    ------------   -----------------  -----------------  -----------------  -----------------
         C           -0.693974497592     1.192265973809     2.403979553757    12.000000000000
         N           -0.778974497592     0.578265973809     1.033979553757    14.003074004430
         H           -0.739974497592    -0.434734026191     1.068979553757     1.007825032230
         H           -1.660974497592     0.816265973809     0.589979553757     1.007825032230
         H           -0.046974497592     0.903265973809     0.410979553757     1.007825032230
         H           -1.541974497592     0.844265973809     3.005979553757     1.007825032230
         H           -0.789974497592     2.281265973809     2.317979553757     1.007825032230
         H            0.231025502408     0.975479973809     2.958394553757     1.007825032230
         C            1.293025502408    -1.343734026191    -1.716020446243    12.000000000000
         O            0.244025502408    -0.399734026191    -1.599020446243    15.994914619570
         H           -0.369974497592    -0.534734026191    -2.337020446243     1.007825032230
         H            0.929025502408    -2.262734026191    -2.172020446243     1.007825032230
         H            2.112915502408    -0.909973926191    -2.307311446243     1.007825032230
         H            1.694565502408    -1.565424626191    -0.716210446243     1.007825032230

  Running in c1 symmetry.

  Rotational constants: A =      0.69955  B =      0.05684  C =      0.05445 [cm^-1]
  Rotational constants: A =  20971.83201  B =   1703.97734  C =   1632.39977 [MHz]
  Nuclear repulsion =  133.188816307845030

  Charge       = 1
  Multiplicity = 1
  Electrons    = 36
  Nalpha       = 18
  Nbeta        = 18

  ==> Algorithm <==

  SCF Algorithm Type is PK.
  DIIS enabled.
  MOM disabled.
  Fractional occupation disabled.
  Guess Type is SAD.
  Energy threshold   = 1.00e-06
  Density threshold  = 1.00e-10
  Integral threshold = 0.00e+00

  ==> Primary Basis <==

  Basis Set: CC-PVDZ
    Blend: CC-PVDZ
    Number of shells: 54
    Number of basis function: 106
    Number of Cartesian functions: 110
    Spherical Harmonics?: true
    Max angular momentum: 2

  ==> Pre-Iterations <==

   -------------------------------------------------------
    Irrep   Nso     Nmo     Nalpha   Nbeta   Ndocc  Nsocc
   -------------------------------------------------------
     A        106     106       0       0       0       0
   -------------------------------------------------------
    Total     106     106      18      18      18       0
   -------------------------------------------------------

  ==> Integral Setup <==

  Using in-core PK algorithm.
   Calculation information:
      Number of atoms:                  14
      Number of AO shells:              54
      Number of primitives:            138
      Number of atomic orbitals:       110
      Number of basis functions:       106

      Integral cutoff                 1.00e-12
      Number of threads:                 1

  Performing in-core PK
  Using 32165912 doubles for integral storage.
  We computed 877732 shell quartets total.
  Whereas there are 1103355 unique shell quartets.

  ==> DiskJK: Disk-Based J/K Matrices <==

    J tasked:                  Yes
    K tasked:                  Yes
    wK tasked:                  No
    Memory [MiB]:              375
    Schwarz Cutoff:          1E-12

    OpenMP threads:              1

  Minimum eigenvalue in the overlap matrix is 1.1464764302E-02.
  Using Symmetric Orthogonalization.

  SCF Guess: Superposition of Atomic Densities via on-the-fly atomic UHF.

  ==> Iterations <==

                        Total Energy        Delta E     RMS |[F,P]|

   @RHF iter SAD:  -209.86197990539711   -2.09862e+02   0.00000e+00
   @RHF iter   1:  -210.54441749791442   -6.82438e-01   4.06563e-03 DIIS
   @RHF iter   2:  -210.64058868213573   -9.61712e-02   1.74130e-03 DIIS
   @RHF iter   3:  -210.65440665799531   -1.38180e-02   5.04822e-04 DIIS
   @RHF iter   4:  -210.65615492263765   -1.74826e-03   9.54371e-05 DIIS
   @RHF iter   5:  -210.65622345527777   -6.85326e-05   2.62885e-05 DIIS
   @RHF iter   6:  -210.65622909973879   -5.64446e-06   5.03376e-06 DIIS
   @RHF iter   7:  -210.65622943856471   -3.38826e-07   1.20367e-06 DIIS
   @RHF iter   8:  -210.65622945951816   -2.09535e-08   3.27602e-07 DIIS
   @RHF iter   9:  -210.65622946049433   -9.76172e-10   9.13228e-08 DIIS
   @RHF iter  10:  -210.65622946056286   -6.85247e-11   1.58184e-08 DIIS
   @RHF iter  11:  -210.65622946056669   -3.83693e-12   4.28991e-09 DIIS
   @RHF iter  12:  -210.65622946056624    4.54747e-13   1.16458e-09 DIIS
   @RHF iter  13:  -210.65622946056672   -4.83169e-13   3.06538e-10 DIIS
   @RHF iter  14:  -210.65622946056652    1.98952e-13   9.72432e-11 DIIS
  Energy and wave function converged.

  ==> Post-Iterations <==

    Orbital Energies [Eh]
    ---------------------

    Doubly Occupied:

       1A    -20.703353     2A    -15.895158     3A    -11.482920
       4A    -11.406655     5A     -1.508634     6A     -1.499965
       7A     -1.156233     8A     -1.053775     9A     -0.965929
      10A     -0.961994    11A     -0.854959    12A     -0.827167
      13A     -0.756864    14A     -0.754986    15A     -0.751914
      16A     -0.733707    17A     -0.638739    18A     -0.584863

    Virtual:

      19A     -0.037992    20A      0.026984    21A      0.030242
      22A      0.045668    23A      0.072633    24A      0.092077
      25A      0.093056    26A      0.100871    27A      0.146228
      28A      0.154514    29A      0.161024    30A      0.235677
      31A      0.372347    32A      0.375365    33A      0.438533
      34A      0.489580    35A      0.501352    36A      0.533427
      37A      0.545052    38A      0.615436    39A      0.646565
      40A      0.661828    41A      0.663022    42A      0.690813
      43A      0.704562    44A      0.733155    45A      0.756620
      46A      0.771274    47A      0.781526    48A      0.786440
      49A      0.795856    50A      0.920805    51A      0.925728
      52A      1.001385    53A      1.023562    54A      1.034182
      55A      1.052321    56A      1.155599    57A      1.202958
      58A      1.248347    59A      1.263473    60A      1.389215
      61A      1.469296    62A      1.475432    63A      1.488587
      64A      1.536010    65A      1.546404    66A      1.610984
      67A      1.635180    68A      1.692509    69A      1.706454
      70A      1.720959    71A      1.729498    72A      1.734870
      73A      1.778843    74A      1.789518    75A      1.801800
      76A      1.904367    77A      1.926678    78A      1.947962
      79A      1.952118    80A      1.957518    81A      1.981882
      82A      1.996915    83A      2.161273    84A      2.180184
      85A      2.240297    86A      2.251821    87A      2.254212
      88A      2.264334    89A      2.344014    90A      2.376890
      91A      2.460636    92A      2.477631    93A      2.528084
      94A      2.608607    95A      2.637219    96A      2.643465
      97A      2.720635    98A      2.736204    99A      2.768316
     100A      3.074967   101A      3.102712   102A      3.151809
     103A      3.233817   104A      3.305803   105A      3.446950
     106A      3.935570

    Final Occupation by Irrep:
              A
    DOCC [    18 ]

  @RHF Final Energy:  -210.65622946056652

   => Energetics <=

    Nuclear Repulsion Energy =            133.1888163078450305
    One-Electron Energy =                -542.6144634316021893
    Two-Electron Energy =                 198.7694176631906089
    Total Energy =                       -210.6562294605665215

Computation Completed

Properties will be evaluated at   0.000000,   0.000000,   0.000000 [a0]

Properties computed using the SCF density matrix

  Nuclear Dipole Moment: [e a0]
     X:    -0.1675      Y:     0.1023      Z:     2.6327

  Electronic Dipole Moment: [e a0]
     X:    -1.0848      Y:     0.4919      Z:    -1.1177

  Dipole Moment: [e a0]
     X:    -1.2522      Y:     0.5942      Z:     1.5150     Total:     2.0534

  Dipole Moment: [D]
     X:    -3.1829      Y:     1.5103      Z:     3.8508     Total:     5.2192

*** tstop() called on ds3 at Mon Apr 27 14:00:06 2020
Module time:
	user time   =       6.12 seconds =       0.10 minutes
	system time =       0.11 seconds =       0.00 minutes
	total time  =          6 seconds =       0.10 minutes
Total time:
	user time   =       6.12 seconds =       0.10 minutes
	system time =       0.11 seconds =       0.00 minutes
	total time  =          6 seconds =       0.10 minutes
                                     G D M A

                                 by Anthony Stone

                           version 2.2.06, 22 June 2011

               Distributed Multipoles from Gaussian wavefunctions

Starting at 14:0:6 on 27 Apr 2020

Using SCF density matrix from file ./SSI/SSI-008LYS-043THR-1-dimer.test.8471.fchk

                         Distributed Multipole Analysis

Standard DMA

Positions and radii in angstrom
Multipole moments in atomic units, ea_0^k for rank k

C          x = -0.693974  y =  1.192266  z =  2.403980 angstrom
           Maximum rank =  0   Radius =  0.650 angstrom
                   Q00  =  -0.152068

N          x = -0.778974  y =  0.578266  z =  1.033980 angstrom
           Maximum rank =  0   Radius =  0.650 angstrom
                   Q00  =  -0.149019

H          x = -0.739974  y = -0.434734  z =  1.068980 angstrom
           Maximum rank =  0   Radius =  0.325 angstrom
                   Q00  =   0.264451

H          x = -1.660974  y =  0.816266  z =  0.589980 angstrom
           Maximum rank =  0   Radius =  0.325 angstrom
                   Q00  =   0.257868

H          x = -0.046974  y =  0.903266  z =  0.410980 angstrom
           Maximum rank =  0   Radius =  0.325 angstrom
                   Q00  =   0.281595

H          x = -1.541974  y =  0.844266  z =  3.005980 angstrom
           Maximum rank =  0   Radius =  0.325 angstrom
                   Q00  =   0.157136

H          x = -0.789974  y =  2.281266  z =  2.317980 angstrom
           Maximum rank =  0   Radius =  0.325 angstrom
                   Q00  =   0.160226

H          x =  0.231026  y =  0.975480  z =  2.958395 angstrom
           Maximum rank =  0   Radius =  0.325 angstrom
                   Q00  =   0.169566

C          x =  1.293026  y = -1.343734  z = -1.716020 angstrom
           Maximum rank =  0   Radius =  0.650 angstrom
                   Q00  =  -0.068440

O          x =  0.244026  y = -0.399734  z = -1.599020 angstrom
           Maximum rank =  0   Radius =  0.650 angstrom
                   Q00  =  -0.651811

H          x = -0.369974  y = -0.534734  z = -2.337020 angstrom
           Maximum rank =  0   Radius =  0.325 angstrom
                   Q00  =   0.420992

H          x =  0.929026  y = -2.262734  z = -2.172020 angstrom
           Maximum rank =  0   Radius =  0.325 angstrom
                   Q00  =   0.104259

H          x =  2.112916  y = -0.909974  z = -2.307311 angstrom
           Maximum rank =  0   Radius =  0.325 angstrom
                   Q00  =   0.108883

H          x =  1.694566  y = -1.565425  z = -0.716210 angstrom
           Maximum rank =  0   Radius =  0.325 angstrom
                   Q00  =   0.096360

Total multipoles referred to origin at
           x =   0.000000,  y =    0.000000,  z =    0.000000 angstrom
                   Q00  =   1.000000

Finished at 14:0:6 on 27 Apr 2020

  DMA results are available in the Python driver through the
	  variable('DMA DISTRIBUTED MULTIPOLES')
  and
	  variable('DMA TOTAL MULTIPOLES')
  commands.

    Psi4 stopped on: Monday, 27 April 2020 02:00PM
    Psi4 wall time for execution: 0:00:06.37

*** Psi4 exiting successfully. Buy a developer a beer!
