                               Psi4 1.3.2 release

  ==> Input File <==

--------------------------------------------------------------------------
import numpy as np
set {scf_type pk
basis cc-pvdz
d_convergence 10
gdma_switch   0
gdma_limit    0
gdma_origin   [ 0.0,  0.0,  0.0 ]
}
molecule test {
    units Angstrom
    0 1
    --
    0 1
    C               -0.422296982798891    -0.990625862235635     1.238255969950055
    C               -1.292296982798891    -2.138625862235635     1.692255969950055
    H               -0.932296982798891    -0.399625862235635     0.477255969950055
    H               -0.232296982798891    -0.331625862235635     2.088255969950056
    H                0.538703017201109    -1.348625862235635     0.864255969950055
    H               -2.245296982798892    -1.708625862235635     1.985255969950056
    H               -1.471506982798891    -2.831797562235634     0.857151969950055
    H               -0.880026982798891    -2.616207562235635     2.593339969950056
    C                0.987703017201109     1.838374137764365    -0.746744030049945
    C                0.735703017201109     1.277374137764365    -2.189744030049945
    H                2.052703017201108     1.816374137764365    -0.507744030049945
    H                0.636703017201109     2.869374137764365    -0.690744030049945
    H                0.444703017201108     1.256374137764365    -0.009744030049945
    H               -0.325296982798891     1.382374137764365    -2.413744030049945
    H                0.999953017201109     0.211167137764365    -2.247836030049945
    H                1.309033017201108     1.861628137764365    -2.924547030049944

}
e, wfn = energy('scf', return_wfn=True)
gdma(wfn)
dmavals = variable('DMA DISTRIBUTED MULTIPOLES')
charges = np.array(dmavals)
print(charges)
np.save('SSI-007VAL-040THR-1-dimer.npy', np.array(charges))--------------------------------------------------------------------------

*** tstart() called on ds3
*** at Tue Apr 28 09:55:57 2020

   => Loading Basis Set <=

    Name: CC-PVDZ
    Role: ORBITAL
    Keyword: BASIS
    atoms 1-2, 9-10  entry C          line   138 file /theoryfs2/ds/metcalf/miniconda2/envs/tf2gpu/share/psi4/basis/cc-pvdz.gbs
    atoms 3-8, 11-16 entry H          line    22 file /theoryfs2/ds/metcalf/miniconda2/envs/tf2gpu/share/psi4/basis/cc-pvdz.gbs

         ---------------------------------------------------------
                                   SCF
               by Justin Turney, Rob Parrish, Andy Simmonett
                          and Daniel G. A. Smith
                              RHF Reference
                        1 Threads,    500 MiB Core
         ---------------------------------------------------------

  ==> Geometry <==

    Molecular point group: c1
    Full point group: C1

    Geometry (in Angstrom), charge = 0, multiplicity = 1:

       Center              X                  Y                   Z               Mass
    ------------   -----------------  -----------------  -----------------  -----------------
         C           -0.422296982799    -0.990625862236     1.238255969950    12.000000000000
         C           -1.292296982799    -2.138625862236     1.692255969950    12.000000000000
         H           -0.932296982799    -0.399625862236     0.477255969950     1.007825032230
         H           -0.232296982799    -0.331625862236     2.088255969950     1.007825032230
         H            0.538703017201    -1.348625862236     0.864255969950     1.007825032230
         H           -2.245296982799    -1.708625862236     1.985255969950     1.007825032230
         H           -1.471506982799    -2.831797562236     0.857151969950     1.007825032230
         H           -0.880026982799    -2.616207562236     2.593339969950     1.007825032230
         C            0.987703017201     1.838374137764    -0.746744030050    12.000000000000
         C            0.735703017201     1.277374137764    -2.189744030050    12.000000000000
         H            2.052703017201     1.816374137764    -0.507744030050     1.007825032230
         H            0.636703017201     2.869374137764    -0.690744030050     1.007825032230
         H            0.444703017201     1.256374137764    -0.009744030050     1.007825032230
         H           -0.325296982799     1.382374137764    -2.413744030050     1.007825032230
         H            0.999953017201     0.211167137764    -2.247836030050     1.007825032230
         H            1.309033017201     1.861628137764    -2.924547030050     1.007825032230

  Running in c1 symmetry.

  Rotational constants: A =      0.50131  B =      0.04816  C =      0.04551 [cm^-1]
  Rotational constants: A =  15028.83125  B =   1443.71599  C =   1364.47217 [MHz]
  Nuclear repulsion =  121.855242857554288

  Charge       = 0
  Multiplicity = 1
  Electrons    = 36
  Nalpha       = 18
  Nbeta        = 18

  ==> Algorithm <==

  SCF Algorithm Type is PK.
  DIIS enabled.
  MOM disabled.
  Fractional occupation disabled.
  Guess Type is SAD.
  Energy threshold   = 1.00e-06
  Density threshold  = 1.00e-10
  Integral threshold = 0.00e+00

  ==> Primary Basis <==

  Basis Set: CC-PVDZ
    Blend: CC-PVDZ
    Number of shells: 60
    Number of basis function: 116
    Number of Cartesian functions: 120
    Spherical Harmonics?: true
    Max angular momentum: 2

  ==> Pre-Iterations <==

   -------------------------------------------------------
    Irrep   Nso     Nmo     Nalpha   Nbeta   Ndocc  Nsocc
   -------------------------------------------------------
     A        116     116       0       0       0       0
   -------------------------------------------------------
    Total     116     116      18      18      18       0
   -------------------------------------------------------

  ==> Integral Setup <==

  Using integral reordering PK algorithm.
  Sizing the integral batches needed.
  Building batch lookup table.
   Calculation information:
      Number of atoms:                  16
      Number of AO shells:              60
      Number of primitives:            148
      Number of atomic orbitals:       120
      Number of basis functions:       116

      Integral cutoff                 1.00e-12
      Number of threads:                 1

	Batch   1 pq = [       0,    6786] index = [             0,23028291] size =     23028291
  Task number: 3
  Buffer size: 11059200
  Buffer per thread: 2
  We computed 1414159 shell quartets total.
  Whereas there are 1675365 unique shell quartets.

  ==> DiskJK: Disk-Based J/K Matrices <==

    J tasked:                  Yes
    K tasked:                  Yes
    wK tasked:                  No
    Memory [MiB]:              375
    Schwarz Cutoff:          1E-12

    OpenMP threads:              1

  Minimum eigenvalue in the overlap matrix is 5.4803353892E-03.
  Using Symmetric Orthogonalization.

  SCF Guess: Superposition of Atomic Densities via on-the-fly atomic UHF.

  ==> Iterations <==

                        Total Energy        Delta E     RMS |[F,P]|

   @RHF iter SAD:  -157.32830373412099   -1.57328e+02   0.00000e+00
   @RHF iter   1:  -158.30746582325264   -9.79162e-01   4.17644e-03 DIIS
   @RHF iter   2:  -158.43931405204654   -1.31848e-01   1.76733e-03 DIIS
   @RHF iter   3:  -158.46206196574576   -2.27479e-02   3.48783e-04 DIIS
   @RHF iter   4:  -158.46388674500668   -1.82478e-03   3.96189e-05 DIIS
   @RHF iter   5:  -158.46391115401715   -2.44090e-05   7.84101e-06 DIIS
   @RHF iter   6:  -158.46391193916494   -7.85148e-07   1.94007e-06 DIIS
   @RHF iter   7:  -158.46391197431666   -3.51517e-08   3.20888e-07 DIIS
   @RHF iter   8:  -158.46391197554601   -1.22935e-09   4.72441e-08 DIIS
   @RHF iter   9:  -158.46391197558324   -3.72324e-11   1.11255e-08 DIIS
   @RHF iter  10:  -158.46391197558478   -1.53477e-12   3.38136e-09 DIIS
   @RHF iter  11:  -158.46391197558563   -8.52651e-13   8.87539e-10 DIIS
   @RHF iter  12:  -158.46391197558546    1.70530e-13   1.72013e-10 DIIS
   @RHF iter  13:  -158.46391197558557   -1.13687e-13   3.11590e-11 DIIS
  Energy and wave function converged.

  ==> Post-Iterations <==

    Orbital Energies [Eh]
    ---------------------

    Doubly Occupied:

       1A    -11.221667     2A    -11.218325     3A    -11.216975
       4A    -11.216710     5A     -1.024591     6A     -1.007226
       7A     -0.840896     8A     -0.834547     9A     -0.604702
      10A     -0.600466    11A     -0.591992    12A     -0.591282
      13A     -0.508804    14A     -0.489940    15A     -0.488522
      16A     -0.487001    17A     -0.484935    18A     -0.480670

    Virtual:

      19A      0.172674    20A      0.196128    21A      0.227637
      22A      0.236157    23A      0.246151    24A      0.256833
      25A      0.262555    26A      0.277602    27A      0.278661
      28A      0.288138    29A      0.306032    30A      0.336204
      31A      0.382531    32A      0.427251    33A      0.577024
      34A      0.595703    35A      0.599734    36A      0.604524
      37A      0.619386    38A      0.656232    39A      0.669272
      40A      0.700012    41A      0.712212    42A      0.741764
      43A      0.823819    44A      0.880049    45A      0.886660
      46A      0.891357    47A      0.892336    48A      0.895679
      49A      0.899147    50A      0.907274    51A      0.923650
      52A      0.926855    53A      0.933267    54A      0.938045
      55A      0.991119    56A      1.014645    57A      1.122371
      58A      1.124060    59A      1.126387    60A      1.140547
      61A      1.232461    62A      1.304610    63A      1.461291
      64A      1.469142    65A      1.481376    66A      1.483608
      67A      1.571177    68A      1.592543    69A      1.673129
      70A      1.682330    71A      1.692105    72A      1.700583
      73A      1.838702    74A      1.857640    75A      1.861142
      76A      1.873526    77A      1.885477    78A      1.914746
      79A      1.934314    80A      1.938350    81A      1.942296
      82A      1.945628    83A      1.948443    84A      1.958515
      85A      1.966304    86A      1.975843    87A      1.984478
      88A      2.055972    89A      2.094876    90A      2.100377
      91A      2.120918    92A      2.127277    93A      2.287044
      94A      2.307769    95A      2.309878    96A      2.335512
      97A      2.442771    98A      2.456543    99A      2.457427
     100A      2.479812   101A      2.556614   102A      2.559677
     103A      2.572651   104A      2.586224   105A      2.754725
     106A      2.763610   107A      2.782893   108A      2.804634
     109A      2.838593   110A      2.842571   111A      2.853297
     112A      2.868467   113A      2.935158   114A      2.945645
     115A      2.961108   116A      2.978340

    Final Occupation by Irrep:
              A
    DOCC [    18 ]

  @RHF Final Energy:  -158.46391197558557

   => Energetics <=

    Nuclear Repulsion Energy =            121.8552428575542876
    One-Electron Energy =                -452.8198058857150841
    Two-Electron Energy =                 172.5006510525752219
    Total Energy =                       -158.4639119755855745

Computation Completed

Properties will be evaluated at   0.000000,   0.000000,   0.000000 [a0]

Properties computed using the SCF density matrix

  Nuclear Dipole Moment: [e a0]
     X:    -0.0984      Y:     0.1507      Z:     0.0667

  Electronic Dipole Moment: [e a0]
     X:     0.0672      Y:    -0.1479      Z:    -0.0337

  Dipole Moment: [e a0]
     X:    -0.0311      Y:     0.0028      Z:     0.0330     Total:     0.0455

  Dipole Moment: [D]
     X:    -0.0792      Y:     0.0071      Z:     0.0839     Total:     0.1156

*** tstop() called on ds3 at Tue Apr 28 09:56:15 2020
Module time:
	user time   =       7.51 seconds =       0.13 minutes
	system time =       2.90 seconds =       0.05 minutes
	total time  =         18 seconds =       0.30 minutes
Total time:
	user time   =       7.51 seconds =       0.13 minutes
	system time =       2.90 seconds =       0.05 minutes
	total time  =         18 seconds =       0.30 minutes
                                     G D M A

                                 by Anthony Stone

                           version 2.2.06, 22 June 2011

               Distributed Multipoles from Gaussian wavefunctions

Starting at 9:56:15 on 28 Apr 2020

Using SCF density matrix from file ./SSI/SSI-007VAL-040THR-1-dimer.test.392.fchk

                         Distributed Multipole Analysis

Standard DMA

Positions and radii in angstrom
Multipole moments in atomic units, ea_0^k for rank k

C          x = -0.422297  y = -0.990626  z =  1.238256 angstrom
           Maximum rank =  0   Radius =  0.650 angstrom
                   Q00  =  -0.230641

C          x = -1.292297  y = -2.138626  z =  1.692256 angstrom
           Maximum rank =  0   Radius =  0.650 angstrom
                   Q00  =  -0.231186

H          x = -0.932297  y = -0.399626  z =  0.477256 angstrom
           Maximum rank =  0   Radius =  0.325 angstrom
                   Q00  =   0.074817

H          x = -0.232297  y = -0.331626  z =  2.088256 angstrom
           Maximum rank =  0   Radius =  0.325 angstrom
                   Q00  =   0.074416

H          x =  0.538703  y = -1.348626  z =  0.864256 angstrom
           Maximum rank =  0   Radius =  0.325 angstrom
                   Q00  =   0.078552

H          x = -2.245297  y = -1.708626  z =  1.985256 angstrom
           Maximum rank =  0   Radius =  0.325 angstrom
                   Q00  =   0.075046

H          x = -1.471507  y = -2.831798  z =  0.857152 angstrom
           Maximum rank =  0   Radius =  0.325 angstrom
                   Q00  =   0.080759

H          x = -0.880027  y = -2.616208  z =  2.593340 angstrom
           Maximum rank =  0   Radius =  0.325 angstrom
                   Q00  =   0.080975

C          x =  0.987703  y =  1.838374  z = -0.746744 angstrom
           Maximum rank =  0   Radius =  0.650 angstrom
                   Q00  =  -0.256887

C          x =  0.735703  y =  1.277374  z = -2.189744 angstrom
           Maximum rank =  0   Radius =  0.650 angstrom
                   Q00  =  -0.245321

H          x =  2.052703  y =  1.816374  z = -0.507744 angstrom
           Maximum rank =  0   Radius =  0.325 angstrom
                   Q00  =   0.081218

H          x =  0.636703  y =  2.869374  z = -0.690744 angstrom
           Maximum rank =  0   Radius =  0.325 angstrom
                   Q00  =   0.079739

H          x =  0.444703  y =  1.256374  z = -0.009744 angstrom
           Maximum rank =  0   Radius =  0.325 angstrom
                   Q00  =   0.092056

H          x = -0.325297  y =  1.382374  z = -2.413744 angstrom
           Maximum rank =  0   Radius =  0.325 angstrom
                   Q00  =   0.079808

H          x =  0.999953  y =  0.211167  z = -2.247836 angstrom
           Maximum rank =  0   Radius =  0.325 angstrom
                   Q00  =   0.082844

H          x =  1.309033  y =  1.861628  z = -2.924547 angstrom
           Maximum rank =  0   Radius =  0.325 angstrom
                   Q00  =   0.083806

Total multipoles referred to origin at
           x =   0.000000,  y =    0.000000,  z =    0.000000 angstrom
                   Q00  =  -0.000000

Finished at 9:56:15 on 28 Apr 2020

  DMA results are available in the Python driver through the
	  variable('DMA DISTRIBUTED MULTIPOLES')
  and
	  variable('DMA TOTAL MULTIPOLES')
  commands.

    Psi4 stopped on: Tuesday, 28 April 2020 09:56AM
    Psi4 wall time for execution: 0:00:18.63

*** Psi4 exiting successfully. Buy a developer a beer!
