                               Psi4 1.3.2 release

  ==> Input File <==

--------------------------------------------------------------------------
import numpy as np
set {scf_type pk
basis cc-pvdz
d_convergence 10
gdma_switch   0
gdma_limit    0
gdma_origin   [ 0.0,  0.0,  0.0 ]
}
molecule test {
    units Angstrom
    0 1
    --
    0 1
    C               -0.327389856733248    -0.837247288950299     2.525225492591069
    C                0.671610143266752     0.275752711049701     2.418225492591069
    C                1.544610143266752    -1.619247288950299     1.168225492591069
    C               -1.936389856733248    -3.032247288950298     1.535225492591069
    C               -0.537389856733248    -2.824247288950298     1.014225492591069
    O               -0.108389856733248    -3.553247288950299     0.125225492591069
    N                0.147610143266752    -1.812247288950299     1.533225492591069
    H               -0.298389856733248    -1.273247288950299     3.525225492591070
    H               -1.316389856733248    -0.445247288950299     2.294225492591070
    H                0.800610143266752     0.789752711049701     3.371225492591069
    H                0.349610143266752     0.983752711049701     1.657225492591069
    H                1.666610143266752    -1.467247288950299     0.096225492591069
    H               -2.381389856733248    -2.092247288950299     1.852225492591069
    H                1.602280143266752    -0.212151288950299     2.092956492591069
    H                1.854340143266752    -0.736576288950299     1.746978492591069
    H                2.089800143266752    -2.503672288950299     1.529549492591069
    H               -2.629377856733248    -3.478011288950299     0.806485492591069
    H               -1.857893856733248    -3.689285288950299     2.413940492591069
    C                2.685610143266751     1.541752711049701    -2.514774507408930
    C               -0.688389856733248     0.870752711049701    -0.976774507408931
    C                0.416610143266752     1.727752711049701    -1.228774507408931
    C                1.363610143266752     1.000752711049701    -2.040774507408931
    C                0.832610143266752    -0.224247288950299    -2.247774507408931
    C               -1.803389856733248     1.276752711049701    -0.214774507408931
    C               -1.802389856733248     2.552752711049702     0.301225492591069
    C               -0.731389856733248     3.438752711049702     0.073225492591069
    C                0.388610143266752     3.034752711049702    -0.695774507408931
    N               -0.411389856733248    -0.313247288950299    -1.612774507408931
    H               -2.630389856733248     0.606752711049701    -0.036774507408931
    H               -2.624389856733248     2.886752711049702     0.898225492591069
    H               -1.021389856733248    -1.127247288950299    -1.609774507408931
    H               -0.753389856733248     4.429752711049701     0.503225492591069
    H                1.301610143266752    -1.013247288950299    -2.823774507408931
    H                1.214610143266752     3.709752711049702    -0.865774507408931
    H                3.401610143266752     0.723752711049701    -2.586774507408931
    H                3.061610143266752     2.226752711049702    -1.752774507408931
    H                2.644210143266752     2.084888711049701    -3.470436507408931

}
e, wfn = energy('scf', return_wfn=True)
gdma(wfn)
dmavals = variable('DMA DISTRIBUTED MULTIPOLES')
charges = np.array(dmavals)
print(charges)
np.save('SSI-105PRO-181TRP-1-dimer.npy', np.array(charges))--------------------------------------------------------------------------

*** tstart() called on ds3
*** at Mon Apr 27 22:54:40 2020

   => Loading Basis Set <=

    Name: CC-PVDZ
    Role: ORBITAL
    Keyword: BASIS
    atoms 1-5, 19-27  entry C          line   138 file /theoryfs2/ds/metcalf/miniconda2/envs/tf2gpu/share/psi4/basis/cc-pvdz.gbs
    atoms 6           entry O          line   198 file /theoryfs2/ds/metcalf/miniconda2/envs/tf2gpu/share/psi4/basis/cc-pvdz.gbs
    atoms 7, 28       entry N          line   168 file /theoryfs2/ds/metcalf/miniconda2/envs/tf2gpu/share/psi4/basis/cc-pvdz.gbs
    atoms 8-18, 29-37 entry H          line    22 file /theoryfs2/ds/metcalf/miniconda2/envs/tf2gpu/share/psi4/basis/cc-pvdz.gbs

         ---------------------------------------------------------
                                   SCF
               by Justin Turney, Rob Parrish, Andy Simmonett
                          and Daniel G. A. Smith
                              RHF Reference
                        1 Threads,    500 MiB Core
         ---------------------------------------------------------

  ==> Geometry <==

    Molecular point group: c1
    Full point group: C1

    Geometry (in Angstrom), charge = 0, multiplicity = 1:

       Center              X                  Y                   Z               Mass
    ------------   -----------------  -----------------  -----------------  -----------------
         C           -0.327389856733    -0.837247288950     2.525225492591    12.000000000000
         C            0.671610143267     0.275752711050     2.418225492591    12.000000000000
         C            1.544610143267    -1.619247288950     1.168225492591    12.000000000000
         C           -1.936389856733    -3.032247288950     1.535225492591    12.000000000000
         C           -0.537389856733    -2.824247288950     1.014225492591    12.000000000000
         O           -0.108389856733    -3.553247288950     0.125225492591    15.994914619570
         N            0.147610143267    -1.812247288950     1.533225492591    14.003074004430
         H           -0.298389856733    -1.273247288950     3.525225492591     1.007825032230
         H           -1.316389856733    -0.445247288950     2.294225492591     1.007825032230
         H            0.800610143267     0.789752711050     3.371225492591     1.007825032230
         H            0.349610143267     0.983752711050     1.657225492591     1.007825032230
         H            1.666610143267    -1.467247288950     0.096225492591     1.007825032230
         H           -2.381389856733    -2.092247288950     1.852225492591     1.007825032230
         H            1.602280143267    -0.212151288950     2.092956492591     1.007825032230
         H            1.854340143267    -0.736576288950     1.746978492591     1.007825032230
         H            2.089800143267    -2.503672288950     1.529549492591     1.007825032230
         H           -2.629377856733    -3.478011288950     0.806485492591     1.007825032230
         H           -1.857893856733    -3.689285288950     2.413940492591     1.007825032230
         C            2.685610143267     1.541752711050    -2.514774507409    12.000000000000
         C           -0.688389856733     0.870752711050    -0.976774507409    12.000000000000
         C            0.416610143267     1.727752711050    -1.228774507409    12.000000000000
         C            1.363610143267     1.000752711050    -2.040774507409    12.000000000000
         C            0.832610143267    -0.224247288950    -2.247774507409    12.000000000000
         C           -1.803389856733     1.276752711050    -0.214774507409    12.000000000000
         C           -1.802389856733     2.552752711050     0.301225492591    12.000000000000
         C           -0.731389856733     3.438752711050     0.073225492591    12.000000000000
         C            0.388610143267     3.034752711050    -0.695774507409    12.000000000000
         N           -0.411389856733    -0.313247288950    -1.612774507409    14.003074004430
         H           -2.630389856733     0.606752711050    -0.036774507409     1.007825032230
         H           -2.624389856733     2.886752711050     0.898225492591     1.007825032230
         H           -1.021389856733    -1.127247288950    -1.609774507409     1.007825032230
         H           -0.753389856733     4.429752711050     0.503225492591     1.007825032230
         H            1.301610143267    -1.013247288950    -2.823774507409     1.007825032230
         H            1.214610143267     3.709752711050    -0.865774507409     1.007825032230
         H            3.401610143267     0.723752711050    -2.586774507409     1.007825032230
         H            3.061610143267     2.226752711050    -1.752774507409     1.007825032230
         H            2.644210143267     2.084888711050    -3.470436507409     1.007825032230

  Running in c1 symmetry.

  Rotational constants: A =      0.02171  B =      0.01144  C =      0.00974 [cm^-1]
  Rotational constants: A =    650.71964  B =    343.09989  C =    292.12006 [MHz]
  Nuclear repulsion = 1240.979147627261455

  Charge       = 0
  Multiplicity = 1
  Electrons    = 126
  Nalpha       = 63
  Nbeta        = 63

  ==> Algorithm <==

  SCF Algorithm Type is PK.
  DIIS enabled.
  MOM disabled.
  Fractional occupation disabled.
  Guess Type is SAD.
  Energy threshold   = 1.00e-06
  Density threshold  = 1.00e-10
  Integral threshold = 0.00e+00

  ==> Primary Basis <==

  Basis Set: CC-PVDZ
    Blend: CC-PVDZ
    Number of shells: 162
    Number of basis function: 338
    Number of Cartesian functions: 355
    Spherical Harmonics?: true
    Max angular momentum: 2

  ==> Pre-Iterations <==

   -------------------------------------------------------
    Irrep   Nso     Nmo     Nalpha   Nbeta   Ndocc  Nsocc
   -------------------------------------------------------
     A        338     338       0       0       0       0
   -------------------------------------------------------
    Total     338     338      63      63      63       0
   -------------------------------------------------------

  ==> Integral Setup <==

  Using integral reordering PK algorithm.
  Sizing the integral batches needed.
  Building batch lookup table.
   Calculation information:
      Number of atoms:                  37
      Number of AO shells:             162
      Number of primitives:            474
      Number of atomic orbitals:       355
      Number of basis functions:       338

      Integral cutoff                 1.00e-12
      Number of threads:                 1

	Batch   1 pq = [       0,    9405] index = [             0,44231715] size =     44231715
	Batch   2 pq = [    9405,   13301] index = [      44231715,88464951] size =     44233236
	Batch   3 pq = [   13301,   16290] index = [      88464951,132690195] size =     44225244
	Batch   4 pq = [   16290,   18810] index = [     132690195,176917455] size =     44227260
	Batch   5 pq = [   18810,   21030] index = [     176917455,221140965] size =     44223510
	Batch   6 pq = [   21030,   23037] index = [     221140965,265363203] size =     44222238
	Batch   7 pq = [   23037,   24883] index = [     265363203,309594286] size =     44231083
	Batch   8 pq = [   24883,   26601] index = [     309594286,353819901] size =     44225615
	Batch   9 pq = [   26601,   28214] index = [     353819901,398029005] size =     44209104
	Batch  10 pq = [   28214,   29740] index = [     398029005,442248670] size =     44219665
	Batch  11 pq = [   29740,   31191] index = [     442248670,486454836] size =     44206166
	Batch  12 pq = [   31191,   32578] index = [     486454836,530679331] size =     44224495
	Batch  13 pq = [   32578,   33908] index = [     530679331,574893186] size =     44213855
	Batch  14 pq = [   33908,   35188] index = [     574893186,619115266] size =     44222080
	Batch  15 pq = [   35188,   36423] index = [     619115266,663335676] size =     44220410
	Batch  16 pq = [   36423,   37617] index = [     663335676,707538153] size =     44202477
	Batch  17 pq = [   37617,   38775] index = [     707538153,751769700] size =     44231547
	Batch  18 pq = [   38775,   39899] index = [     751769700,795985050] size =     44215350
	Batch  19 pq = [   39899,   40992] index = [     795985050,840192528] size =     44207478
	Batch  20 pq = [   40992,   42057] index = [     840192528,884416653] size =     44224125
	Batch  21 pq = [   42057,   43095] index = [     884416653,928611060] size =     44194407
	Batch  22 pq = [   43095,   44109] index = [     928611060,972823995] size =     44212935
	Batch  23 pq = [   44109,   45100] index = [     972823995,1017027550] size =     44203555
	Batch  24 pq = [   45100,   46070] index = [    1017027550,1061245485] size =     44217935
	Batch  25 pq = [   46070,   47020] index = [    1061245485,1105463710] size =     44218225
	Batch  26 pq = [   47020,   47951] index = [    1105463710,1149673176] size =     44209466
	Batch  27 pq = [   47951,   48864] index = [    1149673176,1193869680] size =     44196504
	Batch  28 pq = [   48864,   49761] index = [    1193869680,1238103441] size =     44233761
	Batch  29 pq = [   49761,   50642] index = [    1238103441,1282331403] size =     44227962
	Batch  30 pq = [   50642,   51508] index = [    1282331403,1326562786] size =     44231383
	Batch  31 pq = [   51508,   52359] index = [    1326562786,1370758620] size =     44195834
	Batch  32 pq = [   52359,   53197] index = [    1370758620,1414987003] size =     44228383
	Batch  33 pq = [   53197,   54022] index = [    1414987003,1459215253] size =     44228250
	Batch  34 pq = [   54022,   54834] index = [    1459215253,1503411195] size =     44195942
	Batch  35 pq = [   54834,   55634] index = [    1503411195,1547598795] size =     44187600
	Batch  36 pq = [   55634,   56423] index = [    1547598795,1591805676] size =     44206881
	Batch  37 pq = [   56423,   57201] index = [    1591805676,1636005801] size =     44200125
	Batch  38 pq = [   57201,   57291] index = [    1636005801,1641157986] size =      5152185
  Task number: 149
  Buffer size: 11059200
  Buffer per thread: 2
  We computed 122130715 shell quartets total.
  Whereas there are 87166206 unique shell quartets.
    40.11 percent of shell quartets recomputed by reordering.

  ==> DiskJK: Disk-Based J/K Matrices <==

    J tasked:                  Yes
    K tasked:                  Yes
    wK tasked:                  No
    Memory [MiB]:              375
    Schwarz Cutoff:          1E-12

    OpenMP threads:              1

  Minimum eigenvalue in the overlap matrix is 2.5090959212E-04.
  Using Symmetric Orthogonalization.

  SCF Guess: Superposition of Atomic Densities via on-the-fly atomic UHF.

  ==> Iterations <==

                        Total Energy        Delta E     RMS |[F,P]|

   @RHF iter SAD:  -725.05510256277137   -7.25055e+02   0.00000e+00
   @RHF iter   1:  -725.03175623607922    2.33463e-02   2.36368e-03 DIIS
   @RHF iter   2:  -725.35244521738036   -3.20689e-01   1.23121e-03 DIIS
   @RHF iter   3:  -725.42484694898303   -7.24017e-02   3.22568e-04 DIIS
   @RHF iter   4:  -725.43191250469363   -7.06556e-03   1.23154e-04 DIIS
   @RHF iter   5:  -725.43294818773347   -1.03568e-03   2.24274e-05 DIIS
   @RHF iter   6:  -725.43301814329482   -6.99556e-05   1.18439e-05 DIIS
   @RHF iter   7:  -725.43303543494562   -1.72917e-05   4.25688e-06 DIIS
   @RHF iter   8:  -725.43303910788325   -3.67294e-06   1.64670e-06 DIIS
   @RHF iter   9:  -725.43303966347969   -5.55596e-07   6.93932e-07 DIIS
   @RHF iter  10:  -725.43303975389074   -9.04110e-08   2.77707e-07 DIIS
   @RHF iter  11:  -725.43303977605274   -2.21620e-08   1.31685e-07 DIIS
   @RHF iter  12:  -725.43303978118104   -5.12830e-09   6.42515e-08 DIIS
   @RHF iter  13:  -725.43303978228801   -1.10697e-09   2.41479e-08 DIIS
   @RHF iter  14:  -725.43303978246502   -1.77010e-10   9.41636e-09 DIIS
   @RHF iter  15:  -725.43303978247195   -6.93490e-12   3.12573e-09 DIIS
   @RHF iter  16:  -725.43303978248275   -1.08002e-11   1.51264e-09 DIIS
   @RHF iter  17:  -725.43303978247729    5.45697e-12   5.77901e-10 DIIS
   @RHF iter  18:  -725.43303978247582    1.47793e-12   2.16598e-10 DIIS
   @RHF iter  19:  -725.43303978248355   -7.73070e-12   1.14883e-10 DIIS
   @RHF iter  20:  -725.43303978247968    3.86535e-12   5.18421e-11 DIIS
  Energy and wave function converged.

  ==> Post-Iterations <==

    Orbital Energies [Eh]
    ---------------------

    Doubly Occupied:

       1A    -20.496646     2A    -15.601936     3A    -15.578888
       4A    -11.336609     5A    -11.272055     6A    -11.270514
       7A    -11.267270     8A    -11.242656     9A    -11.238282
      10A    -11.238030    11A    -11.236383    12A    -11.234422
      13A    -11.231217    14A    -11.230824    15A    -11.227346
      16A    -11.222784    17A    -11.205087    18A     -1.365197
      19A     -1.289522    20A     -1.254042    21A     -1.128439
      22A     -1.076778    23A     -1.063203    24A     -1.006956
      25A     -0.997959    26A     -0.989814    27A     -0.965316
      28A     -0.935848    29A     -0.849159    30A     -0.842509
      31A     -0.806116    32A     -0.753985    33A     -0.747566
      34A     -0.722815    35A     -0.719710    36A     -0.672272
      37A     -0.666421    38A     -0.654579    39A     -0.647299
      40A     -0.617362    41A     -0.606245    42A     -0.595152
      43A     -0.592330    44A     -0.591700    45A     -0.575460
      46A     -0.571226    47A     -0.554396    48A     -0.545318
      49A     -0.541182    50A     -0.531934    51A     -0.531480
      52A     -0.523989    53A     -0.512602    54A     -0.501347
      55A     -0.485625    56A     -0.475254    57A     -0.460565
      58A     -0.400346    59A     -0.387674    60A     -0.378418
      61A     -0.361878    62A     -0.296563    63A     -0.284161

    Virtual:

      64A      0.116575    65A      0.156943    66A      0.159678
      67A      0.181876    68A      0.191296    69A      0.196909
      70A      0.208237    71A      0.211908    72A      0.219265
      73A      0.221909    74A      0.230307    75A      0.243831
      76A      0.248458    77A      0.259077    78A      0.260360
      79A      0.266061    80A      0.275478    81A      0.284783
      82A      0.288529    83A      0.297853    84A      0.303095
      85A      0.316708    86A      0.337228    87A      0.343647
      88A      0.355966    89A      0.371859    90A      0.377736
      91A      0.392904    92A      0.398253    93A      0.412613
      94A      0.425003    95A      0.434348    96A      0.461208
      97A      0.468472    98A      0.473887    99A      0.490447
     100A      0.499604   101A      0.520889   102A      0.537881
     103A      0.549735   104A      0.573215   105A      0.588032
     106A      0.601663   107A      0.625312   108A      0.631387
     109A      0.637835   110A      0.649666   111A      0.655930
     112A      0.672144   113A      0.682404   114A      0.689681
     115A      0.697806   116A      0.707009   117A      0.721912
     118A      0.723164   119A      0.729583   120A      0.733983
     121A      0.742440   122A      0.746604   123A      0.752666
     124A      0.763158   125A      0.767560   126A      0.773132
     127A      0.785358   128A      0.795037   129A      0.804967
     130A      0.812230   131A      0.837874   132A      0.844015
     133A      0.850412   134A      0.856815   135A      0.858372
     136A      0.866087   137A      0.870829   138A      0.873594
     139A      0.879033   140A      0.881278   141A      0.885567
     142A      0.897693   143A      0.899881   144A      0.909201
     145A      0.915717   146A      0.923607   147A      0.937760
     148A      0.947007   149A      0.949114   150A      0.951889
     151A      0.960540   152A      0.962974   153A      0.970133
     154A      0.988155   155A      0.995315   156A      1.008856
     157A      1.018981   158A      1.031512   159A      1.039448
     160A      1.050569   161A      1.067218   162A      1.085455
     163A      1.097227   164A      1.099228   165A      1.113087
     166A      1.122481   167A      1.137330   168A      1.151705
     169A      1.152334   170A      1.163313   171A      1.184614
     172A      1.199312   173A      1.207100   174A      1.223828
     175A      1.227969   176A      1.235327   177A      1.243165
     178A      1.258967   179A      1.261781   180A      1.273077
     181A      1.282980   182A      1.292205   183A      1.300784
     184A      1.319369   185A      1.336032   186A      1.363950
     187A      1.364531   188A      1.372427   189A      1.390584
     190A      1.399277   191A      1.419102   192A      1.434700
     193A      1.450490   194A      1.464691   195A      1.476521
     196A      1.502990   197A      1.510015   198A      1.537629
     199A      1.553473   200A      1.554278   201A      1.571727
     202A      1.590650   203A      1.596961   204A      1.612627
     205A      1.630290   206A      1.639355   207A      1.647416
     208A      1.664634   209A      1.675290   210A      1.685332
     211A      1.693690   212A      1.702321   213A      1.718865
     214A      1.738605   215A      1.745872   216A      1.758102
     217A      1.766045   218A      1.783896   219A      1.793369
     220A      1.804697   221A      1.824976   222A      1.830842
     223A      1.847383   224A      1.852178   225A      1.877435
     226A      1.880020   227A      1.885536   228A      1.896126
     229A      1.903123   230A      1.908750   231A      1.912123
     232A      1.916204   233A      1.922553   234A      1.927153
     235A      1.932746   236A      1.938335   237A      1.945566
     238A      1.954046   239A      1.969756   240A      1.978392
     241A      1.982379   242A      1.989081   243A      1.998700
     244A      2.005739   245A      2.010995   246A      2.017087
     247A      2.030050   248A      2.038648   249A      2.043633
     250A      2.072086   251A      2.080903   252A      2.086726
     253A      2.089411   254A      2.095504   255A      2.101893
     256A      2.106210   257A      2.118022   258A      2.124804
     259A      2.139404   260A      2.151092   261A      2.160982
     262A      2.163117   263A      2.171613   264A      2.183751
     265A      2.194830   266A      2.215845   267A      2.224623
     268A      2.246587   269A      2.260813   270A      2.282293
     271A      2.289457   272A      2.300779   273A      2.308456
     274A      2.317594   275A      2.319133   276A      2.329230
     277A      2.342892   278A      2.366650   279A      2.383223
     280A      2.397822   281A      2.408691   282A      2.436694
     283A      2.440382   284A      2.457284   285A      2.477573
     286A      2.495854   287A      2.519859   288A      2.529035
     289A      2.548908   290A      2.569157   291A      2.592664
     292A      2.607209   293A      2.617244   294A      2.623323
     295A      2.629097   296A      2.657147   297A      2.675050
     298A      2.701381   299A      2.723711   300A      2.745647
     301A      2.760579   302A      2.774177   303A      2.776692
     304A      2.786159   305A      2.792465   306A      2.801375
     307A      2.807833   308A      2.817673   309A      2.834461
     310A      2.843884   311A      2.849511   312A      2.869287
     313A      2.880738   314A      2.892471   315A      2.917123
     316A      2.962548   317A      2.969753   318A      3.000824
     319A      3.022023   320A      3.039810   321A      3.052959
     322A      3.064266   323A      3.085623   324A      3.103751
     325A      3.112033   326A      3.180618   327A      3.190439
     328A      3.241216   329A      3.280844   330A      3.350560
     331A      3.358130   332A      3.413442   333A      3.532481
     334A      3.731531   335A      3.851364   336A      3.917491
     337A      3.923471   338A      4.979186

    Final Occupation by Irrep:
              A
    DOCC [    63 ]

  @RHF Final Energy:  -725.43303978247968

   => Energetics <=

    Nuclear Repulsion Energy =           1240.9791476272614545
    One-Electron Energy =               -3450.4070501799378690
    Two-Electron Energy =                1483.9948627701969599
    Total Energy =                       -725.4330397824796819

Computation Completed

Properties will be evaluated at   0.000000,   0.000000,   0.000000 [a0]

Properties computed using the SCF density matrix

  Nuclear Dipole Moment: [e a0]
     X:     4.1944      Y:     0.3676      Z:     9.0396

  Electronic Dipole Moment: [e a0]
     X:    -4.3457      Y:     0.2946      Z:    -8.2050

  Dipole Moment: [e a0]
     X:    -0.1513      Y:     0.6622      Z:     0.8346     Total:     1.0760

  Dipole Moment: [D]
     X:    -0.3845      Y:     1.6831      Z:     2.1213     Total:     2.7350

*** tstop() called on ds3 at Mon Apr 27 23:22:39 2020
Module time:
	user time   =    1181.54 seconds =      19.69 minutes
	system time =     329.52 seconds =       5.49 minutes
	total time  =       1679 seconds =      27.98 minutes
Total time:
	user time   =    1181.54 seconds =      19.69 minutes
	system time =     329.52 seconds =       5.49 minutes
	total time  =       1679 seconds =      27.98 minutes
                                     G D M A

                                 by Anthony Stone

                           version 2.2.06, 22 June 2011

               Distributed Multipoles from Gaussian wavefunctions

Starting at 23:22:39 on 27 Apr 2020

Using SCF density matrix from file ./SSI/SSI-105PRO-181TRP-1-dimer.test.31974.fchk

                         Distributed Multipole Analysis

Standard DMA

Positions and radii in angstrom
Multipole moments in atomic units, ea_0^k for rank k

C          x = -0.327390  y = -0.837247  z =  2.525225 angstrom
           Maximum rank =  0   Radius =  0.650 angstrom
                   Q00  =  -0.005483

C          x =  0.671610  y =  0.275753  z =  2.418225 angstrom
           Maximum rank =  0   Radius =  0.650 angstrom
                   Q00  =  -0.228044

C          x =  1.544610  y = -1.619247  z =  1.168225 angstrom
           Maximum rank =  0   Radius =  0.650 angstrom
                   Q00  =  -0.103788

C          x = -1.936390  y = -3.032247  z =  1.535225 angstrom
           Maximum rank =  0   Radius =  0.650 angstrom
                   Q00  =  -0.271225

C          x = -0.537390  y = -2.824247  z =  1.014225 angstrom
           Maximum rank =  0   Radius =  0.650 angstrom
                   Q00  =   0.749368

O          x = -0.108390  y = -3.553247  z =  0.125225 angstrom
           Maximum rank =  0   Radius =  0.650 angstrom
                   Q00  =  -0.794987

N          x =  0.147610  y = -1.812247  z =  1.533225 angstrom
           Maximum rank =  0   Radius =  0.650 angstrom
                   Q00  =  -0.452527

H          x = -0.298390  y = -1.273247  z =  3.525225 angstrom
           Maximum rank =  0   Radius =  0.325 angstrom
                   Q00  =   0.053477

H          x = -1.316390  y = -0.445247  z =  2.294225 angstrom
           Maximum rank =  0   Radius =  0.325 angstrom
                   Q00  =   0.087443

H          x =  0.800610  y =  0.789753  z =  3.371225 angstrom
           Maximum rank =  0   Radius =  0.325 angstrom
                   Q00  =   0.082626

H          x =  0.349610  y =  0.983753  z =  1.657225 angstrom
           Maximum rank =  0   Radius =  0.325 angstrom
                   Q00  =   0.121494

H          x =  1.666610  y = -1.467247  z =  0.096225 angstrom
           Maximum rank =  0   Radius =  0.325 angstrom
                   Q00  =   0.123940

H          x = -2.381390  y = -2.092247  z =  1.852225 angstrom
           Maximum rank =  0   Radius =  0.325 angstrom
                   Q00  =   0.084462

H          x =  1.602280  y = -0.212151  z =  2.092956 angstrom
           Maximum rank =  0   Radius =  0.325 angstrom
                   Q00  =   0.091710

H          x =  1.854340  y = -0.736576  z =  1.746978 angstrom
           Maximum rank =  0   Radius =  0.325 angstrom
                   Q00  =   0.119318

H          x =  2.089800  y = -2.503672  z =  1.529549 angstrom
           Maximum rank =  0   Radius =  0.325 angstrom
                   Q00  =   0.085684

H          x = -2.629378  y = -3.478011  z =  0.806485 angstrom
           Maximum rank =  0   Radius =  0.325 angstrom
                   Q00  =   0.122682

H          x = -1.857894  y = -3.689285  z =  2.413940 angstrom
           Maximum rank =  0   Radius =  0.325 angstrom
                   Q00  =   0.125001

C          x =  2.685610  y =  1.541753  z = -2.514775 angstrom
           Maximum rank =  0   Radius =  0.650 angstrom
                   Q00  =  -0.216070

C          x = -0.688390  y =  0.870753  z = -0.976775 angstrom
           Maximum rank =  0   Radius =  0.650 angstrom
                   Q00  =   0.270193

C          x =  0.416610  y =  1.727753  z = -1.228775 angstrom
           Maximum rank =  0   Radius =  0.650 angstrom
                   Q00  =  -0.070366

C          x =  1.363610  y =  1.000753  z = -2.040775 angstrom
           Maximum rank =  0   Radius =  0.650 angstrom
                   Q00  =  -0.117407

C          x =  0.832610  y = -0.224247  z = -2.247775 angstrom
           Maximum rank =  0   Radius =  0.650 angstrom
                   Q00  =   0.087474

C          x = -1.803390  y =  1.276753  z = -0.214775 angstrom
           Maximum rank =  0   Radius =  0.650 angstrom
                   Q00  =  -0.127203

C          x = -1.802390  y =  2.552753  z =  0.301225 angstrom
           Maximum rank =  0   Radius =  0.650 angstrom
                   Q00  =  -0.028610

C          x = -0.731390  y =  3.438753  z =  0.073225 angstrom
           Maximum rank =  0   Radius =  0.650 angstrom
                   Q00  =  -0.108272

C          x =  0.388610  y =  3.034753  z = -0.695775 angstrom
           Maximum rank =  0   Radius =  0.650 angstrom
                   Q00  =  -0.098154

N          x = -0.411390  y = -0.313247  z = -1.612775 angstrom
           Maximum rank =  0   Radius =  0.650 angstrom
                   Q00  =  -0.506388

H          x = -2.630390  y =  0.606753  z = -0.036775 angstrom
           Maximum rank =  0   Radius =  0.325 angstrom
                   Q00  =   0.068536

H          x = -2.624390  y =  2.886753  z =  0.898225 angstrom
           Maximum rank =  0   Radius =  0.325 angstrom
                   Q00  =   0.065269

H          x = -1.021390  y = -1.127247  z = -1.609775 angstrom
           Maximum rank =  0   Radius =  0.325 angstrom
                   Q00  =   0.231514

H          x = -0.753390  y =  4.429753  z =  0.503225 angstrom
           Maximum rank =  0   Radius =  0.325 angstrom
                   Q00  =   0.064978

H          x =  1.301610  y = -1.013247  z = -2.823775 angstrom
           Maximum rank =  0   Radius =  0.325 angstrom
                   Q00  =   0.106790

H          x =  1.214610  y =  3.709753  z = -0.865775 angstrom
           Maximum rank =  0   Radius =  0.325 angstrom
                   Q00  =   0.075846

H          x =  3.401610  y =  0.723753  z = -2.586775 angstrom
           Maximum rank =  0   Radius =  0.325 angstrom
                   Q00  =   0.106955

H          x =  3.061610  y =  2.226753  z = -1.752775 angstrom
           Maximum rank =  0   Radius =  0.325 angstrom
                   Q00  =   0.099720

H          x =  2.644210  y =  2.084889  z = -3.470437 angstrom
           Maximum rank =  0   Radius =  0.325 angstrom
                   Q00  =   0.104044

Total multipoles referred to origin at
           x =   0.000000,  y =    0.000000,  z =    0.000000 angstrom
                   Q00  =  -0.000000

Finished at 23:22:39 on 27 Apr 2020

  DMA results are available in the Python driver through the
	  variable('DMA DISTRIBUTED MULTIPOLES')
  and
	  variable('DMA TOTAL MULTIPOLES')
  commands.

    Psi4 stopped on: Monday, 27 April 2020 11:22PM
    Psi4 wall time for execution: 0:27:59.04

*** Psi4 exiting successfully. Buy a developer a beer!
