                               Psi4 1.3.2 release

  ==> Input File <==

--------------------------------------------------------------------------
import numpy as np
set {scf_type pk
basis cc-pvdz
d_convergence 10
gdma_switch   0
gdma_limit    0
gdma_origin   [ 0.0,  0.0,  0.0 ]
}
molecule test {
    units Angstrom
    0 1
    --
    0 1
    C               -0.857733016419951     0.089214728055794     1.819758156373276
    C               -1.484733016419951    -1.280785271944206     2.034758156373276
    H                0.230266983580049     0.016214728055794     1.835758156373277
    H               -1.179733016419951     0.493214728055794     0.860758156373276
    H               -1.189733016419951     0.769214728055794     2.601758156373276
    H               -2.570733016419951    -1.166785271944206     2.003758156373276
    H               -1.189233016419951    -1.669995271944206     3.020258156373277
    H               -1.183763016419951    -1.980895271944206     1.241458156373276
    C                0.517266983580049     0.364214728055794    -1.595241843626723
    C                1.829266983580049     0.826214728055794    -2.257241843626724
    H                0.090266983580049     1.177214728055794    -1.007241843626724
    H               -0.195733016419951     0.066214728055794    -2.364241843626723
    H                0.714266983580049    -0.490785271944206    -0.948241843626724
    H                2.169266983580049     0.029214728055794    -2.920241843626724
    H                2.604456983580049     1.031074728055794    -1.504141843626724
    H                1.651966983580049     1.739684728055794    -2.843841843626724

}
e, wfn = energy('scf', return_wfn=True)
gdma(wfn)
dmavals = variable('DMA DISTRIBUTED MULTIPOLES')
charges = np.array(dmavals)
print(charges)
np.save('SSI-124ALA-156THR-1-dimer.npy', np.array(charges))--------------------------------------------------------------------------

*** tstart() called on ds3
*** at Tue Apr 28 13:12:25 2020

   => Loading Basis Set <=

    Name: CC-PVDZ
    Role: ORBITAL
    Keyword: BASIS
    atoms 1-2, 9-10  entry C          line   138 file /theoryfs2/ds/metcalf/miniconda2/envs/tf2gpu/share/psi4/basis/cc-pvdz.gbs
    atoms 3-8, 11-16 entry H          line    22 file /theoryfs2/ds/metcalf/miniconda2/envs/tf2gpu/share/psi4/basis/cc-pvdz.gbs

         ---------------------------------------------------------
                                   SCF
               by Justin Turney, Rob Parrish, Andy Simmonett
                          and Daniel G. A. Smith
                              RHF Reference
                        1 Threads,    500 MiB Core
         ---------------------------------------------------------

  ==> Geometry <==

    Molecular point group: c1
    Full point group: C1

    Geometry (in Angstrom), charge = 0, multiplicity = 1:

       Center              X                  Y                   Z               Mass
    ------------   -----------------  -----------------  -----------------  -----------------
         C           -0.857733016420     0.089214728056     1.819758156373    12.000000000000
         C           -1.484733016420    -1.280785271944     2.034758156373    12.000000000000
         H            0.230266983580     0.016214728056     1.835758156373     1.007825032230
         H           -1.179733016420     0.493214728056     0.860758156373     1.007825032230
         H           -1.189733016420     0.769214728056     2.601758156373     1.007825032230
         H           -2.570733016420    -1.166785271944     2.003758156373     1.007825032230
         H           -1.189233016420    -1.669995271944     3.020258156373     1.007825032230
         H           -1.183763016420    -1.980895271944     1.241458156373     1.007825032230
         C            0.517266983580     0.364214728056    -1.595241843627    12.000000000000
         C            1.829266983580     0.826214728056    -2.257241843627    12.000000000000
         H            0.090266983580     1.177214728056    -1.007241843627     1.007825032230
         H           -0.195733016420     0.066214728056    -2.364241843627     1.007825032230
         H            0.714266983580    -0.490785271944    -0.948241843627     1.007825032230
         H            2.169266983580     0.029214728056    -2.920241843627     1.007825032230
         H            2.604456983580     1.031074728056    -1.504141843627     1.007825032230
         H            1.651966983580     1.739684728056    -2.843841843627     1.007825032230

  Running in c1 symmetry.

  Rotational constants: A =      0.56318  B =      0.04638  C =      0.04508 [cm^-1]
  Rotational constants: A =  16883.58315  B =   1390.53716  C =   1351.38267 [MHz]
  Nuclear repulsion =  121.763392577398079

  Charge       = 0
  Multiplicity = 1
  Electrons    = 36
  Nalpha       = 18
  Nbeta        = 18

  ==> Algorithm <==

  SCF Algorithm Type is PK.
  DIIS enabled.
  MOM disabled.
  Fractional occupation disabled.
  Guess Type is SAD.
  Energy threshold   = 1.00e-06
  Density threshold  = 1.00e-10
  Integral threshold = 0.00e+00

  ==> Primary Basis <==

  Basis Set: CC-PVDZ
    Blend: CC-PVDZ
    Number of shells: 60
    Number of basis function: 116
    Number of Cartesian functions: 120
    Spherical Harmonics?: true
    Max angular momentum: 2

  ==> Pre-Iterations <==

   -------------------------------------------------------
    Irrep   Nso     Nmo     Nalpha   Nbeta   Ndocc  Nsocc
   -------------------------------------------------------
     A        116     116       0       0       0       0
   -------------------------------------------------------
    Total     116     116      18      18      18       0
   -------------------------------------------------------

  ==> Integral Setup <==

  Using integral reordering PK algorithm.
  Sizing the integral batches needed.
  Building batch lookup table.
   Calculation information:
      Number of atoms:                  16
      Number of AO shells:              60
      Number of primitives:            148
      Number of atomic orbitals:       120
      Number of basis functions:       116

      Integral cutoff                 1.00e-12
      Number of threads:                 1

	Batch   1 pq = [       0,    6786] index = [             0,23028291] size =     23028291
  Task number: 3
  Buffer size: 11059200
  Buffer per thread: 2
  We computed 1416648 shell quartets total.
  Whereas there are 1675365 unique shell quartets.

  ==> DiskJK: Disk-Based J/K Matrices <==

    J tasked:                  Yes
    K tasked:                  Yes
    wK tasked:                  No
    Memory [MiB]:              375
    Schwarz Cutoff:          1E-12

    OpenMP threads:              1

  Minimum eigenvalue in the overlap matrix is 7.2220954008E-03.
  Using Symmetric Orthogonalization.

  SCF Guess: Superposition of Atomic Densities via on-the-fly atomic UHF.

  ==> Iterations <==

                        Total Energy        Delta E     RMS |[F,P]|

   @RHF iter SAD:  -157.34170817815578   -1.57342e+02   0.00000e+00
   @RHF iter   1:  -158.30780371267184   -9.66096e-01   4.20525e-03 DIIS
   @RHF iter   2:  -158.44103330879253   -1.33230e-01   1.78911e-03 DIIS
   @RHF iter   3:  -158.46429022156141   -2.32569e-02   3.49375e-04 DIIS
   @RHF iter   4:  -158.46612020657312   -1.82999e-03   3.86908e-05 DIIS
   @RHF iter   5:  -158.46614383284384   -2.36263e-05   6.56353e-06 DIIS
   @RHF iter   6:  -158.46614446816420   -6.35320e-07   1.15642e-06 DIIS
   @RHF iter   7:  -158.46614448119169   -1.30275e-08   3.23053e-07 DIIS
   @RHF iter   8:  -158.46614448213228   -9.40588e-10   4.04460e-08 DIIS
   @RHF iter   9:  -158.46614448215655   -2.42721e-11   9.10770e-09 DIIS
   @RHF iter  10:  -158.46614448215763   -1.08002e-12   2.54028e-09 DIIS
   @RHF iter  11:  -158.46614448215797   -3.41061e-13   7.75323e-10 DIIS
   @RHF iter  12:  -158.46614448215786    1.13687e-13   1.78324e-10 DIIS
   @RHF iter  13:  -158.46614448215760    2.55795e-13   2.38676e-11 DIIS
  Energy and wave function converged.

  ==> Post-Iterations <==

    Orbital Energies [Eh]
    ---------------------

    Doubly Occupied:

       1A    -11.220108     2A    -11.218397     3A    -11.217529
       4A    -11.214573     5A     -1.019649     6A     -1.015005
       7A     -0.838801     8A     -0.832782     9A     -0.601526
      10A     -0.600108    11A     -0.596596    12A     -0.592951
      13A     -0.501617    14A     -0.496892    15A     -0.491038
      16A     -0.487527    17A     -0.483618    18A     -0.477566

    Virtual:

      19A      0.173227    20A      0.194525    21A      0.228783
      22A      0.234910    23A      0.240042    24A      0.256412
      25A      0.265492    26A      0.275277    27A      0.281583
      28A      0.289009    29A      0.311827    30A      0.330399
      31A      0.393434    32A      0.407383    33A      0.574047
      34A      0.596051    35A      0.599859    36A      0.606702
      37A      0.611306    38A      0.637883    39A      0.656169
      40A      0.678210    41A      0.687045    42A      0.802133
      43A      0.849115    44A      0.862221    45A      0.889060
      46A      0.890610    47A      0.894509    48A      0.895543
      49A      0.900432    50A      0.903839    51A      0.909767
      52A      0.916395    53A      0.935352    54A      0.955162
      55A      0.979199    56A      0.979606    57A      1.121539
      58A      1.125020    59A      1.127429    60A      1.159423
      61A      1.230782    62A      1.241291    63A      1.472192
      64A      1.477163    65A      1.485409    66A      1.487711
      67A      1.568893    68A      1.578556    69A      1.678630
      70A      1.680975    71A      1.690446    72A      1.702245
      73A      1.849350    74A      1.857003    75A      1.863116
      76A      1.885415    77A      1.899089    78A      1.914951
      79A      1.937419    80A      1.941696    81A      1.945048
      82A      1.948584    83A      1.951863    84A      1.959971
      85A      1.964952    86A      1.970077    87A      1.978586
      88A      2.013815    89A      2.096567    90A      2.102576
      91A      2.113344    92A      2.126365    93A      2.292481
      94A      2.297683    95A      2.308760    96A      2.317288
      97A      2.451659    98A      2.455963    99A      2.460774
     100A      2.480554   101A      2.558286   102A      2.566010
     103A      2.572105   104A      2.577713   105A      2.757262
     106A      2.762443   107A      2.787429   108A      2.794812
     109A      2.840885   110A      2.844542   111A      2.852531
     112A      2.856792   113A      2.937958   114A      2.952166
     115A      2.964145   116A      2.972269

    Final Occupation by Irrep:
              A
    DOCC [    18 ]

  @RHF Final Energy:  -158.46614448215760

   => Energetics <=

    Nuclear Repulsion Energy =            121.7633925773980792
    One-Electron Energy =                -452.6465077031092505
    Two-Electron Energy =                 172.4169706435535829
    Total Energy =                       -158.4661444821576026

Computation Completed

Properties will be evaluated at   0.000000,   0.000000,   0.000000 [a0]

Properties computed using the SCF density matrix

  Nuclear Dipole Moment: [e a0]
     X:    -0.0454      Y:     0.0127      Z:    -0.0227

  Electronic Dipole Moment: [e a0]
     X:     0.0345      Y:    -0.0020      Z:     0.0137

  Dipole Moment: [e a0]
     X:    -0.0109      Y:     0.0107      Z:    -0.0090     Total:     0.0177

  Dipole Moment: [D]
     X:    -0.0277      Y:     0.0272      Z:    -0.0229     Total:     0.0451

*** tstop() called on ds3 at Tue Apr 28 13:12:42 2020
Module time:
	user time   =       7.32 seconds =       0.12 minutes
	system time =       2.71 seconds =       0.05 minutes
	total time  =         17 seconds =       0.28 minutes
Total time:
	user time   =       7.32 seconds =       0.12 minutes
	system time =       2.71 seconds =       0.05 minutes
	total time  =         17 seconds =       0.28 minutes
                                     G D M A

                                 by Anthony Stone

                           version 2.2.06, 22 June 2011

               Distributed Multipoles from Gaussian wavefunctions

Starting at 13:12:42 on 28 Apr 2020

Using SCF density matrix from file ./SSI/SSI-124ALA-156THR-1-dimer.test.15809.fchk

                         Distributed Multipole Analysis

Standard DMA

Positions and radii in angstrom
Multipole moments in atomic units, ea_0^k for rank k

C          x = -0.857733  y =  0.089215  z =  1.819758 angstrom
           Maximum rank =  0   Radius =  0.650 angstrom
                   Q00  =  -0.230813

C          x = -1.484733  y = -1.280785  z =  2.034758 angstrom
           Maximum rank =  0   Radius =  0.650 angstrom
                   Q00  =  -0.238379

H          x =  0.230267  y =  0.016215  z =  1.835758 angstrom
           Maximum rank =  0   Radius =  0.325 angstrom
                   Q00  =   0.077205

H          x = -1.179733  y =  0.493215  z =  0.860758 angstrom
           Maximum rank =  0   Radius =  0.325 angstrom
                   Q00  =   0.080877

H          x = -1.189733  y =  0.769215  z =  2.601758 angstrom
           Maximum rank =  0   Radius =  0.325 angstrom
                   Q00  =   0.077340

H          x = -2.570733  y = -1.166785  z =  2.003758 angstrom
           Maximum rank =  0   Radius =  0.325 angstrom
                   Q00  =   0.076920

H          x = -1.189233  y = -1.669995  z =  3.020258 angstrom
           Maximum rank =  0   Radius =  0.325 angstrom
                   Q00  =   0.077206

H          x = -1.183763  y = -1.980895  z =  1.241458 angstrom
           Maximum rank =  0   Radius =  0.325 angstrom
                   Q00  =   0.078442

C          x =  0.517267  y =  0.364215  z = -1.595242 angstrom
           Maximum rank =  0   Radius =  0.650 angstrom
                   Q00  =  -0.240401

C          x =  1.829267  y =  0.826215  z = -2.257242 angstrom
           Maximum rank =  0   Radius =  0.650 angstrom
                   Q00  =  -0.237943

H          x =  0.090267  y =  1.177215  z = -1.007242 angstrom
           Maximum rank =  0   Radius =  0.325 angstrom
                   Q00  =   0.080185

H          x = -0.195733  y =  0.066215  z = -2.364242 angstrom
           Maximum rank =  0   Radius =  0.325 angstrom
                   Q00  =   0.079739

H          x =  0.714267  y = -0.490785  z = -0.948242 angstrom
           Maximum rank =  0   Radius =  0.325 angstrom
                   Q00  =   0.080603

H          x =  2.169267  y =  0.029215  z = -2.920242 angstrom
           Maximum rank =  0   Radius =  0.325 angstrom
                   Q00  =   0.078958

H          x =  2.604457  y =  1.031075  z = -1.504142 angstrom
           Maximum rank =  0   Radius =  0.325 angstrom
                   Q00  =   0.080569

H          x =  1.651967  y =  1.739685  z = -2.843842 angstrom
           Maximum rank =  0   Radius =  0.325 angstrom
                   Q00  =   0.079492

Total multipoles referred to origin at
           x =   0.000000,  y =    0.000000,  z =    0.000000 angstrom
                   Q00  =  -0.000000

Finished at 13:12:42 on 28 Apr 2020

  DMA results are available in the Python driver through the
	  variable('DMA DISTRIBUTED MULTIPOLES')
  and
	  variable('DMA TOTAL MULTIPOLES')
  commands.

    Psi4 stopped on: Tuesday, 28 April 2020 01:12PM
    Psi4 wall time for execution: 0:00:17.05

*** Psi4 exiting successfully. Buy a developer a beer!
