                               Psi4 1.3.2 release

  ==> Input File <==

--------------------------------------------------------------------------
import numpy as np
set {scf_type pk
basis cc-pvdz
d_convergence 10
gdma_switch   0
gdma_limit    0
gdma_origin   [ 0.0,  0.0,  0.0 ]
}
molecule test {
    units Angstrom
    -1 1
    --
    -1 1
    C                1.053403110181346     2.306664554758454     1.454281600362744
    C                0.031403110181346     2.185664554758454     0.346281600362744
    O               -1.006596889818654     1.546664554758454     0.513281600362744
    N                0.308403110181346     2.806664554758453    -0.798718399637256
    H                1.735403110181346     3.125664554758453     1.221281600362744
    H                1.652403110181346     1.398664554758454     1.500281600362744
    H               -0.348596889818654     2.725664554758453    -1.561718399637256
    H                1.171403110181346     3.318664554758454    -0.909718399637256
    H                0.578533110181346     2.537974554758454     2.419161600362744
    C                1.004403110181346    -3.040335445241547     0.121281600362744
    C               -0.162596889818654    -2.176335445241547    -0.383718399637256
    O                0.072403110181346    -1.049335445241546    -0.889718399637256
    O               -1.328596889818654    -2.623335445241546    -0.290718399637256
    H                1.686403110181346    -2.427335445241546     0.714281600362744
    H                1.551403110181346    -3.421335445241547    -0.742718399637256
    H                0.660273110181346    -3.888865445241546     0.730851600362744

}
e, wfn = energy('scf', return_wfn=True)
gdma(wfn)
dmavals = variable('DMA DISTRIBUTED MULTIPOLES')
charges = np.array(dmavals)
print(charges)
np.save('SSI-029GLN-033ASP-1-dimer.npy', np.array(charges))--------------------------------------------------------------------------

*** tstart() called on ds3
*** at Sun Apr 26 20:01:16 2020

   => Loading Basis Set <=

    Name: CC-PVDZ
    Role: ORBITAL
    Keyword: BASIS
    atoms 1-2, 10-11 entry C          line   138 file /theoryfs2/ds/metcalf/miniconda2/envs/tf2gpu/share/psi4/basis/cc-pvdz.gbs
    atoms 3, 12-13   entry O          line   198 file /theoryfs2/ds/metcalf/miniconda2/envs/tf2gpu/share/psi4/basis/cc-pvdz.gbs
    atoms 4          entry N          line   168 file /theoryfs2/ds/metcalf/miniconda2/envs/tf2gpu/share/psi4/basis/cc-pvdz.gbs
    atoms 5-9, 14-16 entry H          line    22 file /theoryfs2/ds/metcalf/miniconda2/envs/tf2gpu/share/psi4/basis/cc-pvdz.gbs

         ---------------------------------------------------------
                                   SCF
               by Justin Turney, Rob Parrish, Andy Simmonett
                          and Daniel G. A. Smith
                              RHF Reference
                        1 Threads,    500 MiB Core
         ---------------------------------------------------------

  ==> Geometry <==

    Molecular point group: c1
    Full point group: C1

    Geometry (in Angstrom), charge = -1, multiplicity = 1:

       Center              X                  Y                   Z               Mass
    ------------   -----------------  -----------------  -----------------  -----------------
         C            1.053403110181     2.306664554758     1.454281600363    12.000000000000
         C            0.031403110181     2.185664554758     0.346281600363    12.000000000000
         O           -1.006596889819     1.546664554758     0.513281600363    15.994914619570
         N            0.308403110181     2.806664554758    -0.798718399637    14.003074004430
         H            1.735403110181     3.125664554758     1.221281600363     1.007825032230
         H            1.652403110181     1.398664554758     1.500281600363     1.007825032230
         H           -0.348596889819     2.725664554758    -1.561718399637     1.007825032230
         H            1.171403110181     3.318664554758    -0.909718399637     1.007825032230
         H            0.578533110181     2.537974554758     2.419161600363     1.007825032230
         C            1.004403110181    -3.040335445242     0.121281600363    12.000000000000
         C           -0.162596889819    -2.176335445242    -0.383718399637    12.000000000000
         O            0.072403110181    -1.049335445242    -0.889718399637    15.994914619570
         O           -1.328596889819    -2.623335445242    -0.290718399637    15.994914619570
         H            1.686403110181    -2.427335445242     0.714281600363     1.007825032230
         H            1.551403110181    -3.421335445242    -0.742718399637     1.007825032230
         H            0.660273110181    -3.888865445242     0.730851600363     1.007825032230

  Running in c1 symmetry.

  Rotational constants: A =      0.11647  B =      0.02408  C =      0.02289 [cm^-1]
  Rotational constants: A =   3491.80524  B =    722.00589  C =    686.32614 [MHz]
  Nuclear repulsion =  346.585678046354303

  Charge       = -1
  Multiplicity = 1
  Electrons    = 64
  Nalpha       = 32
  Nbeta        = 32

  ==> Algorithm <==

  SCF Algorithm Type is PK.
  DIIS enabled.
  MOM disabled.
  Fractional occupation disabled.
  Guess Type is SAD.
  Energy threshold   = 1.00e-06
  Density threshold  = 1.00e-10
  Integral threshold = 0.00e+00

  ==> Primary Basis <==

  Basis Set: CC-PVDZ
    Blend: CC-PVDZ
    Number of shells: 72
    Number of basis function: 152
    Number of Cartesian functions: 160
    Spherical Harmonics?: true
    Max angular momentum: 2

  ==> Pre-Iterations <==

   -------------------------------------------------------
    Irrep   Nso     Nmo     Nalpha   Nbeta   Ndocc  Nsocc
   -------------------------------------------------------
     A        152     152       0       0       0       0
   -------------------------------------------------------
    Total     152     152      32      32      32       0
   -------------------------------------------------------

  ==> Integral Setup <==

  Using integral reordering PK algorithm.
  Sizing the integral batches needed.
  Building batch lookup table.
   Calculation information:
      Number of atoms:                  16
      Number of AO shells:              72
      Number of primitives:            216
      Number of atomic orbitals:       160
      Number of basis functions:       152

      Integral cutoff                 1.00e-12
      Number of threads:                 1

	Batch   1 pq = [       0,    9405] index = [             0,44231715] size =     44231715
	Batch   2 pq = [    9405,   11628] index = [      44231715,67611006] size =     23379291
  Task number: 7
  Buffer size: 11059200
  Buffer per thread: 2
  We computed 2500544 shell quartets total.
  Whereas there are 3454506 unique shell quartets.

  ==> DiskJK: Disk-Based J/K Matrices <==

    J tasked:                  Yes
    K tasked:                  Yes
    wK tasked:                  No
    Memory [MiB]:              375
    Schwarz Cutoff:          1E-12

    OpenMP threads:              1

  Minimum eigenvalue in the overlap matrix is 4.5485852906E-03.
  Using Symmetric Orthogonalization.

  SCF Guess: Superposition of Atomic Densities via on-the-fly atomic UHF.

  ==> Iterations <==

                        Total Energy        Delta E     RMS |[F,P]|

   @RHF iter SAD:  -433.36579963568499   -4.33366e+02   0.00000e+00
   @RHF iter   1:  -434.86733610045985   -1.50154e+00   5.62259e-03 DIIS
   @RHF iter   2:  -435.11478943375448   -2.47453e-01   3.47888e-03 DIIS
   @RHF iter   3:  -435.21264850427991   -9.78591e-02   5.29340e-04 DIIS
   @RHF iter   4:  -435.21653207839938   -3.88357e-03   2.13608e-04 DIIS
   @RHF iter   5:  -435.21726091854509   -7.28840e-04   5.01369e-05 DIIS
   @RHF iter   6:  -435.21731057816066   -4.96596e-05   2.55249e-05 DIIS
   @RHF iter   7:  -435.21732381576544   -1.32376e-05   8.04391e-06 DIIS
   @RHF iter   8:  -435.21732611237059   -2.29661e-06   3.10635e-06 DIIS
   @RHF iter   9:  -435.21732641443697   -3.02066e-07   1.09144e-06 DIIS
   @RHF iter  10:  -435.21732644835197   -3.39150e-08   2.93357e-07 DIIS
   @RHF iter  11:  -435.21732645047371   -2.12174e-09   9.67228e-08 DIIS
   @RHF iter  12:  -435.21732645060376   -1.30058e-10   3.60355e-08 DIIS
   @RHF iter  13:  -435.21732645062770   -2.39311e-11   7.82587e-09 DIIS
   @RHF iter  14:  -435.21732645062912   -1.42109e-12   2.34178e-09 DIIS
   @RHF iter  15:  -435.21732645062775    1.36424e-12   6.10717e-10 DIIS
   @RHF iter  16:  -435.21732645063008   -2.33058e-12   2.19450e-10 DIIS
   @RHF iter  17:  -435.21732645062980    2.84217e-13   1.05278e-10 DIIS
   @RHF iter  18:  -435.21732645062991   -1.13687e-13   3.90650e-11 DIIS
  Energy and wave function converged.

  ==> Post-Iterations <==

    Orbital Energies [Eh]
    ---------------------

    Doubly Occupied:

       1A    -20.373524     2A    -20.239068     3A    -20.238403
       4A    -15.469925     5A    -11.222766     6A    -11.132938
       7A    -11.100649     8A    -11.043943     9A     -1.235611
      10A     -1.126829    11A     -1.093539    12A     -1.011468
      13A     -0.887585    14A     -0.784719    15A     -0.679618
      16A     -0.609204    17A     -0.532284    18A     -0.497179
      19A     -0.484026    20A     -0.448049    21A     -0.440575
      22A     -0.403141    23A     -0.399858    24A     -0.393245
      25A     -0.383923    26A     -0.324916    27A     -0.287308
      28A     -0.280784    29A     -0.272811    30A     -0.165289
      31A     -0.150075    32A     -0.138431

    Virtual:

      33A      0.268109    34A      0.314664    35A      0.320829
      36A      0.332540    37A      0.359957    38A      0.374363
      39A      0.388829    40A      0.414695    41A      0.439592
      42A      0.489671    43A      0.500117    44A      0.579081
      45A      0.588383    46A      0.680387    47A      0.711484
      48A      0.716476    49A      0.761192    50A      0.771694
      51A      0.811116    52A      0.826132    53A      0.830168
      54A      0.854756    55A      0.863948    56A      0.894940
      57A      0.943457    58A      0.961482    59A      0.973997
      60A      0.976891    61A      1.005028    62A      1.034436
      63A      1.039853    64A      1.046551    65A      1.055535
      66A      1.059581    67A      1.087765    68A      1.116500
      69A      1.130347    70A      1.146641    71A      1.164998
      72A      1.229730    73A      1.240732    74A      1.248463
      75A      1.349891    76A      1.358713    77A      1.429847
      78A      1.446242    79A      1.479356    80A      1.491630
      81A      1.514923    82A      1.530610    83A      1.573338
      84A      1.576924    85A      1.580500    86A      1.593282
      87A      1.600020    88A      1.634865    89A      1.680253
      90A      1.717712    91A      1.751350    92A      1.754676
      93A      1.768290    94A      1.847618    95A      1.853458
      96A      1.865714    97A      1.938521    98A      1.982164
      99A      1.985573   100A      2.019705   101A      2.020496
     102A      2.051521   103A      2.056913   104A      2.083192
     105A      2.089299   106A      2.101284   107A      2.140045
     108A      2.165790   109A      2.186646   110A      2.225203
     111A      2.263623   112A      2.283766   113A      2.343366
     114A      2.346492   115A      2.385391   116A      2.430758
     117A      2.433524   118A      2.540571   119A      2.550713
     120A      2.574537   121A      2.593016   122A      2.650113
     123A      2.662994   124A      2.687841   125A      2.726347
     126A      2.753032   127A      2.803666   128A      2.848518
     129A      2.870192   130A      2.914099   131A      2.927210
     132A      2.958850   133A      2.975338   134A      2.989190
     135A      3.083111   136A      3.220944   137A      3.263793
     138A      3.264569   139A      3.300172   140A      3.311806
     141A      3.377766   142A      3.398436   143A      3.619917
     144A      3.650906   145A      3.659278   146A      3.775672
     147A      3.836009   148A      3.989484   149A      4.030150
     150A      4.076086   151A      4.096096   152A      4.210003

    Final Occupation by Irrep:
              A
    DOCC [    32 ]

  @RHF Final Energy:  -435.21732645062991

   => Energetics <=

    Nuclear Repulsion Energy =            346.5856780463543032
    One-Electron Energy =               -1295.9026399897479678
    Two-Electron Energy =                 514.0996354927636958
    Total Energy =                       -435.2173264506299120

Computation Completed

Properties will be evaluated at   0.000000,   0.000000,   0.000000 [a0]

Properties computed using the SCF density matrix

  Nuclear Dipole Moment: [e a0]
     X:     8.1322      Y:     3.1401      Z:     3.1600

  Electronic Dipole Moment: [e a0]
     X:    -5.6288      Y:     0.7818      Z:    -2.5959

  Dipole Moment: [e a0]
     X:     2.5034      Y:     3.9219      Z:     0.5640     Total:     4.6868

  Dipole Moment: [D]
     X:     6.3630      Y:     9.9685      Z:     1.4337     Total:    11.9128

*** tstop() called on ds3 at Sun Apr 26 20:01:45 2020
Module time:
	user time   =      19.52 seconds =       0.33 minutes
	system time =      10.15 seconds =       0.17 minutes
	total time  =         29 seconds =       0.48 minutes
Total time:
	user time   =      19.52 seconds =       0.33 minutes
	system time =      10.15 seconds =       0.17 minutes
	total time  =         29 seconds =       0.48 minutes
                                     G D M A

                                 by Anthony Stone

                           version 2.2.06, 22 June 2011

               Distributed Multipoles from Gaussian wavefunctions

Starting at 20:1:45 on 26 Apr 2020

Using SCF density matrix from file ./SSI/SSI-029GLN-033ASP-1-dimer.test.10519.fchk

                         Distributed Multipole Analysis

Standard DMA

Positions and radii in angstrom
Multipole moments in atomic units, ea_0^k for rank k

C          x =  1.053403  y =  2.306665  z =  1.454282 angstrom
           Maximum rank =  0   Radius =  0.650 angstrom
                   Q00  =  -0.256012

C          x =  0.031403  y =  2.185665  z =  0.346282 angstrom
           Maximum rank =  0   Radius =  0.650 angstrom
                   Q00  =   0.811462

O          x = -1.006597  y =  1.546665  z =  0.513282 angstrom
           Maximum rank =  0   Radius =  0.650 angstrom
                   Q00  =  -0.735809

N          x =  0.308403  y =  2.806665  z = -0.798718 angstrom
           Maximum rank =  0   Radius =  0.650 angstrom
                   Q00  =  -0.515620

H          x =  1.735403  y =  3.125665  z =  1.221282 angstrom
           Maximum rank =  0   Radius =  0.325 angstrom
                   Q00  =   0.040000

H          x =  1.652403  y =  1.398665  z =  1.500282 angstrom
           Maximum rank =  0   Radius =  0.325 angstrom
                   Q00  =   0.139966

H          x = -0.348597  y =  2.725665  z = -1.561718 angstrom
           Maximum rank =  0   Radius =  0.325 angstrom
                   Q00  =   0.221091

H          x =  1.171403  y =  3.318665  z = -0.909718 angstrom
           Maximum rank =  0   Radius =  0.325 angstrom
                   Q00  =   0.180800

H          x =  0.578533  y =  2.537975  z =  2.419162 angstrom
           Maximum rank =  0   Radius =  0.325 angstrom
                   Q00  =   0.113193

C          x =  1.004403  y = -3.040335  z =  0.121282 angstrom
           Maximum rank =  0   Radius =  0.650 angstrom
                   Q00  =  -0.281164

C          x = -0.162597  y = -2.176335  z = -0.383718 angstrom
           Maximum rank =  0   Radius =  0.650 angstrom
                   Q00  =   0.975508

O          x =  0.072403  y = -1.049335  z = -0.889718 angstrom
           Maximum rank =  0   Radius =  0.650 angstrom
                   Q00  =  -0.939497

O          x = -1.328597  y = -2.623335  z = -0.290718 angstrom
           Maximum rank =  0   Radius =  0.650 angstrom
                   Q00  =  -0.924483

H          x =  1.686403  y = -2.427335  z =  0.714282 angstrom
           Maximum rank =  0   Radius =  0.325 angstrom
                   Q00  =   0.051667

H          x =  1.551403  y = -3.421335  z = -0.742718 angstrom
           Maximum rank =  0   Radius =  0.325 angstrom
                   Q00  =   0.069389

H          x =  0.660273  y = -3.888865  z =  0.730852 angstrom
           Maximum rank =  0   Radius =  0.325 angstrom
                   Q00  =   0.049507

Total multipoles referred to origin at
           x =   0.000000,  y =    0.000000,  z =    0.000000 angstrom
                   Q00  =  -1.000000

Finished at 20:1:45 on 26 Apr 2020

  DMA results are available in the Python driver through the
	  variable('DMA DISTRIBUTED MULTIPOLES')
  and
	  variable('DMA TOTAL MULTIPOLES')
  commands.

    Psi4 stopped on: Sunday, 26 April 2020 08:01PM
    Psi4 wall time for execution: 0:00:29.62

*** Psi4 exiting successfully. Buy a developer a beer!
