                               Psi4 1.3.2 release

  ==> Input File <==

--------------------------------------------------------------------------
import numpy as np
set {scf_type pk
basis cc-pvdz
d_convergence 10
gdma_switch   0
gdma_limit    0
gdma_origin   [ 0.0,  0.0,  0.0 ]
}
molecule test {
    units Angstrom
    -1 1
    --
    -1 1
    C                0.928270687459395    -0.676764890584851    -3.006992484388082
    C                2.284270687459395    -0.761764890584851    -3.688992484388082
    H                0.156270687459395    -0.945764890584851    -3.710992484388082
    H                0.900270687459395    -1.374764890584851    -2.170992484388082
    H                0.750270687459395     0.324235109415149    -2.614992484388082
    H                3.036270687459395    -0.395764890584851    -2.996992484388083
    H                2.328454687459395    -0.136064890584851    -4.592622484388081
    H                2.517465687459395    -1.809704890584851    -3.928662484388083
    C               -0.509729312540605     0.305235109415149     0.305007515611918
    C               -1.917729312540605    -0.137764890584851    -0.081992484388082
    C               -0.333729312540605     0.410235109415149     1.814007515611918
    O               -0.363729312540605    -0.634764890584851     2.493007515611918
    O               -0.154729312540605     1.545235109415149     2.311007515611918
    H                0.215270687459395    -0.401764890584851    -0.094992484388082
    H               -0.284729312540605     1.265235109415149    -0.152992484388082
    H               -2.041729312540605    -1.161764890584851     0.250007515611918
    H               -2.057759312540605    -0.062074890584851    -1.170412484388082
    H               -2.665929312540605     0.498065109415149     0.413907515611918

}
e, wfn = energy('scf', return_wfn=True)
gdma(wfn)
dmavals = variable('DMA DISTRIBUTED MULTIPOLES')
charges = np.array(dmavals)
print(charges)
np.save('SSI-073VAL-111ASP-1-dimer.npy', np.array(charges))--------------------------------------------------------------------------

*** tstart() called on ds3
*** at Tue Apr 28 12:58:13 2020

   => Loading Basis Set <=

    Name: CC-PVDZ
    Role: ORBITAL
    Keyword: BASIS
    atoms 1-2, 9-11  entry C          line   138 file /theoryfs2/ds/metcalf/miniconda2/envs/tf2gpu/share/psi4/basis/cc-pvdz.gbs
    atoms 3-8, 14-18 entry H          line    22 file /theoryfs2/ds/metcalf/miniconda2/envs/tf2gpu/share/psi4/basis/cc-pvdz.gbs
    atoms 12-13      entry O          line   198 file /theoryfs2/ds/metcalf/miniconda2/envs/tf2gpu/share/psi4/basis/cc-pvdz.gbs

         ---------------------------------------------------------
                                   SCF
               by Justin Turney, Rob Parrish, Andy Simmonett
                          and Daniel G. A. Smith
                              RHF Reference
                        1 Threads,    500 MiB Core
         ---------------------------------------------------------

  ==> Geometry <==

    Molecular point group: c1
    Full point group: C1

    Geometry (in Angstrom), charge = -1, multiplicity = 1:

       Center              X                  Y                   Z               Mass
    ------------   -----------------  -----------------  -----------------  -----------------
         C            0.928270687459    -0.676764890585    -3.006992484388    12.000000000000
         C            2.284270687459    -0.761764890585    -3.688992484388    12.000000000000
         H            0.156270687459    -0.945764890585    -3.710992484388     1.007825032230
         H            0.900270687459    -1.374764890585    -2.170992484388     1.007825032230
         H            0.750270687459     0.324235109415    -2.614992484388     1.007825032230
         H            3.036270687459    -0.395764890585    -2.996992484388     1.007825032230
         H            2.328454687459    -0.136064890585    -4.592622484388     1.007825032230
         H            2.517465687459    -1.809704890585    -3.928662484388     1.007825032230
         C           -0.509729312541     0.305235109415     0.305007515612    12.000000000000
         C           -1.917729312541    -0.137764890585    -0.081992484388    12.000000000000
         C           -0.333729312541     0.410235109415     1.814007515612    12.000000000000
         O           -0.363729312541    -0.634764890585     2.493007515612    15.994914619570
         O           -0.154729312541     1.545235109415     2.311007515612    15.994914619570
         H            0.215270687459    -0.401764890585    -0.094992484388     1.007825032230
         H           -0.284729312541     1.265235109415    -0.152992484388     1.007825032230
         H           -2.041729312541    -1.161764890585     0.250007515612     1.007825032230
         H           -2.057759312541    -0.062074890585    -1.170412484388     1.007825032230
         H           -2.665929312541     0.498065109415     0.413907515612     1.007825032230

  Running in c1 symmetry.

  Rotational constants: A =      0.12952  B =      0.02351  C =      0.02222 [cm^-1]
  Rotational constants: A =   3882.80120  B =    704.93135  C =    665.99638 [MHz]
  Nuclear repulsion =  282.707321201595960

  Charge       = -1
  Multiplicity = 1
  Electrons    = 58
  Nalpha       = 29
  Nbeta        = 29

  ==> Algorithm <==

  SCF Algorithm Type is PK.
  DIIS enabled.
  MOM disabled.
  Fractional occupation disabled.
  Guess Type is SAD.
  Energy threshold   = 1.00e-06
  Density threshold  = 1.00e-10
  Integral threshold = 0.00e+00

  ==> Primary Basis <==

  Basis Set: CC-PVDZ
    Blend: CC-PVDZ
    Number of shells: 75
    Number of basis function: 153
    Number of Cartesian functions: 160
    Spherical Harmonics?: true
    Max angular momentum: 2

  ==> Pre-Iterations <==

   -------------------------------------------------------
    Irrep   Nso     Nmo     Nalpha   Nbeta   Ndocc  Nsocc
   -------------------------------------------------------
     A        153     153       0       0       0       0
   -------------------------------------------------------
    Total     153     153      29      29      29       0
   -------------------------------------------------------

  ==> Integral Setup <==

  Using integral reordering PK algorithm.
  Sizing the integral batches needed.
  Building batch lookup table.
   Calculation information:
      Number of atoms:                  18
      Number of AO shells:              75
      Number of primitives:            209
      Number of atomic orbitals:       160
      Number of basis functions:       153

      Integral cutoff                 1.00e-12
      Number of threads:                 1

	Batch   1 pq = [       0,    9405] index = [             0,44231715] size =     44231715
	Batch   2 pq = [    9405,   11781] index = [      44231715,69401871] size =     25170156
  Task number: 7
  Buffer size: 11059200
  Buffer per thread: 2
  We computed 3212162 shell quartets total.
  Whereas there are 4062675 unique shell quartets.

  ==> DiskJK: Disk-Based J/K Matrices <==

    J tasked:                  Yes
    K tasked:                  Yes
    wK tasked:                  No
    Memory [MiB]:              375
    Schwarz Cutoff:          1E-12

    OpenMP threads:              1

  Minimum eigenvalue in the overlap matrix is 4.2847864909E-03.
  Using Symmetric Orthogonalization.

  SCF Guess: Superposition of Atomic Densities via on-the-fly atomic UHF.

  ==> Iterations <==

                        Total Energy        Delta E     RMS |[F,P]|

   @RHF iter SAD:  -343.89123330832894   -3.43891e+02   0.00000e+00
   @RHF iter   1:  -345.22166893629390   -1.33044e+00   4.90213e-03 DIIS
   @RHF iter   2:  -345.44213252981712   -2.20464e-01   2.68374e-03 DIIS
   @RHF iter   3:  -345.50544770547651   -6.33152e-02   4.18170e-04 DIIS
   @RHF iter   4:  -345.50835585699872   -2.90815e-03   1.65716e-04 DIIS
   @RHF iter   5:  -345.50877822238260   -4.22365e-04   2.36855e-05 DIIS
   @RHF iter   6:  -345.50879117314645   -1.29508e-05   5.14689e-06 DIIS
   @RHF iter   7:  -345.50879175373126   -5.80585e-07   1.56944e-06 DIIS
   @RHF iter   8:  -345.50879180765179   -5.39205e-08   5.25721e-07 DIIS
   @RHF iter   9:  -345.50879181303929   -5.38751e-09   2.20860e-07 DIIS
   @RHF iter  10:  -345.50879181400239   -9.63098e-10   7.60367e-08 DIIS
   @RHF iter  11:  -345.50879181414467   -1.42279e-10   1.94836e-08 DIIS
   @RHF iter  12:  -345.50879181415814   -1.34719e-11   7.94318e-09 DIIS
   @RHF iter  13:  -345.50879181415939   -1.25056e-12   2.83106e-09 DIIS
   @RHF iter  14:  -345.50879181416036   -9.66338e-13   8.40236e-10 DIIS
   @RHF iter  15:  -345.50879181415985    5.11591e-13   2.81877e-10 DIIS
   @RHF iter  16:  -345.50879181415900    8.52651e-13   1.05843e-10 DIIS
   @RHF iter  17:  -345.50879181415985   -8.52651e-13   4.40066e-11 DIIS
  Energy and wave function converged.

  ==> Post-Iterations <==

    Orbital Energies [Eh]
    ---------------------

    Doubly Occupied:

       1A    -20.251897     2A    -20.250537     3A    -11.138881
       4A    -11.125262     5A    -11.105947     6A    -11.076753
       7A    -11.046711     8A     -1.143001     9A     -1.028790
      10A     -0.936982    11A     -0.871760    12A     -0.752896
      13A     -0.700207    14A     -0.517957    15A     -0.514904
      16A     -0.505052    17A     -0.454233    18A     -0.427350
      19A     -0.416360    20A     -0.401882    21A     -0.400372
      22A     -0.382685    23A     -0.367050    24A     -0.358730
      25A     -0.318689    26A     -0.296308    27A     -0.173308
      28A     -0.164719    29A     -0.153264

    Virtual:

      30A      0.266705    31A      0.304269    32A      0.328769
      33A      0.333722    34A      0.355933    35A      0.356823
      36A      0.370598    37A      0.405708    38A      0.413764
      39A      0.425191    40A      0.460941    41A      0.473789
      42A      0.495701    43A      0.559486    44A      0.608966
      45A      0.676959    46A      0.681785    47A      0.686594
      48A      0.714475    49A      0.726258    50A      0.761801
      51A      0.772515    52A      0.784666    53A      0.841237
      54A      0.846435    55A      0.933024    56A      0.968345
      57A      0.972041    58A      0.978391    59A      0.986840
      60A      0.994428    61A      1.002172    62A      1.010205
      63A      1.016432    64A      1.039944    65A      1.048201
      66A      1.049638    67A      1.062271    68A      1.074403
      69A      1.088238    70A      1.100903    71A      1.113748
      72A      1.150435    73A      1.212389    74A      1.244524
      75A      1.260407    76A      1.307277    77A      1.317141
      78A      1.330227    79A      1.396861    80A      1.503395
      81A      1.531858    82A      1.556578    83A      1.565443
      84A      1.572103    85A      1.614240    86A      1.624290
      87A      1.633943    88A      1.662751    89A      1.693735
      90A      1.701287    91A      1.729249    92A      1.761237
      93A      1.790635    94A      1.819100    95A      1.830179
      96A      1.938465    97A      1.964017    98A      1.980152
      99A      1.989801   100A      2.025128   101A      2.031048
     102A      2.033258   103A      2.039612   104A      2.047714
     105A      2.061823   106A      2.063578   107A      2.091666
     108A      2.118106   109A      2.137272   110A      2.146262
     111A      2.162688   112A      2.181919   113A      2.198673
     114A      2.207574   115A      2.245478   116A      2.307241
     117A      2.345515   118A      2.367945   119A      2.396362
     120A      2.407603   121A      2.450107   122A      2.509458
     123A      2.543332   124A      2.553411   125A      2.559958
     126A      2.625866   127A      2.645404   128A      2.673062
     129A      2.693546   130A      2.732812   131A      2.768054
     132A      2.826425   133A      2.842425   134A      2.891442
     135A      2.917404   136A      2.941769   137A      2.947121
     138A      2.999266   139A      3.005619   140A      3.044113
     141A      3.047115   142A      3.052231   143A      3.142025
     144A      3.252662   145A      3.291516   146A      3.308198
     147A      3.372789   148A      3.645244   149A      3.802649
     150A      3.840384   151A      4.061091   152A      4.094862
     153A      4.206359

    Final Occupation by Irrep:
              A
    DOCC [    29 ]

  @RHF Final Energy:  -345.50879181415985

   => Energetics <=

    Nuclear Repulsion Energy =            282.7073212015959598
    One-Electron Energy =               -1041.8672508771178400
    Two-Electron Energy =                 413.6511378613620309
    Total Energy =                       -345.5087918141598493

Computation Completed

Properties will be evaluated at   0.000000,   0.000000,   0.000000 [a0]

Properties computed using the SCF density matrix

  Nuclear Dipole Moment: [e a0]
     X:     2.6732      Y:    -3.9331      Z:   -19.4479

  Electronic Dipole Moment: [e a0]
     X:    -2.1536      Y:     3.1040      Z:    15.0103

  Dipole Moment: [e a0]
     X:     0.5196      Y:    -0.8291      Z:    -4.4376     Total:     4.5442

  Dipole Moment: [D]
     X:     1.3207      Y:    -2.1073      Z:   -11.2792     Total:    11.5501

*** tstop() called on ds3 at Tue Apr 28 12:59:51 2020
Module time:
	user time   =      21.86 seconds =       0.36 minutes
	system time =       9.30 seconds =       0.15 minutes
	total time  =         98 seconds =       1.63 minutes
Total time:
	user time   =      21.86 seconds =       0.36 minutes
	system time =       9.30 seconds =       0.15 minutes
	total time  =         98 seconds =       1.63 minutes
                                     G D M A

                                 by Anthony Stone

                           version 2.2.06, 22 June 2011

               Distributed Multipoles from Gaussian wavefunctions

Starting at 12:59:51 on 28 Apr 2020

Using SCF density matrix from file ./SSI/SSI-073VAL-111ASP-1-dimer.test.15633.fchk

                         Distributed Multipole Analysis

Standard DMA

Positions and radii in angstrom
Multipole moments in atomic units, ea_0^k for rank k

C          x =  0.928271  y = -0.676765  z = -3.006992 angstrom
           Maximum rank =  0   Radius =  0.650 angstrom
                   Q00  =  -0.223465

C          x =  2.284271  y = -0.761765  z = -3.688992 angstrom
           Maximum rank =  0   Radius =  0.650 angstrom
                   Q00  =  -0.233213

H          x =  0.156271  y = -0.945765  z = -3.710992 angstrom
           Maximum rank =  0   Radius =  0.325 angstrom
                   Q00  =   0.062313

H          x =  0.900271  y = -1.374765  z = -2.170992 angstrom
           Maximum rank =  0   Radius =  0.325 angstrom
                   Q00  =   0.091951

H          x =  0.750271  y =  0.324235  z = -2.614992 angstrom
           Maximum rank =  0   Radius =  0.325 angstrom
                   Q00  =   0.093980

H          x =  3.036271  y = -0.395765  z = -2.996992 angstrom
           Maximum rank =  0   Radius =  0.325 angstrom
                   Q00  =   0.081717

H          x =  2.328455  y = -0.136065  z = -4.592622 angstrom
           Maximum rank =  0   Radius =  0.325 angstrom
                   Q00  =   0.063530

H          x =  2.517466  y = -1.809705  z = -3.928662 angstrom
           Maximum rank =  0   Radius =  0.325 angstrom
                   Q00  =   0.065680

C          x = -0.509729  y =  0.305235  z =  0.305008 angstrom
           Maximum rank =  0   Radius =  0.650 angstrom
                   Q00  =  -0.114122

C          x = -1.917729  y = -0.137765  z = -0.081992 angstrom
           Maximum rank =  0   Radius =  0.650 angstrom
                   Q00  =  -0.200483

C          x = -0.333729  y =  0.410235  z =  1.814008 angstrom
           Maximum rank =  0   Radius =  0.650 angstrom
                   Q00  =   0.984019

O          x = -0.363729  y = -0.634765  z =  2.493008 angstrom
           Maximum rank =  0   Radius =  0.650 angstrom
                   Q00  =  -0.944908

O          x = -0.154729  y =  1.545235  z =  2.311008 angstrom
           Maximum rank =  0   Radius =  0.650 angstrom
                   Q00  =  -0.934235

H          x =  0.215271  y = -0.401765  z = -0.094992 angstrom
           Maximum rank =  0   Radius =  0.325 angstrom
                   Q00  =   0.023236

H          x = -0.284729  y =  1.265235  z = -0.152992 angstrom
           Maximum rank =  0   Radius =  0.325 angstrom
                   Q00  =   0.016470

H          x = -2.041729  y = -1.161765  z =  0.250008 angstrom
           Maximum rank =  0   Radius =  0.325 angstrom
                   Q00  =   0.076763

H          x = -2.057759  y = -0.062075  z = -1.170412 angstrom
           Maximum rank =  0   Radius =  0.325 angstrom
                   Q00  =   0.023285

H          x = -2.665929  y =  0.498065  z =  0.413908 angstrom
           Maximum rank =  0   Radius =  0.325 angstrom
                   Q00  =   0.067483

Total multipoles referred to origin at
           x =   0.000000,  y =    0.000000,  z =    0.000000 angstrom
                   Q00  =  -1.000000

Finished at 12:59:51 on 28 Apr 2020

  DMA results are available in the Python driver through the
	  variable('DMA DISTRIBUTED MULTIPOLES')
  and
	  variable('DMA TOTAL MULTIPOLES')
  commands.

    Psi4 stopped on: Tuesday, 28 April 2020 12:59PM
    Psi4 wall time for execution: 0:01:37.91

*** Psi4 exiting successfully. Buy a developer a beer!
