                               Psi4 1.3.2 release

  ==> Input File <==

--------------------------------------------------------------------------
import numpy as np
set {scf_type pk
basis cc-pvdz
d_convergence 10
gdma_switch   0
gdma_limit    0
gdma_origin   [ 0.0,  0.0,  0.0 ]
}
molecule test {
    units Angstrom
    0 1
    --
    0 1
    C               -1.532669540234929    -4.647233837970759     0.999351874217346
    C               -0.150669540234929    -0.564233837970759     0.745351874217346
    C                0.059330459765071    -1.440233837970759    -0.323648125782654
    C               -0.806669540234929    -1.009233837970759     1.894351874217346
    C               -0.392669540234929    -2.760233837970759    -0.238648125782654
    C               -1.252669540234929    -2.333233837970759     1.972351874217346
    C               -1.049669540234929    -3.219233837970759     0.909351874217346
    O                0.294330459765071     0.722766162029241     0.669351874217346
    H                0.898330459765071     0.830766162029241    -0.062648125782654
    H                0.555330459765071    -1.104233837970759    -1.222648125782654
    H               -0.967669540234929    -0.323233837970759     2.714351874217346
    H               -0.239669540234929    -3.427233837970759    -1.076648125782654
    H               -1.756669540234929    -2.675233837970759     2.867351874217346
    H               -1.965669540234929    -4.938233837970759     0.048351874217346
    H               -2.328669540234928    -4.710233837970759     1.743351874217346
    H               -0.748719540234929    -5.374313837970759     1.257791874217346
    C                2.280330459765072     2.673766162029241    -1.163648125782654
    C                1.051330459765071     3.491766162029240    -1.516648125782654
    O                1.133330459765071     4.706766162029242    -1.670648125782654
    N               -0.101669540234929     2.852766162029241    -1.628648125782654
    H               -0.907669540234929     3.403766162029241    -1.908648125782654
    H               -0.190669540234929     1.850766162029241    -1.590648125782654
    H                2.995330459765071     2.774766162029241    -1.981648125782654
    H                2.036330459765071     1.617766162029241    -1.064648125782654
    H                2.735860459765072     3.050356162029241    -0.235928125782654

}
e, wfn = energy('scf', return_wfn=True)
gdma(wfn)
dmavals = variable('DMA DISTRIBUTED MULTIPOLES')
charges = np.array(dmavals)
print(charges)
np.save('SSI-079TYR-167GLN-1-dimer.npy', np.array(charges))--------------------------------------------------------------------------

*** tstart() called on ds3
*** at Sun Apr 26 22:06:31 2020

   => Loading Basis Set <=

    Name: CC-PVDZ
    Role: ORBITAL
    Keyword: BASIS
    atoms 1-7, 17-18  entry C          line   138 file /theoryfs2/ds/metcalf/miniconda2/envs/tf2gpu/share/psi4/basis/cc-pvdz.gbs
    atoms 8, 19       entry O          line   198 file /theoryfs2/ds/metcalf/miniconda2/envs/tf2gpu/share/psi4/basis/cc-pvdz.gbs
    atoms 9-16, 21-25 entry H          line    22 file /theoryfs2/ds/metcalf/miniconda2/envs/tf2gpu/share/psi4/basis/cc-pvdz.gbs
    atoms 20          entry N          line   168 file /theoryfs2/ds/metcalf/miniconda2/envs/tf2gpu/share/psi4/basis/cc-pvdz.gbs

         ---------------------------------------------------------
                                   SCF
               by Justin Turney, Rob Parrish, Andy Simmonett
                          and Daniel G. A. Smith
                              RHF Reference
                        1 Threads,    500 MiB Core
         ---------------------------------------------------------

  ==> Geometry <==

    Molecular point group: c1
    Full point group: C1

    Geometry (in Angstrom), charge = 0, multiplicity = 1:

       Center              X                  Y                   Z               Mass
    ------------   -----------------  -----------------  -----------------  -----------------
         C           -1.532669540235    -4.647233837971     0.999351874217    12.000000000000
         C           -0.150669540235    -0.564233837971     0.745351874217    12.000000000000
         C            0.059330459765    -1.440233837971    -0.323648125783    12.000000000000
         C           -0.806669540235    -1.009233837971     1.894351874217    12.000000000000
         C           -0.392669540235    -2.760233837971    -0.238648125783    12.000000000000
         C           -1.252669540235    -2.333233837971     1.972351874217    12.000000000000
         C           -1.049669540235    -3.219233837971     0.909351874217    12.000000000000
         O            0.294330459765     0.722766162029     0.669351874217    15.994914619570
         H            0.898330459765     0.830766162029    -0.062648125783     1.007825032230
         H            0.555330459765    -1.104233837971    -1.222648125783     1.007825032230
         H           -0.967669540235    -0.323233837971     2.714351874217     1.007825032230
         H           -0.239669540235    -3.427233837971    -1.076648125783     1.007825032230
         H           -1.756669540235    -2.675233837971     2.867351874217     1.007825032230
         H           -1.965669540235    -4.938233837971     0.048351874217     1.007825032230
         H           -2.328669540235    -4.710233837971     1.743351874217     1.007825032230
         H           -0.748719540235    -5.374313837971     1.257791874217     1.007825032230
         C            2.280330459765     2.673766162029    -1.163648125783    12.000000000000
         C            1.051330459765     3.491766162029    -1.516648125783    12.000000000000
         O            1.133330459765     4.706766162029    -1.670648125783    15.994914619570
         N           -0.101669540235     2.852766162029    -1.628648125783    14.003074004430
         H           -0.907669540235     3.403766162029    -1.908648125783     1.007825032230
         H           -0.190669540235     1.850766162029    -1.590648125783     1.007825032230
         H            2.995330459765     2.774766162029    -1.981648125783     1.007825032230
         H            2.036330459765     1.617766162029    -1.064648125783     1.007825032230
         H            2.735860459765     3.050356162029    -0.235928125783     1.007825032230

  Running in c1 symmetry.

  Rotational constants: A =      0.09695  B =      0.00937  C =      0.00909 [cm^-1]
  Rotational constants: A =   2906.60940  B =    280.82484  C =    272.44534 [MHz]
  Nuclear repulsion =  639.553906452509182

  Charge       = 0
  Multiplicity = 1
  Electrons    = 90
  Nalpha       = 45
  Nbeta        = 45

  ==> Algorithm <==

  SCF Algorithm Type is PK.
  DIIS enabled.
  MOM disabled.
  Fractional occupation disabled.
  Guess Type is SAD.
  Energy threshold   = 1.00e-06
  Density threshold  = 1.00e-10
  Integral threshold = 0.00e+00

  ==> Primary Basis <==

  Basis Set: CC-PVDZ
    Blend: CC-PVDZ
    Number of shells: 111
    Number of basis function: 233
    Number of Cartesian functions: 245
    Spherical Harmonics?: true
    Max angular momentum: 2

  ==> Pre-Iterations <==

   -------------------------------------------------------
    Irrep   Nso     Nmo     Nalpha   Nbeta   Ndocc  Nsocc
   -------------------------------------------------------
     A        233     233       0       0       0       0
   -------------------------------------------------------
    Total     233     233      45      45      45       0
   -------------------------------------------------------

  ==> Integral Setup <==

  Using integral reordering PK algorithm.
  Sizing the integral batches needed.
  Building batch lookup table.
   Calculation information:
      Number of atoms:                  25
      Number of AO shells:             111
      Number of primitives:            329
      Number of atomic orbitals:       245
      Number of basis functions:       233

      Integral cutoff                 1.00e-12
      Number of threads:                 1

	Batch   1 pq = [       0,    9405] index = [             0,44231715] size =     44231715
	Batch   2 pq = [    9405,   13301] index = [      44231715,88464951] size =     44233236
	Batch   3 pq = [   13301,   16290] index = [      88464951,132690195] size =     44225244
	Batch   4 pq = [   16290,   18810] index = [     132690195,176917455] size =     44227260
	Batch   5 pq = [   18810,   21030] index = [     176917455,221140965] size =     44223510
	Batch   6 pq = [   21030,   23037] index = [     221140965,265363203] size =     44222238
	Batch   7 pq = [   23037,   24883] index = [     265363203,309594286] size =     44231083
	Batch   8 pq = [   24883,   26601] index = [     309594286,353819901] size =     44225615
	Batch   9 pq = [   26601,   27261] index = [     353819901,371594691] size =     17774790
  Task number: 34
  Buffer size: 11059200
  Buffer per thread: 2
  We computed 14964963 shell quartets total.
  Whereas there are 19322436 unique shell quartets.

  ==> DiskJK: Disk-Based J/K Matrices <==

    J tasked:                  Yes
    K tasked:                  Yes
    wK tasked:                  No
    Memory [MiB]:              375
    Schwarz Cutoff:          1E-12

    OpenMP threads:              1

  Minimum eigenvalue in the overlap matrix is 3.2922863010E-04.
  Using Symmetric Orthogonalization.

  SCF Guess: Superposition of Atomic Densities via on-the-fly atomic UHF.

  ==> Iterations <==

                        Total Energy        Delta E     RMS |[F,P]|

   @RHF iter SAD:  -551.29121133474314   -5.51291e+02   0.00000e+00
   @RHF iter   1:  -552.28542641672720   -9.94215e-01   3.23772e-03 DIIS
   @RHF iter   2:  -552.54132166806778   -2.55895e-01   1.73090e-03 DIIS
   @RHF iter   3:  -552.60528158414843   -6.39599e-02   4.00393e-04 DIIS
   @RHF iter   4:  -552.61025723488024   -4.97565e-03   1.54911e-04 DIIS
   @RHF iter   5:  -552.61104404442312   -7.86810e-04   2.38134e-05 DIIS
   @RHF iter   6:  -552.61108192502309   -3.78806e-05   1.13752e-05 DIIS
   @RHF iter   7:  -552.61108872797615   -6.80295e-06   4.13616e-06 DIIS
   @RHF iter   8:  -552.61109011589508   -1.38792e-06   1.55423e-06 DIIS
   @RHF iter   9:  -552.61109028919270   -1.73298e-07   5.94358e-07 DIIS
   @RHF iter  10:  -552.61109031231354   -2.31208e-08   2.13128e-07 DIIS
   @RHF iter  11:  -552.61109031585374   -3.54021e-09   6.73035e-08 DIIS
   @RHF iter  12:  -552.61109031627598   -4.22233e-10   3.48477e-08 DIIS
   @RHF iter  13:  -552.61109031638136   -1.05388e-10   1.49741e-08 DIIS
   @RHF iter  14:  -552.61109031641956   -3.81988e-11   6.78799e-09 DIIS
   @RHF iter  15:  -552.61109031642707   -7.50333e-12   2.55208e-09 DIIS
   @RHF iter  16:  -552.61109031642241    4.66116e-12   8.08706e-10 DIIS
   @RHF iter  17:  -552.61109031642309   -6.82121e-13   3.23024e-10 DIIS
   @RHF iter  18:  -552.61109031642695   -3.86535e-12   8.72453e-11 DIIS
  Energy and wave function converged.

  ==> Post-Iterations <==

    Orbital Energies [Eh]
    ---------------------

    Doubly Occupied:

       1A    -20.596028     2A    -20.504016     3A    -15.591684
       4A    -11.351853     5A    -11.310739     6A    -11.254511
       7A    -11.250060     8A    -11.248499     9A    -11.246233
      10A    -11.244042    11A    -11.240887    12A    -11.234394
      13A     -1.416108    14A     -1.370962    15A     -1.219166
      16A     -1.157102    17A     -1.044928    18A     -1.025757
      19A     -1.009966    20A     -0.934506    21A     -0.854037
      22A     -0.813930    23A     -0.804991    24A     -0.746482
      25A     -0.728660    26A     -0.677566    27A     -0.661529
      28A     -0.651197    29A     -0.620317    30A     -0.617263
      31A     -0.597943    32A     -0.595926    33A     -0.578217
      34A     -0.576828    35A     -0.570889    36A     -0.569024
      37A     -0.533387    38A     -0.527479    39A     -0.506656
      40A     -0.493997    41A     -0.475684    42A     -0.413206
      43A     -0.404130    44A     -0.347155    45A     -0.311576

    Virtual:

      46A      0.117539    47A      0.138241    48A      0.144690
      49A      0.180877    50A      0.196625    51A      0.200372
      52A      0.210751    53A      0.211561    54A      0.224124
      55A      0.250132    56A      0.252255    57A      0.263322
      58A      0.277336    59A      0.279909    60A      0.285463
      61A      0.344111    62A      0.363197    63A      0.365069
      64A      0.374713    65A      0.433473    66A      0.446212
      67A      0.459917    68A      0.478997    69A      0.483101
      70A      0.497443    71A      0.562685    72A      0.601031
      73A      0.625143    74A      0.640360    75A      0.643523
      76A      0.667587    77A      0.671730    78A      0.677976
      79A      0.687341    80A      0.697929    81A      0.700969
      82A      0.705857    83A      0.719425    84A      0.727047
      85A      0.730893    86A      0.739131    87A      0.746785
      88A      0.764143    89A      0.775736    90A      0.787709
      91A      0.804842    92A      0.824739    93A      0.837540
      94A      0.841281    95A      0.862634    96A      0.870900
      97A      0.875499    98A      0.877613    99A      0.882635
     100A      0.890410   101A      0.898870   102A      0.918472
     103A      0.924994   104A      0.928024   105A      0.933612
     106A      0.938973   107A      0.967717   108A      0.997349
     109A      1.014096   110A      1.026175   111A      1.046335
     112A      1.065148   113A      1.092690   114A      1.111302
     115A      1.118600   116A      1.130189   117A      1.137274
     118A      1.153207   119A      1.164950   120A      1.203213
     121A      1.232457   122A      1.236312   123A      1.262955
     124A      1.271442   125A      1.284845   126A      1.294710
     127A      1.298649   128A      1.338027   129A      1.348842
     130A      1.362044   131A      1.373269   132A      1.377943
     133A      1.401621   134A      1.421594   135A      1.427478
     136A      1.456331   137A      1.492014   138A      1.501933
     139A      1.508719   140A      1.527899   141A      1.542379
     142A      1.590975   143A      1.616268   144A      1.635793
     145A      1.675615   146A      1.680705   147A      1.701941
     148A      1.712081   149A      1.725184   150A      1.742341
     151A      1.766866   152A      1.785911   153A      1.792208
     154A      1.826676   155A      1.836637   156A      1.865696
     157A      1.872007   158A      1.877699   159A      1.888857
     160A      1.898027   161A      1.901315   162A      1.903029
     163A      1.910612   164A      1.918745   165A      1.934082
     166A      1.943763   167A      1.953279   168A      1.958029
     169A      1.978328   170A      1.995233   171A      2.025270
     172A      2.036148   173A      2.049020   174A      2.049758
     175A      2.055516   176A      2.062122   177A      2.080158
     178A      2.101658   179A      2.121873   180A      2.143655
     181A      2.166052   182A      2.184890   183A      2.206503
     184A      2.226051   185A      2.245707   186A      2.259107
     187A      2.292333   188A      2.314847   189A      2.322554
     190A      2.350255   191A      2.369848   192A      2.403568
     193A      2.407112   194A      2.452673   195A      2.461367
     196A      2.477113   197A      2.512021   198A      2.527452
     199A      2.534410   200A      2.562587   201A      2.588862
     202A      2.596131   203A      2.623624   204A      2.658165
     205A      2.730378   206A      2.755930   207A      2.762067
     208A      2.776560   209A      2.789523   210A      2.806391
     211A      2.816472   212A      2.841221   213A      2.867389
     214A      2.896071   215A      2.944997   216A      2.981462
     217A      2.991378   218A      3.069688   219A      3.087777
     220A      3.101659   221A      3.132479   222A      3.249004
     223A      3.258601   224A      3.267893   225A      3.340415
     226A      3.505145   227A      3.523454   228A      3.565783
     229A      3.676583   230A      3.869934   231A      3.905673
     232A      3.948614   233A      4.217227

    Final Occupation by Irrep:
              A
    DOCC [    45 ]

  @RHF Final Energy:  -552.61109031642695

   => Energetics <=

    Nuclear Repulsion Energy =            639.5539064525091817
    One-Electron Energy =               -2020.4709761503904701
    Two-Electron Energy =                 828.3059793814543355
    Total Energy =                       -552.6110903164269530

Computation Completed

Properties will be evaluated at   0.000000,   0.000000,   0.000000 [a0]

Properties computed using the SCF density matrix

  Nuclear Dipole Moment: [e a0]
     X:     0.1157      Y:    -8.4424      Z:    -0.4803

  Electronic Dipole Moment: [e a0]
     X:    -0.3461      Y:     6.4933      Z:     0.2076

  Dipole Moment: [e a0]
     X:    -0.2304      Y:    -1.9491      Z:    -0.2727     Total:     1.9815

  Dipole Moment: [D]
     X:    -0.5856      Y:    -4.9541      Z:    -0.6931     Total:     5.0365

*** tstop() called on ds3 at Sun Apr 26 22:09:49 2020
Module time:
	user time   =     121.83 seconds =       2.03 minutes
	system time =      54.61 seconds =       0.91 minutes
	total time  =        198 seconds =       3.30 minutes
Total time:
	user time   =     121.83 seconds =       2.03 minutes
	system time =      54.61 seconds =       0.91 minutes
	total time  =        198 seconds =       3.30 minutes
                                     G D M A

                                 by Anthony Stone

                           version 2.2.06, 22 June 2011

               Distributed Multipoles from Gaussian wavefunctions

Starting at 22:9:49 on 26 Apr 2020

Using SCF density matrix from file ./SSI/SSI-079TYR-167GLN-1-dimer.test.28305.fchk

                         Distributed Multipole Analysis

Standard DMA

Positions and radii in angstrom
Multipole moments in atomic units, ea_0^k for rank k

C          x = -1.532670  y = -4.647234  z =  0.999352 angstrom
           Maximum rank =  0   Radius =  0.650 angstrom
                   Q00  =  -0.195924

C          x = -0.150670  y = -0.564234  z =  0.745352 angstrom
           Maximum rank =  0   Radius =  0.650 angstrom
                   Q00  =   0.292180

C          x =  0.059330  y = -1.440234  z = -0.323648 angstrom
           Maximum rank =  0   Radius =  0.650 angstrom
                   Q00  =  -0.188634

C          x = -0.806670  y = -1.009234  z =  1.894352 angstrom
           Maximum rank =  0   Radius =  0.650 angstrom
                   Q00  =  -0.106315

C          x = -0.392670  y = -2.760234  z = -0.238648 angstrom
           Maximum rank =  0   Radius =  0.650 angstrom
                   Q00  =  -0.027531

C          x = -1.252670  y = -2.333234  z =  1.972352 angstrom
           Maximum rank =  0   Radius =  0.650 angstrom
                   Q00  =   0.031123

C          x = -1.049670  y = -3.219234  z =  0.909352 angstrom
           Maximum rank =  0   Radius =  0.650 angstrom
                   Q00  =  -0.131294

O          x =  0.294330  y =  0.722766  z =  0.669352 angstrom
           Maximum rank =  0   Radius =  0.650 angstrom
                   Q00  =  -0.673596

H          x =  0.898330  y =  0.830766  z = -0.062648 angstrom
           Maximum rank =  0   Radius =  0.325 angstrom
                   Q00  =   0.416990

H          x =  0.555330  y = -1.104234  z = -1.222648 angstrom
           Maximum rank =  0   Radius =  0.325 angstrom
                   Q00  =   0.067630

H          x = -0.967670  y = -0.323234  z =  2.714352 angstrom
           Maximum rank =  0   Radius =  0.325 angstrom
                   Q00  =   0.083716

H          x = -0.239670  y = -3.427234  z = -1.076648 angstrom
           Maximum rank =  0   Radius =  0.325 angstrom
                   Q00  =   0.072236

H          x = -1.756670  y = -2.675234  z =  2.867352 angstrom
           Maximum rank =  0   Radius =  0.325 angstrom
                   Q00  =   0.069278

H          x = -1.965670  y = -4.938234  z =  0.048352 angstrom
           Maximum rank =  0   Radius =  0.325 angstrom
                   Q00  =   0.098131

H          x = -2.328670  y = -4.710234  z =  1.743352 angstrom
           Maximum rank =  0   Radius =  0.325 angstrom
                   Q00  =   0.097281

H          x = -0.748720  y = -5.374314  z =  1.257792 angstrom
           Maximum rank =  0   Radius =  0.325 angstrom
                   Q00  =   0.101864

C          x =  2.280330  y =  2.673766  z = -1.163648 angstrom
           Maximum rank =  0   Radius =  0.650 angstrom
                   Q00  =  -0.251623

C          x =  1.051330  y =  3.491766  z = -1.516648 angstrom
           Maximum rank =  0   Radius =  0.650 angstrom
                   Q00  =   0.816256

O          x =  1.133330  y =  4.706766  z = -1.670648 angstrom
           Maximum rank =  0   Radius =  0.650 angstrom
                   Q00  =  -0.785326

N          x = -0.101670  y =  2.852766  z = -1.628648 angstrom
           Maximum rank =  0   Radius =  0.650 angstrom
                   Q00  =  -0.522003

H          x = -0.907670  y =  3.403766  z = -1.908648 angstrom
           Maximum rank =  0   Radius =  0.325 angstrom
                   Q00  =   0.220757

H          x = -0.190670  y =  1.850766  z = -1.590648 angstrom
           Maximum rank =  0   Radius =  0.325 angstrom
                   Q00  =   0.200300

H          x =  2.995330  y =  2.774766  z = -1.981648 angstrom
           Maximum rank =  0   Radius =  0.325 angstrom
                   Q00  =   0.139393

H          x =  2.036330  y =  1.617766  z = -1.064648 angstrom
           Maximum rank =  0   Radius =  0.325 angstrom
                   Q00  =   0.029346

H          x =  2.735860  y =  3.050356  z = -0.235928 angstrom
           Maximum rank =  0   Radius =  0.325 angstrom
                   Q00  =   0.145764

Total multipoles referred to origin at
           x =   0.000000,  y =    0.000000,  z =    0.000000 angstrom
                   Q00  =  -0.000000

Finished at 22:9:49 on 26 Apr 2020

  DMA results are available in the Python driver through the
	  variable('DMA DISTRIBUTED MULTIPOLES')
  and
	  variable('DMA TOTAL MULTIPOLES')
  commands.

    Psi4 stopped on: Sunday, 26 April 2020 10:09PM
    Psi4 wall time for execution: 0:03:17.95

*** Psi4 exiting successfully. Buy a developer a beer!
