                               Psi4 1.3.2 release

  ==> Input File <==

--------------------------------------------------------------------------
import numpy as np
set {scf_type pk
basis cc-pvdz
d_convergence 10
gdma_switch   0
gdma_limit    0
gdma_origin   [ 0.0,  0.0,  0.0 ]
}
molecule test {
    units Angstrom
    0 1
    --
    0 1
    C               -0.288892010905534    -0.372336590571212    -2.361121875230035
    C               -0.811892010905534     0.176663409428788    -3.689121875230035
    O               -0.006892010905534    -1.753336590571212    -2.478121875230035
    H                0.616107989094466     0.166663409428788    -2.074121875230035
    H               -1.041892010905534    -0.227336590571212    -1.585121875230036
    H               -1.624892010905534    -0.466336590571212    -4.023121875230035
    H                0.409107989094466    -2.046336590571212    -1.657121875230036
    H               -0.009952010905534     0.181193409428788    -4.442031875230036
    H               -1.207062010905534     1.193113409428788    -3.545361875230035
    C               -1.742892010905534     1.424663409428788     2.473878124769965
    C                0.660107989094466    -1.248336590571212     1.229878124769964
    C               -0.447892010905534    -0.632336590571212     1.814878124769965
    C                1.650107989094466    -0.474336590571212     0.623878124769965
    C               -0.579892010905534     0.757663409428788     1.797878124769964
    C                1.524107989094466     0.913663409428788     0.600878124769964
    C                0.411107989094466     1.524663409428788     1.184878124769964
    H                0.734107989094466    -2.322336590571211     1.246878124769965
    H               -1.193892010905534    -1.248336590571212     2.283878124769965
    H                2.506107989094466    -0.954336590571212     0.174878124769965
    H                2.290107989094466     1.522663409428788     0.139878124769965
    H               -2.594892010905534     0.762663409428788     2.433878124769965
    H               -2.006892010905534     2.325663409428789     1.918878124769964
    H                0.329107989094466     2.600663409428788     1.166878124769964
    H               -1.548612010905534     1.692333409428788     3.522978124769964

}
e, wfn = energy('scf', return_wfn=True)
gdma(wfn)
dmavals = variable('DMA DISTRIBUTED MULTIPOLES')
charges = np.array(dmavals)
print(charges)
np.save('SSI-078SER-184PHE-1-dimer.npy', np.array(charges))--------------------------------------------------------------------------

*** tstart() called on ds3
*** at Tue Apr 28 21:00:48 2020

   => Loading Basis Set <=

    Name: CC-PVDZ
    Role: ORBITAL
    Keyword: BASIS
    atoms 1-2, 10-16 entry C          line   138 file /theoryfs2/ds/metcalf/miniconda2/envs/tf2gpu/share/psi4/basis/cc-pvdz.gbs
    atoms 3          entry O          line   198 file /theoryfs2/ds/metcalf/miniconda2/envs/tf2gpu/share/psi4/basis/cc-pvdz.gbs
    atoms 4-9, 17-24 entry H          line    22 file /theoryfs2/ds/metcalf/miniconda2/envs/tf2gpu/share/psi4/basis/cc-pvdz.gbs

         ---------------------------------------------------------
                                   SCF
               by Justin Turney, Rob Parrish, Andy Simmonett
                          and Daniel G. A. Smith
                              RHF Reference
                        1 Threads,    500 MiB Core
         ---------------------------------------------------------

  ==> Geometry <==

    Molecular point group: c1
    Full point group: C1

    Geometry (in Angstrom), charge = 0, multiplicity = 1:

       Center              X                  Y                   Z               Mass
    ------------   -----------------  -----------------  -----------------  -----------------
         C           -0.288892010906    -0.372336590571    -2.361121875230    12.000000000000
         C           -0.811892010906     0.176663409429    -3.689121875230    12.000000000000
         O           -0.006892010906    -1.753336590571    -2.478121875230    15.994914619570
         H            0.616107989094     0.166663409429    -2.074121875230     1.007825032230
         H           -1.041892010906    -0.227336590571    -1.585121875230     1.007825032230
         H           -1.624892010906    -0.466336590571    -4.023121875230     1.007825032230
         H            0.409107989094    -2.046336590571    -1.657121875230     1.007825032230
         H           -0.009952010906     0.181193409429    -4.442031875230     1.007825032230
         H           -1.207062010906     1.193113409429    -3.545361875230     1.007825032230
         C           -1.742892010906     1.424663409429     2.473878124770    12.000000000000
         C            0.660107989094    -1.248336590571     1.229878124770    12.000000000000
         C           -0.447892010906    -0.632336590571     1.814878124770    12.000000000000
         C            1.650107989094    -0.474336590571     0.623878124770    12.000000000000
         C           -0.579892010906     0.757663409429     1.797878124770    12.000000000000
         C            1.524107989094     0.913663409429     0.600878124770    12.000000000000
         C            0.411107989094     1.524663409429     1.184878124770    12.000000000000
         H            0.734107989094    -2.322336590571     1.246878124770     1.007825032230
         H           -1.193892010906    -1.248336590571     2.283878124770     1.007825032230
         H            2.506107989094    -0.954336590571     0.174878124770     1.007825032230
         H            2.290107989094     1.522663409429     0.139878124770     1.007825032230
         H           -2.594892010906     0.762663409429     2.433878124770     1.007825032230
         H           -2.006892010906     2.325663409429     1.918878124770     1.007825032230
         H            0.329107989094     2.600663409429     1.166878124770     1.007825032230
         H           -1.548612010906     1.692333409429     3.522978124770     1.007825032230

  Running in c1 symmetry.

  Rotational constants: A =      0.05750  B =      0.02213  C =      0.02023 [cm^-1]
  Rotational constants: A =   1723.75676  B =    663.53827  C =    606.51119 [MHz]
  Nuclear repulsion =  498.817102205918616

  Charge       = 0
  Multiplicity = 1
  Electrons    = 76
  Nalpha       = 38
  Nbeta        = 38

  ==> Algorithm <==

  SCF Algorithm Type is PK.
  DIIS enabled.
  MOM disabled.
  Fractional occupation disabled.
  Guess Type is SAD.
  Energy threshold   = 1.00e-06
  Density threshold  = 1.00e-10
  Integral threshold = 0.00e+00

  ==> Primary Basis <==

  Basis Set: CC-PVDZ
    Blend: CC-PVDZ
    Number of shells: 102
    Number of basis function: 210
    Number of Cartesian functions: 220
    Spherical Harmonics?: true
    Max angular momentum: 2

  ==> Pre-Iterations <==

   -------------------------------------------------------
    Irrep   Nso     Nmo     Nalpha   Nbeta   Ndocc  Nsocc
   -------------------------------------------------------
     A        210     210       0       0       0       0
   -------------------------------------------------------
    Total     210     210      38      38      38       0
   -------------------------------------------------------

  ==> Integral Setup <==

  Using integral reordering PK algorithm.
  Sizing the integral batches needed.
  Building batch lookup table.
   Calculation information:
      Number of atoms:                  24
      Number of AO shells:             102
      Number of primitives:            290
      Number of atomic orbitals:       220
      Number of basis functions:       210

      Integral cutoff                 1.00e-12
      Number of threads:                 1

	Batch   1 pq = [       0,    9405] index = [             0,44231715] size =     44231715
	Batch   2 pq = [    9405,   13301] index = [      44231715,88464951] size =     44233236
	Batch   3 pq = [   13301,   16290] index = [      88464951,132690195] size =     44225244
	Batch   4 pq = [   16290,   18810] index = [     132690195,176917455] size =     44227260
	Batch   5 pq = [   18810,   21030] index = [     176917455,221140965] size =     44223510
	Batch   6 pq = [   21030,   22155] index = [     221140965,245433090] size =     24292125
  Task number: 23
  Buffer size: 11059200
  Buffer per thread: 2
  We computed 12540273 shell quartets total.
  Whereas there are 13799631 unique shell quartets.

  ==> DiskJK: Disk-Based J/K Matrices <==

    J tasked:                  Yes
    K tasked:                  Yes
    wK tasked:                  No
    Memory [MiB]:              375
    Schwarz Cutoff:          1E-12

    OpenMP threads:              1

  Minimum eigenvalue in the overlap matrix is 3.1700175320E-04.
  Using Symmetric Orthogonalization.

  SCF Guess: Superposition of Atomic Densities via on-the-fly atomic UHF.

  ==> Iterations <==

                        Total Energy        Delta E     RMS |[F,P]|

   @RHF iter SAD:  -422.58480187557939   -4.22585e+02   0.00000e+00
   @RHF iter   1:  -423.60673301012190   -1.02193e+00   2.93580e-03 DIIS
   @RHF iter   2:  -423.81295076364194   -2.06218e-01   1.31791e-03 DIIS
   @RHF iter   3:  -423.84823282082931   -3.52821e-02   2.81929e-04 DIIS
   @RHF iter   4:  -423.85099032992844   -2.75751e-03   8.68374e-05 DIIS
   @RHF iter   5:  -423.85117276732274   -1.82437e-04   1.82012e-05 DIIS
   @RHF iter   6:  -423.85118327135444   -1.05040e-05   5.42918e-06 DIIS
   @RHF iter   7:  -423.85118423169666   -9.60342e-07   1.84359e-06 DIIS
   @RHF iter   8:  -423.85118433762085   -1.05924e-07   4.30311e-07 DIIS
   @RHF iter   9:  -423.85118434695380   -9.33295e-09   1.68253e-07 DIIS
   @RHF iter  10:  -423.85118434842087   -1.46707e-09   5.09960e-08 DIIS
   @RHF iter  11:  -423.85118434870759   -2.86718e-10   2.11384e-08 DIIS
   @RHF iter  12:  -423.85118434876824   -6.06519e-11   1.04431e-08 DIIS
   @RHF iter  13:  -423.85118434878171   -1.34719e-11   3.74049e-09 DIIS
   @RHF iter  14:  -423.85118434878552   -3.80851e-12   1.00428e-09 DIIS
   @RHF iter  15:  -423.85118434878200    3.52429e-12   3.83366e-10 DIIS
   @RHF iter  16:  -423.85118434878586   -3.86535e-12   1.43510e-10 DIIS
   @RHF iter  17:  -423.85118434878439    1.47793e-12   6.57653e-11 DIIS
  Energy and wave function converged.

  ==> Post-Iterations <==

    Orbital Energies [Eh]
    ---------------------

    Doubly Occupied:

       1A    -20.535000     2A    -11.260107     3A    -11.249113
       4A    -11.245136     5A    -11.244872     6A    -11.241186
       7A    -11.239290     8A    -11.239087     9A    -11.233664
      10A    -11.212258    11A     -1.339513    12A     -1.159818
      13A     -1.052697    14A     -1.019401    15A     -0.995951
      16A     -0.939111    17A     -0.833304    18A     -0.819188
      19A     -0.804351    20A     -0.699533    21A     -0.679108
      22A     -0.640064    23A     -0.638725    24A     -0.630540
      25A     -0.591043    26A     -0.583405    27A     -0.571218
      28A     -0.554014    29A     -0.542409    30A     -0.522584
      31A     -0.516230    32A     -0.495837    33A     -0.493445
      34A     -0.489552    35A     -0.462314    36A     -0.421784
      37A     -0.339822    38A     -0.330201

    Virtual:

      39A      0.123714    40A      0.130674    41A      0.168466
      42A      0.190534    43A      0.204384    44A      0.208167
      45A      0.230975    46A      0.241705    47A      0.253242
      48A      0.255518    49A      0.267446    50A      0.275431
      51A      0.278084    52A      0.280368    53A      0.294461
      54A      0.315024    55A      0.355630    56A      0.370230
      57A      0.396674    58A      0.403699    59A      0.444451
      60A      0.454816    61A      0.473787    62A      0.482104
      63A      0.555547    64A      0.580312    65A      0.593485
      66A      0.616528    67A      0.636219    68A      0.661764
      69A      0.671915    70A      0.680027    71A      0.696713
      72A      0.721349    73A      0.730224    74A      0.730701
      75A      0.732186    76A      0.750207    77A      0.755087
      78A      0.768876    79A      0.784620    80A      0.793505
      81A      0.810142    82A      0.833291    83A      0.844220
      84A      0.847275    85A      0.862415    86A      0.870189
      87A      0.876363    88A      0.889898    89A      0.890716
      90A      0.894421    91A      0.903266    92A      0.916806
      93A      0.919575    94A      0.921083    95A      0.935104
      96A      0.954609    97A      0.963570    98A      0.980192
      99A      0.990755   100A      1.015328   101A      1.053733
     102A      1.110428   103A      1.136713   104A      1.139906
     105A      1.147652   106A      1.156169   107A      1.161202
     108A      1.175177   109A      1.196462   110A      1.227451
     111A      1.236268   112A      1.245216   113A      1.266339
     114A      1.286403   115A      1.299464   116A      1.302901
     117A      1.313669   118A      1.323425   119A      1.345133
     120A      1.404719   121A      1.467422   122A      1.487163
     123A      1.502375   124A      1.510599   125A      1.539331
     126A      1.551000   127A      1.582221   128A      1.598567
     129A      1.622445   130A      1.670089   131A      1.689088
     132A      1.699370   133A      1.723059   134A      1.747050
     135A      1.754618   136A      1.782360   137A      1.785216
     138A      1.821580   139A      1.857004   140A      1.872499
     141A      1.883403   142A      1.890421   143A      1.894800
     144A      1.901793   145A      1.906099   146A      1.915878
     147A      1.916948   148A      1.936767   149A      1.942119
     150A      1.945321   151A      1.957197   152A      1.968859
     153A      1.976642   154A      1.987959   155A      1.990951
     156A      2.011685   157A      2.025451   158A      2.040851
     159A      2.069408   160A      2.079226   161A      2.107983
     162A      2.124735   163A      2.141048   164A      2.145733
     165A      2.153911   166A      2.165306   167A      2.172550
     168A      2.225978   169A      2.252043   170A      2.255499
     171A      2.274120   172A      2.285269   173A      2.293861
     174A      2.299950   175A      2.309373   176A      2.325247
     177A      2.346419   178A      2.462437   179A      2.477145
     180A      2.482246   181A      2.501848   182A      2.507100
     183A      2.533213   184A      2.558497   185A      2.600939
     186A      2.614844   187A      2.737130   188A      2.751208
     189A      2.767755   190A      2.768962   191A      2.775915
     192A      2.791481   193A      2.804046   194A      2.808448
     195A      2.845433   196A      2.876609   197A      2.896196
     198A      2.943871   199A      2.986345   200A      3.006790
     201A      3.014887   202A      3.145313   203A      3.194440
     204A      3.285006   205A      3.345734   206A      3.430583
     207A      3.480553   208A      3.630417   209A      3.954608
     210A      4.144401

    Final Occupation by Irrep:
              A
    DOCC [    38 ]

  @RHF Final Energy:  -423.85118434878439

   => Energetics <=

    Nuclear Repulsion Energy =            498.8171022059186157
    One-Electron Energy =               -1563.6068262342168964
    Two-Electron Energy =                 640.9385396795138377
    Total Energy =                       -423.8511843487843862

Computation Completed

Properties will be evaluated at   0.000000,   0.000000,   0.000000 [a0]

Properties computed using the SCF density matrix

  Nuclear Dipole Moment: [e a0]
     X:    -4.0719      Y:     2.9727      Z:    -4.1731

  Electronic Dipole Moment: [e a0]
     X:     4.1093      Y:    -2.4604      Z:     4.9572

  Dipole Moment: [e a0]
     X:     0.0374      Y:     0.5123      Z:     0.7840     Total:     0.9373

  Dipole Moment: [D]
     X:     0.0951      Y:     1.3021      Z:     1.9928     Total:     2.3824

*** tstop() called on ds3 at Tue Apr 28 21:04:57 2020
Module time:
	user time   =      89.95 seconds =       1.50 minutes
	system time =      33.94 seconds =       0.57 minutes
	total time  =        249 seconds =       4.15 minutes
Total time:
	user time   =      89.95 seconds =       1.50 minutes
	system time =      33.94 seconds =       0.57 minutes
	total time  =        249 seconds =       4.15 minutes
                                     G D M A

                                 by Anthony Stone

                           version 2.2.06, 22 June 2011

               Distributed Multipoles from Gaussian wavefunctions

Starting at 21:4:57 on 28 Apr 2020

Using SCF density matrix from file ./SSI/SSI-078SER-184PHE-1-dimer.test.7786.fchk

                         Distributed Multipole Analysis

Standard DMA

Positions and radii in angstrom
Multipole moments in atomic units, ea_0^k for rank k

C          x = -0.288892  y = -0.372337  z = -2.361122 angstrom
           Maximum rank =  0   Radius =  0.650 angstrom
                   Q00  =   0.099296

C          x = -0.811892  y =  0.176663  z = -3.689122 angstrom
           Maximum rank =  0   Radius =  0.650 angstrom
                   Q00  =  -0.236072

O          x = -0.006892  y = -1.753337  z = -2.478122 angstrom
           Maximum rank =  0   Radius =  0.650 angstrom
                   Q00  =  -0.594357

H          x =  0.616108  y =  0.166663  z = -2.074122 angstrom
           Maximum rank =  0   Radius =  0.325 angstrom
                   Q00  =   0.038832

H          x = -1.041892  y = -0.227337  z = -1.585122 angstrom
           Maximum rank =  0   Radius =  0.325 angstrom
                   Q00  =   0.041823

H          x = -1.624892  y = -0.466337  z = -4.023122 angstrom
           Maximum rank =  0   Radius =  0.325 angstrom
                   Q00  =   0.089911

H          x =  0.409108  y = -2.046337  z = -1.657122 angstrom
           Maximum rank =  0   Radius =  0.325 angstrom
                   Q00  =   0.394010

H          x = -0.009952  y =  0.181193  z = -4.442032 angstrom
           Maximum rank =  0   Radius =  0.325 angstrom
                   Q00  =   0.084602

H          x = -1.207062  y =  1.193113  z = -3.545362 angstrom
           Maximum rank =  0   Radius =  0.325 angstrom
                   Q00  =   0.080385

C          x = -1.742892  y =  1.424663  z =  2.473878 angstrom
           Maximum rank =  0   Radius =  0.650 angstrom
                   Q00  =  -0.203972

C          x =  0.660108  y = -1.248337  z =  1.229878 angstrom
           Maximum rank =  0   Radius =  0.650 angstrom
                   Q00  =  -0.081709

C          x = -0.447892  y = -0.632337  z =  1.814878 angstrom
           Maximum rank =  0   Radius =  0.650 angstrom
                   Q00  =  -0.054590

C          x =  1.650108  y = -0.474337  z =  0.623878 angstrom
           Maximum rank =  0   Radius =  0.650 angstrom
                   Q00  =  -0.095917

C          x = -0.579892  y =  0.757663  z =  1.797878 angstrom
           Maximum rank =  0   Radius =  0.650 angstrom
                   Q00  =  -0.097749

C          x =  1.524108  y =  0.913663  z =  0.600878 angstrom
           Maximum rank =  0   Radius =  0.650 angstrom
                   Q00  =  -0.076720

C          x =  0.411108  y =  1.524663  z =  1.184878 angstrom
           Maximum rank =  0   Radius =  0.650 angstrom
                   Q00  =  -0.014218

H          x =  0.734108  y = -2.322337  z =  1.246878 angstrom
           Maximum rank =  0   Radius =  0.325 angstrom
                   Q00  =   0.066262

H          x = -1.193892  y = -1.248337  z =  2.283878 angstrom
           Maximum rank =  0   Radius =  0.325 angstrom
                   Q00  =   0.061090

H          x =  2.506108  y = -0.954337  z =  0.174878 angstrom
           Maximum rank =  0   Radius =  0.325 angstrom
                   Q00  =   0.063100

H          x =  2.290108  y =  1.522663  z =  0.139878 angstrom
           Maximum rank =  0   Radius =  0.325 angstrom
                   Q00  =   0.068700

H          x = -2.594892  y =  0.762663  z =  2.433878 angstrom
           Maximum rank =  0   Radius =  0.325 angstrom
                   Q00  =   0.101371

H          x = -2.006892  y =  2.325663  z =  1.918878 angstrom
           Maximum rank =  0   Radius =  0.325 angstrom
                   Q00  =   0.098531

H          x =  0.329108  y =  2.600663  z =  1.166878 angstrom
           Maximum rank =  0   Radius =  0.325 angstrom
                   Q00  =   0.060012

H          x = -1.548612  y =  1.692333  z =  3.522978 angstrom
           Maximum rank =  0   Radius =  0.325 angstrom
                   Q00  =   0.107380

Total multipoles referred to origin at
           x =   0.000000,  y =    0.000000,  z =    0.000000 angstrom
                   Q00  =  -0.000000

Finished at 21:4:57 on 28 Apr 2020

  DMA results are available in the Python driver through the
	  variable('DMA DISTRIBUTED MULTIPOLES')
  and
	  variable('DMA TOTAL MULTIPOLES')
  commands.

    Psi4 stopped on: Tuesday, 28 April 2020 09:04PM
    Psi4 wall time for execution: 0:04:08.74

*** Psi4 exiting successfully. Buy a developer a beer!
