                               Psi4 1.3.2 release

  ==> Input File <==

--------------------------------------------------------------------------
import numpy as np
set {scf_type pk
basis cc-pvdz
d_convergence 10
gdma_switch   0
gdma_limit    0
gdma_origin   [ 0.0,  0.0,  0.0 ]
}
molecule test {
    units Angstrom
    -1 1
    --
    -1 1
    C                3.882948803797909     1.713955761493740     0.608578065603226
    C               -0.321051196202091     0.894955761493740     0.334578065603226
    C                0.125948803797909     2.191955761493740     0.501578065603226
    C                0.590948803797909    -0.132044238506260     0.258578065603226
    C                1.493948803797909     2.458955761493740     0.575578065603226
    C                1.960948803797909     0.130955761493740     0.329578065603226
    C                2.419948803797909     1.430955761493740     0.480578065603226
    H               -1.375051196202091     0.682955761493740     0.258578065603226
    H               -0.580051196202091     3.005955761493740     0.577578065603226
    H                0.253948803797909    -1.150044238506260     0.141578065603226
    H                1.824948803797910     3.477955761493740     0.722578065603226
    H                2.662948803797909    -0.690044238506260     0.272578065603226
    H                4.444948803797908     0.779955761493740     0.554578065603226
    H                4.063948803797910     2.135955761493740     1.594578065603226
    H                4.275458803797910     2.409894761493740    -0.147471934396774
    C               -2.362051196202091    -1.454044238506260    -2.052421934396774
    C               -2.338051196202091    -1.974044238506260    -0.614421934396774
    O               -3.119051196202091    -1.484044238506260     0.241578065603226
    O               -1.510051196202091    -2.883044238506260    -0.352421934396774
    H               -2.216051196202091    -2.294044238506260    -2.735421934396774
    H               -1.528051196202090    -0.764044238506260    -2.187421934396774
    H               -3.294141196202090    -0.934625238506260    -2.319651934396774

}
e, wfn = energy('scf', return_wfn=True)
gdma(wfn)
dmavals = variable('DMA DISTRIBUTED MULTIPOLES')
charges = np.array(dmavals)
print(charges)
np.save('SSI-017PHE-077ASP-1-dimer.npy', np.array(charges))--------------------------------------------------------------------------

*** tstart() called on ds3
*** at Tue Apr 28 10:09:12 2020

   => Loading Basis Set <=

    Name: CC-PVDZ
    Role: ORBITAL
    Keyword: BASIS
    atoms 1-7, 16-17  entry C          line   138 file /theoryfs2/ds/metcalf/miniconda2/envs/tf2gpu/share/psi4/basis/cc-pvdz.gbs
    atoms 8-15, 20-22 entry H          line    22 file /theoryfs2/ds/metcalf/miniconda2/envs/tf2gpu/share/psi4/basis/cc-pvdz.gbs
    atoms 18-19       entry O          line   198 file /theoryfs2/ds/metcalf/miniconda2/envs/tf2gpu/share/psi4/basis/cc-pvdz.gbs

         ---------------------------------------------------------
                                   SCF
               by Justin Turney, Rob Parrish, Andy Simmonett
                          and Daniel G. A. Smith
                              RHF Reference
                        1 Threads,    500 MiB Core
         ---------------------------------------------------------

  ==> Geometry <==

    Molecular point group: c1
    Full point group: C1

    Geometry (in Angstrom), charge = -1, multiplicity = 1:

       Center              X                  Y                   Z               Mass
    ------------   -----------------  -----------------  -----------------  -----------------
         C            3.882948803798     1.713955761494     0.608578065603    12.000000000000
         C           -0.321051196202     0.894955761494     0.334578065603    12.000000000000
         C            0.125948803798     2.191955761494     0.501578065603    12.000000000000
         C            0.590948803798    -0.132044238506     0.258578065603    12.000000000000
         C            1.493948803798     2.458955761494     0.575578065603    12.000000000000
         C            1.960948803798     0.130955761494     0.329578065603    12.000000000000
         C            2.419948803798     1.430955761494     0.480578065603    12.000000000000
         H           -1.375051196202     0.682955761494     0.258578065603     1.007825032230
         H           -0.580051196202     3.005955761494     0.577578065603     1.007825032230
         H            0.253948803798    -1.150044238506     0.141578065603     1.007825032230
         H            1.824948803798     3.477955761494     0.722578065603     1.007825032230
         H            2.662948803798    -0.690044238506     0.272578065603     1.007825032230
         H            4.444948803798     0.779955761494     0.554578065603     1.007825032230
         H            4.063948803798     2.135955761494     1.594578065603     1.007825032230
         H            4.275458803798     2.409894761494    -0.147471934397     1.007825032230
         C           -2.362051196202    -1.454044238506    -2.052421934397    12.000000000000
         C           -2.338051196202    -1.974044238506    -0.614421934397    12.000000000000
         O           -3.119051196202    -1.484044238506     0.241578065603    15.994914619570
         O           -1.510051196202    -2.883044238506    -0.352421934397    15.994914619570
         H           -2.216051196202    -2.294044238506    -2.735421934397     1.007825032230
         H           -1.528051196202    -0.764044238506    -2.187421934397     1.007825032230
         H           -3.294141196202    -0.934625238506    -2.319651934397     1.007825032230

  Running in c1 symmetry.

  Rotational constants: A =      0.08191  B =      0.01444  C =      0.01332 [cm^-1]
  Rotational constants: A =   2455.55957  B =    432.94902  C =    399.18956 [MHz]
  Nuclear repulsion =  544.473968267483883

  Charge       = -1
  Multiplicity = 1
  Electrons    = 82
  Nalpha       = 41
  Nbeta        = 41

  ==> Algorithm <==

  SCF Algorithm Type is PK.
  DIIS enabled.
  MOM disabled.
  Fractional occupation disabled.
  Guess Type is SAD.
  Energy threshold   = 1.00e-06
  Density threshold  = 1.00e-10
  Integral threshold = 0.00e+00

  ==> Primary Basis <==

  Basis Set: CC-PVDZ
    Blend: CC-PVDZ
    Number of shells: 99
    Number of basis function: 209
    Number of Cartesian functions: 220
    Spherical Harmonics?: true
    Max angular momentum: 2

  ==> Pre-Iterations <==

   -------------------------------------------------------
    Irrep   Nso     Nmo     Nalpha   Nbeta   Ndocc  Nsocc
   -------------------------------------------------------
     A        209     209       0       0       0       0
   -------------------------------------------------------
    Total     209     209      41      41      41       0
   -------------------------------------------------------

  ==> Integral Setup <==

  Using integral reordering PK algorithm.
  Sizing the integral batches needed.
  Building batch lookup table.
   Calculation information:
      Number of atoms:                  22
      Number of AO shells:              99
      Number of primitives:            297
      Number of atomic orbitals:       220
      Number of basis functions:       209

      Integral cutoff                 1.00e-12
      Number of threads:                 1

	Batch   1 pq = [       0,    9405] index = [             0,44231715] size =     44231715
	Batch   2 pq = [    9405,   13301] index = [      44231715,88464951] size =     44233236
	Batch   3 pq = [   13301,   16290] index = [      88464951,132690195] size =     44225244
	Batch   4 pq = [   16290,   18810] index = [     132690195,176917455] size =     44227260
	Batch   5 pq = [   18810,   21030] index = [     176917455,221140965] size =     44223510
	Batch   6 pq = [   21030,   21945] index = [     221140965,240802485] size =     19661520
  Task number: 22
  Buffer size: 11059200
  Buffer per thread: 2
  We computed 10308703 shell quartets total.
  Whereas there are 12253725 unique shell quartets.

  ==> DiskJK: Disk-Based J/K Matrices <==

    J tasked:                  Yes
    K tasked:                  Yes
    wK tasked:                  No
    Memory [MiB]:              375
    Schwarz Cutoff:          1E-12

    OpenMP threads:              1

  Minimum eigenvalue in the overlap matrix is 2.9194515504E-04.
  Using Symmetric Orthogonalization.

  SCF Guess: Superposition of Atomic Densities via on-the-fly atomic UHF.

  ==> Iterations <==

                        Total Energy        Delta E     RMS |[F,P]|

   @RHF iter SAD:  -495.41997535082436   -4.95420e+02   0.00000e+00
   @RHF iter   1:  -496.67656430844784   -1.25659e+00   3.74836e-03 DIIS
   @RHF iter   2:  -496.93800872324590   -2.61444e-01   2.04779e-03 DIIS
   @RHF iter   3:  -497.00715718540988   -6.91485e-02   3.47499e-04 DIIS
   @RHF iter   4:  -497.01069343150897   -3.53625e-03   1.25400e-04 DIIS
   @RHF iter   5:  -497.01114827257391   -4.54841e-04   1.93626e-05 DIIS
   @RHF iter   6:  -497.01116272494244   -1.44524e-05   5.92899e-06 DIIS
   @RHF iter   7:  -497.01116407617786   -1.35124e-06   2.20248e-06 DIIS
   @RHF iter   8:  -497.01116424524560   -1.69068e-07   6.99415e-07 DIIS
   @RHF iter   9:  -497.01116426920612   -2.39605e-08   2.99465e-07 DIIS
   @RHF iter  10:  -497.01116427471203   -5.50591e-09   1.03723e-07 DIIS
   @RHF iter  11:  -497.01116427576596   -1.05393e-09   4.33406e-08 DIIS
   @RHF iter  12:  -497.01116427591319   -1.47224e-10   2.29457e-08 DIIS
   @RHF iter  13:  -497.01116427595440   -4.12115e-11   8.78849e-09 DIIS
   @RHF iter  14:  -497.01116427596492   -1.05160e-11   3.43362e-09 DIIS
   @RHF iter  15:  -497.01116427596912   -4.20641e-12   1.30899e-09 DIIS
   @RHF iter  16:  -497.01116427596855    5.68434e-13   5.58876e-10 DIIS
   @RHF iter  17:  -497.01116427596355    5.00222e-12   2.55242e-10 DIIS
   @RHF iter  18:  -497.01116427596469   -1.13687e-12   7.44637e-11 DIIS
  Energy and wave function converged.

  ==> Post-Iterations <==

    Orbital Energies [Eh]
    ---------------------

    Doubly Occupied:

       1A    -20.270922     2A    -20.269106     3A    -11.143523
       4A    -11.135733     5A    -11.127315     6A    -11.126453
       7A    -11.126014     8A    -11.120816     9A    -11.109660
      10A    -11.107372    11A    -11.055694    12A     -1.153617
      13A     -1.048479    14A     -1.042132    15A     -0.945174
      16A     -0.900878    17A     -0.834784    18A     -0.800198
      19A     -0.717372    20A     -0.687232    21A     -0.582029
      22A     -0.528379    23A     -0.519472    24A     -0.507906
      25A     -0.490671    26A     -0.470704    27A     -0.460024
      28A     -0.442864    29A     -0.414552    30A     -0.412401
      31A     -0.407974    32A     -0.381211    33A     -0.377395
      34A     -0.370349    35A     -0.348068    36A     -0.308469
      37A     -0.223170    38A     -0.215293    39A     -0.190862
      40A     -0.181392    41A     -0.168765

    Virtual:

      42A      0.243202    43A      0.251536    44A      0.272021
      45A      0.302916    46A      0.316239    47A      0.347031
      48A      0.351368    49A      0.354520    50A      0.371505
      51A      0.394664    52A      0.411859    53A      0.427314
      54A      0.457375    55A      0.472655    56A      0.475993
      57A      0.478757    58A      0.560548    59A      0.568589
      60A      0.576998    61A      0.588196    62A      0.609305
      63A      0.660136    64A      0.700551    65A      0.712558
      66A      0.729737    67A      0.741841    68A      0.788732
      69A      0.800615    70A      0.807611    71A      0.821373
      72A      0.826405    73A      0.842600    74A      0.848676
      75A      0.850784    76A      0.857748    77A      0.864864
      78A      0.880660    79A      0.897617    80A      0.901364
      81A      0.925184    82A      0.962132    83A      0.965612
      84A      0.971809    85A      0.973363    86A      0.986395
      87A      0.996253    88A      1.013311    89A      1.022471
      90A      1.025366    91A      1.029630    92A      1.038719
      93A      1.044466    94A      1.060446    95A      1.078012
      96A      1.113627    97A      1.121514    98A      1.125169
      99A      1.141108   100A      1.160936   101A      1.209527
     102A      1.248686   103A      1.252011   104A      1.268129
     105A      1.304864   106A      1.311725   107A      1.325186
     108A      1.342327   109A      1.345232   110A      1.360853
     111A      1.365175   112A      1.380410   113A      1.404077
     114A      1.417013   115A      1.424861   116A      1.438369
     117A      1.446442   118A      1.516297   119A      1.569651
     120A      1.578213   121A      1.586061   122A      1.609944
     123A      1.635322   124A      1.655755   125A      1.658371
     126A      1.676419   127A      1.727041   128A      1.732626
     129A      1.738213   130A      1.764654   131A      1.786996
     132A      1.836269   133A      1.838743   134A      1.849651
     135A      1.860802   136A      1.879790   137A      1.900726
     138A      1.928184   139A      1.966386   140A      1.992855
     141A      2.003909   142A      2.020516   143A      2.030394
     144A      2.036102   145A      2.042969   146A      2.050296
     147A      2.066113   148A      2.070389   149A      2.081868
     150A      2.092132   151A      2.098658   152A      2.128109
     153A      2.138806   154A      2.149244   155A      2.166508
     156A      2.191227   157A      2.204962   158A      2.231104
     159A      2.235248   160A      2.241104   161A      2.280170
     162A      2.290109   163A      2.294717   164A      2.335211
     165A      2.350270   166A      2.369117   167A      2.382772
     168A      2.400431   169A      2.403986   170A      2.438168
     171A      2.452034   172A      2.475520   173A      2.498463
     174A      2.547774   175A      2.571620   176A      2.598124
     177A      2.628526   178A      2.647450   179A      2.682484
     180A      2.729385   181A      2.744794   182A      2.759343
     183A      2.836872   184A      2.855504   185A      2.873559
     186A      2.914910   187A      2.924660   188A      2.941247
     189A      2.949352   190A      2.970882   191A      2.982216
     192A      2.988450   193A      3.103143   194A      3.128885
     195A      3.161419   196A      3.234417   197A      3.267120
     198A      3.284825   199A      3.287248   200A      3.336230
     201A      3.354973   202A      3.429567   203A      3.620767
     204A      3.770072   205A      3.817130   206A      4.048902
     207A      4.070971   208A      4.104441   209A      4.171761

    Final Occupation by Irrep:
              A
    DOCC [    41 ]

  @RHF Final Energy:  -497.01116427596469

   => Energetics <=

    Nuclear Repulsion Energy =            544.4739682674838832
    One-Electron Energy =               -1769.5214155983649107
    Two-Electron Energy =                 728.0362830549162254
    Total Energy =                       -497.0111642759646884

Computation Completed

Properties will be evaluated at   0.000000,   0.000000,   0.000000 [a0]

Properties computed using the SCF density matrix

  Nuclear Dipole Moment: [e a0]
     X:     7.9771      Y:     6.2224      Z:    -3.0641

  Electronic Dipole Moment: [e a0]
     X:    -4.2611      Y:    -2.7031      Z:     2.8687

  Dipole Moment: [e a0]
     X:     3.7159      Y:     3.5193      Z:    -0.1955     Total:     5.1217

  Dipole Moment: [D]
     X:     9.4450      Y:     8.9452      Z:    -0.4968     Total:    13.0181

*** tstop() called on ds3 at Tue Apr 28 10:12:09 2020
Module time:
	user time   =      86.45 seconds =       1.44 minutes
	system time =      37.15 seconds =       0.62 minutes
	total time  =        177 seconds =       2.95 minutes
Total time:
	user time   =      86.45 seconds =       1.44 minutes
	system time =      37.15 seconds =       0.62 minutes
	total time  =        177 seconds =       2.95 minutes
                                     G D M A

                                 by Anthony Stone

                           version 2.2.06, 22 June 2011

               Distributed Multipoles from Gaussian wavefunctions

Starting at 10:12:10 on 28 Apr 2020

Using SCF density matrix from file ./SSI/SSI-017PHE-077ASP-1-dimer.test.32623.fchk

                         Distributed Multipole Analysis

Standard DMA

Positions and radii in angstrom
Multipole moments in atomic units, ea_0^k for rank k

C          x =  3.882949  y =  1.713956  z =  0.608578 angstrom
           Maximum rank =  0   Radius =  0.650 angstrom
                   Q00  =  -0.204342

C          x = -0.321051  y =  0.894956  z =  0.334578 angstrom
           Maximum rank =  0   Radius =  0.650 angstrom
                   Q00  =  -0.043793

C          x =  0.125949  y =  2.191956  z =  0.501578 angstrom
           Maximum rank =  0   Radius =  0.650 angstrom
                   Q00  =  -0.040452

C          x =  0.590949  y = -0.132044  z =  0.258578 angstrom
           Maximum rank =  0   Radius =  0.650 angstrom
                   Q00  =   0.040872

C          x =  1.493949  y =  2.458956  z =  0.575578 angstrom
           Maximum rank =  0   Radius =  0.650 angstrom
                   Q00  =  -0.104562

C          x =  1.960949  y =  0.130956  z =  0.329578 angstrom
           Maximum rank =  0   Radius =  0.650 angstrom
                   Q00  =  -0.016104

C          x =  2.419949  y =  1.430956  z =  0.480578 angstrom
           Maximum rank =  0   Radius =  0.650 angstrom
                   Q00  =  -0.115917

H          x = -1.375051  y =  0.682956  z =  0.258578 angstrom
           Maximum rank =  0   Radius =  0.325 angstrom
                   Q00  =   0.043194

H          x = -0.580051  y =  3.005956  z =  0.577578 angstrom
           Maximum rank =  0   Radius =  0.325 angstrom
                   Q00  =   0.041624

H          x =  0.253949  y = -1.150044  z =  0.141578 angstrom
           Maximum rank =  0   Radius =  0.325 angstrom
                   Q00  =   0.058437

H          x =  1.824949  y =  3.477956  z =  0.722578 angstrom
           Maximum rank =  0   Radius =  0.325 angstrom
                   Q00  =   0.024934

H          x =  2.662949  y = -0.690044  z =  0.272578 angstrom
           Maximum rank =  0   Radius =  0.325 angstrom
                   Q00  =   0.038748

H          x =  4.444949  y =  0.779956  z =  0.554578 angstrom
           Maximum rank =  0   Radius =  0.325 angstrom
                   Q00  =   0.089767

H          x =  4.063949  y =  2.135956  z =  1.594578 angstrom
           Maximum rank =  0   Radius =  0.325 angstrom
                   Q00  =   0.087443

H          x =  4.275459  y =  2.409895  z = -0.147472 angstrom
           Maximum rank =  0   Radius =  0.325 angstrom
                   Q00  =   0.084954

C          x = -2.362051  y = -1.454044  z = -2.052422 angstrom
           Maximum rank =  0   Radius =  0.650 angstrom
                   Q00  =  -0.289180

C          x = -2.338051  y = -1.974044  z = -0.614422 angstrom
           Maximum rank =  0   Radius =  0.650 angstrom
                   Q00  =   0.955178

O          x = -3.119051  y = -1.484044  z =  0.241578 angstrom
           Maximum rank =  0   Radius =  0.650 angstrom
                   Q00  =  -0.916998

O          x = -1.510051  y = -2.883044  z = -0.352422 angstrom
           Maximum rank =  0   Radius =  0.650 angstrom
                   Q00  =  -0.928850

H          x = -2.216051  y = -2.294044  z = -2.735422 angstrom
           Maximum rank =  0   Radius =  0.325 angstrom
                   Q00  =   0.063145

H          x = -1.528051  y = -0.764044  z = -2.187422 angstrom
           Maximum rank =  0   Radius =  0.325 angstrom
                   Q00  =   0.081668

H          x = -3.294141  y = -0.934625  z = -2.319652 angstrom
           Maximum rank =  0   Radius =  0.325 angstrom
                   Q00  =   0.050235

Total multipoles referred to origin at
           x =   0.000000,  y =    0.000000,  z =    0.000000 angstrom
                   Q00  =  -1.000000

Finished at 10:12:10 on 28 Apr 2020

  DMA results are available in the Python driver through the
	  variable('DMA DISTRIBUTED MULTIPOLES')
  and
	  variable('DMA TOTAL MULTIPOLES')
  commands.

    Psi4 stopped on: Tuesday, 28 April 2020 10:12AM
    Psi4 wall time for execution: 0:02:58.02

*** Psi4 exiting successfully. Buy a developer a beer!
