                               Psi4 1.3.2 release

  ==> Input File <==

--------------------------------------------------------------------------
import numpy as np
set {scf_type pk
basis cc-pvdz
d_convergence 10
gdma_switch   0
gdma_limit    0
gdma_origin   [ 0.0,  0.0,  0.0 ]
}
molecule test {
    units Angstrom
    0 1
    --
    0 1
    C               -0.369128791879857     1.491261228309670    -1.176018951046264
    C                0.190871208120142     2.380261228309671    -0.071018951046264
    H               -0.993128791879858     0.705261228309670    -0.749018951046264
    H               -0.976128791879858     2.082261228309670    -1.858018951046264
    H                0.448871208120142     1.042261228309670    -1.740018951046264
    H                0.803871208120142     3.156261228309670    -0.521018951046264
    H                0.796471208120142     1.761023228309670     0.607061048953736
    H               -0.634288791879858     2.859203228309671     0.476451048953736
    C                0.705871208120142    -1.769738771690330     0.210981048953736
    C               -0.531128791879858    -2.098738771690330     1.035981048953736
    H                0.430871208120142    -1.377738771690330    -0.767018951046264
    H                1.339871208120142    -1.071738771690330     0.742981048953736
    H                1.319871208120142    -2.659738771690329     0.099981048953736
    H               -1.232128791879857    -1.265738771690330     0.985981048953736
    H               -1.001878791879858    -3.007852771690330     0.633611048953736
    H               -0.260418791879858    -2.259718771690329     2.089931048953736

}
e, wfn = energy('scf', return_wfn=True)
gdma(wfn)
dmavals = variable('DMA DISTRIBUTED MULTIPOLES')
charges = np.array(dmavals)
print(charges)
np.save('SSI-054LEU-091LEU-1-dimer.npy', np.array(charges))--------------------------------------------------------------------------

*** tstart() called on ds3
*** at Tue Apr 28 02:01:39 2020

   => Loading Basis Set <=

    Name: CC-PVDZ
    Role: ORBITAL
    Keyword: BASIS
    atoms 1-2, 9-10  entry C          line   138 file /theoryfs2/ds/metcalf/miniconda2/envs/tf2gpu/share/psi4/basis/cc-pvdz.gbs
    atoms 3-8, 11-16 entry H          line    22 file /theoryfs2/ds/metcalf/miniconda2/envs/tf2gpu/share/psi4/basis/cc-pvdz.gbs

         ---------------------------------------------------------
                                   SCF
               by Justin Turney, Rob Parrish, Andy Simmonett
                          and Daniel G. A. Smith
                              RHF Reference
                        1 Threads,    500 MiB Core
         ---------------------------------------------------------

  ==> Geometry <==

    Molecular point group: c1
    Full point group: C1

    Geometry (in Angstrom), charge = 0, multiplicity = 1:

       Center              X                  Y                   Z               Mass
    ------------   -----------------  -----------------  -----------------  -----------------
         C           -0.369128791880     1.491261228310    -1.176018951046    12.000000000000
         C            0.190871208120     2.380261228310    -0.071018951046    12.000000000000
         H           -0.993128791880     0.705261228310    -0.749018951046     1.007825032230
         H           -0.976128791880     2.082261228310    -1.858018951046     1.007825032230
         H            0.448871208120     1.042261228310    -1.740018951046     1.007825032230
         H            0.803871208120     3.156261228310    -0.521018951046     1.007825032230
         H            0.796471208120     1.761023228310     0.607061048954     1.007825032230
         H           -0.634288791880     2.859203228310     0.476451048954     1.007825032230
         C            0.705871208120    -1.769738771690     0.210981048954    12.000000000000
         C           -0.531128791880    -2.098738771690     1.035981048954    12.000000000000
         H            0.430871208120    -1.377738771690    -0.767018951046     1.007825032230
         H            1.339871208120    -1.071738771690     0.742981048954     1.007825032230
         H            1.319871208120    -2.659738771690     0.099981048954     1.007825032230
         H           -1.232128791880    -1.265738771690     0.985981048954     1.007825032230
         H           -1.001878791880    -3.007852771690     0.633611048954     1.007825032230
         H           -0.260418791880    -2.259718771690     2.089931048954     1.007825032230

  Running in c1 symmetry.

  Rotational constants: A =      0.36939  B =      0.06001  C =      0.05939 [cm^-1]
  Rotational constants: A =  11074.09577  B =   1798.98791  C =   1780.49497 [MHz]
  Nuclear repulsion =  125.646888398943233

  Charge       = 0
  Multiplicity = 1
  Electrons    = 36
  Nalpha       = 18
  Nbeta        = 18

  ==> Algorithm <==

  SCF Algorithm Type is PK.
  DIIS enabled.
  MOM disabled.
  Fractional occupation disabled.
  Guess Type is SAD.
  Energy threshold   = 1.00e-06
  Density threshold  = 1.00e-10
  Integral threshold = 0.00e+00

  ==> Primary Basis <==

  Basis Set: CC-PVDZ
    Blend: CC-PVDZ
    Number of shells: 60
    Number of basis function: 116
    Number of Cartesian functions: 120
    Spherical Harmonics?: true
    Max angular momentum: 2

  ==> Pre-Iterations <==

   -------------------------------------------------------
    Irrep   Nso     Nmo     Nalpha   Nbeta   Ndocc  Nsocc
   -------------------------------------------------------
     A        116     116       0       0       0       0
   -------------------------------------------------------
    Total     116     116      18      18      18       0
   -------------------------------------------------------

  ==> Integral Setup <==

  Using integral reordering PK algorithm.
  Sizing the integral batches needed.
  Building batch lookup table.
   Calculation information:
      Number of atoms:                  16
      Number of AO shells:              60
      Number of primitives:            148
      Number of atomic orbitals:       120
      Number of basis functions:       116

      Integral cutoff                 1.00e-12
      Number of threads:                 1

	Batch   1 pq = [       0,    6786] index = [             0,23028291] size =     23028291
  Task number: 3
  Buffer size: 11059200
  Buffer per thread: 2
  We computed 1562510 shell quartets total.
  Whereas there are 1675365 unique shell quartets.

  ==> DiskJK: Disk-Based J/K Matrices <==

    J tasked:                  Yes
    K tasked:                  Yes
    wK tasked:                  No
    Memory [MiB]:              375
    Schwarz Cutoff:          1E-12

    OpenMP threads:              1

  Minimum eigenvalue in the overlap matrix is 7.5389163108E-03.
  Using Symmetric Orthogonalization.

  SCF Guess: Superposition of Atomic Densities via on-the-fly atomic UHF.

  ==> Iterations <==

                        Total Energy        Delta E     RMS |[F,P]|

   @RHF iter SAD:  -157.37907997010285   -1.57379e+02   0.00000e+00
   @RHF iter   1:  -158.30508632429357   -9.26006e-01   4.23734e-03 DIIS
   @RHF iter   2:  -158.43955192276457   -1.34466e-01   1.81388e-03 DIIS
   @RHF iter   3:  -158.46337844451023   -2.38265e-02   3.50884e-04 DIIS
   @RHF iter   4:  -158.46521548120839   -1.83704e-03   3.87065e-05 DIIS
   @RHF iter   5:  -158.46523899462480   -2.35134e-05   6.40225e-06 DIIS
   @RHF iter   6:  -158.46523961925320   -6.24628e-07   8.13752e-07 DIIS
   @RHF iter   7:  -158.46523962745340   -8.20020e-09   2.21754e-07 DIIS
   @RHF iter   8:  -158.46523962787222   -4.18822e-10   4.15913e-08 DIIS
   @RHF iter   9:  -158.46523962789271   -2.04921e-11   9.38683e-09 DIIS
   @RHF iter  10:  -158.46523962789414   -1.42109e-12   1.89277e-09 DIIS
   @RHF iter  11:  -158.46523962789436   -2.27374e-13   4.95582e-10 DIIS
   @RHF iter  12:  -158.46523962789428    8.52651e-14   1.70650e-10 DIIS
   @RHF iter  13:  -158.46523962789399    2.84217e-13   2.61380e-11 DIIS
  Energy and wave function converged.

  ==> Post-Iterations <==

    Orbital Energies [Eh]
    ---------------------

    Doubly Occupied:

       1A    -11.219142     2A    -11.218855     3A    -11.216062
       4A    -11.214338     5A     -1.021830     6A     -1.018294
       7A     -0.838057     8A     -0.835371     9A     -0.608418
      10A     -0.599588    11A     -0.599095    12A     -0.591139
      13A     -0.503030    14A     -0.498715    15A     -0.491243
      16A     -0.486873    17A     -0.482633    18A     -0.480810

    Virtual:

      19A      0.166676    20A      0.206009    21A      0.220736
      22A      0.226526    23A      0.244668    24A      0.259894
      25A      0.261680    26A      0.276262    27A      0.281052
      28A      0.308957    29A      0.336050    30A      0.351399
      31A      0.387169    32A      0.413793    33A      0.559624
      34A      0.595319    35A      0.602158    36A      0.607710
      37A      0.616948    38A      0.645318    39A      0.669425
      40A      0.678017    41A      0.697109    42A      0.811563
      43A      0.838679    44A      0.855896    45A      0.871130
      46A      0.880314    47A      0.889884    48A      0.897835
      49A      0.910484    50A      0.916507    51A      0.923012
      52A      0.927457    53A      0.944942    54A      0.964552
      55A      0.987102    56A      1.003888    57A      1.121444
      58A      1.127009    59A      1.131359    60A      1.156145
      61A      1.231289    62A      1.266944    63A      1.473651
      64A      1.478086    65A      1.483560    66A      1.493495
      67A      1.539153    68A      1.607315    69A      1.678046
      70A      1.682654    71A      1.697588    72A      1.698142
      73A      1.856036    74A      1.860794    75A      1.865074
      76A      1.893510    77A      1.898710    78A      1.905528
      79A      1.938909    80A      1.941295    81A      1.946207
      82A      1.949034    83A      1.957435    84A      1.960638
      85A      1.966851    86A      1.967595    87A      1.976251
      88A      2.048848    89A      2.110389    90A      2.112971
      91A      2.120903    92A      2.155242    93A      2.288214
      94A      2.296633    95A      2.316802    96A      2.324064
      97A      2.440387    98A      2.453141    99A      2.458722
     100A      2.472625   101A      2.569390   102A      2.574134
     103A      2.575756   104A      2.595724   105A      2.766806
     106A      2.769757   107A      2.797877   108A      2.801750
     109A      2.837911   110A      2.853251   111A      2.857878
     112A      2.867258   113A      2.941849   114A      2.947716
     115A      2.967650   116A      3.002864

    Final Occupation by Irrep:
              A
    DOCC [    18 ]

  @RHF Final Energy:  -158.46523962789399

   => Energetics <=

    Nuclear Repulsion Energy =            125.6468883989432328
    One-Electron Energy =                -460.3772678551922581
    Two-Electron Energy =                 176.2651398283550179
    Total Energy =                       -158.4652396278939932

Computation Completed

Properties will be evaluated at   0.000000,   0.000000,   0.000000 [a0]

Properties computed using the SCF density matrix

  Nuclear Dipole Moment: [e a0]
     X:     0.0392      Y:    -0.0340      Z:     0.0008

  Electronic Dipole Moment: [e a0]
     X:    -0.0265      Y:     0.0408      Z:    -0.0129

  Dipole Moment: [e a0]
     X:     0.0127      Y:     0.0068      Z:    -0.0121     Total:     0.0188

  Dipole Moment: [D]
     X:     0.0323      Y:     0.0172      Z:    -0.0306     Total:     0.0477

*** tstop() called on ds3 at Tue Apr 28 02:01:49 2020
Module time:
	user time   =       7.73 seconds =       0.13 minutes
	system time =       2.74 seconds =       0.05 minutes
	total time  =         10 seconds =       0.17 minutes
Total time:
	user time   =       7.73 seconds =       0.13 minutes
	system time =       2.74 seconds =       0.05 minutes
	total time  =         10 seconds =       0.17 minutes
                                     G D M A

                                 by Anthony Stone

                           version 2.2.06, 22 June 2011

               Distributed Multipoles from Gaussian wavefunctions

Starting at 2:1:49 on 28 Apr 2020

Using SCF density matrix from file ./SSI/SSI-054LEU-091LEU-1-dimer.test.10335.fchk

                         Distributed Multipole Analysis

Standard DMA

Positions and radii in angstrom
Multipole moments in atomic units, ea_0^k for rank k

C          x = -0.369129  y =  1.491261  z = -1.176019 angstrom
           Maximum rank =  0   Radius =  0.650 angstrom
                   Q00  =  -0.232875

C          x =  0.190871  y =  2.380261  z = -0.071019 angstrom
           Maximum rank =  0   Radius =  0.650 angstrom
                   Q00  =  -0.238271

H          x = -0.993129  y =  0.705261  z = -0.749019 angstrom
           Maximum rank =  0   Radius =  0.325 angstrom
                   Q00  =   0.078221

H          x = -0.976129  y =  2.082261  z = -1.858019 angstrom
           Maximum rank =  0   Radius =  0.325 angstrom
                   Q00  =   0.077748

H          x =  0.448871  y =  1.042261  z = -1.740019 angstrom
           Maximum rank =  0   Radius =  0.325 angstrom
                   Q00  =   0.078878

H          x =  0.803871  y =  3.156261  z = -0.521019 angstrom
           Maximum rank =  0   Radius =  0.325 angstrom
                   Q00  =   0.080115

H          x =  0.796471  y =  1.761023  z =  0.607061 angstrom
           Maximum rank =  0   Radius =  0.325 angstrom
                   Q00  =   0.078938

H          x = -0.634289  y =  2.859203  z =  0.476451 angstrom
           Maximum rank =  0   Radius =  0.325 angstrom
                   Q00  =   0.077520

C          x =  0.705871  y = -1.769739  z =  0.210981 angstrom
           Maximum rank =  0   Radius =  0.650 angstrom
                   Q00  =  -0.246141

C          x = -0.531129  y = -2.098739  z =  1.035981 angstrom
           Maximum rank =  0   Radius =  0.650 angstrom
                   Q00  =  -0.226471

H          x =  0.430871  y = -1.377739  z = -0.767019 angstrom
           Maximum rank =  0   Radius =  0.325 angstrom
                   Q00  =   0.084740

H          x =  1.339871  y = -1.071739  z =  0.742981 angstrom
           Maximum rank =  0   Radius =  0.325 angstrom
                   Q00  =   0.077201

H          x =  1.319871  y = -2.659739  z =  0.099981 angstrom
           Maximum rank =  0   Radius =  0.325 angstrom
                   Q00  =   0.076124

H          x = -1.232129  y = -1.265739  z =  0.985981 angstrom
           Maximum rank =  0   Radius =  0.325 angstrom
                   Q00  =   0.077824

H          x = -1.001879  y = -3.007853  z =  0.633611 angstrom
           Maximum rank =  0   Radius =  0.325 angstrom
                   Q00  =   0.077535

H          x = -0.260419  y = -2.259719  z =  2.089931 angstrom
           Maximum rank =  0   Radius =  0.325 angstrom
                   Q00  =   0.078912

Total multipoles referred to origin at
           x =   0.000000,  y =    0.000000,  z =    0.000000 angstrom
                   Q00  =  -0.000000

Finished at 2:1:49 on 28 Apr 2020

  DMA results are available in the Python driver through the
	  variable('DMA DISTRIBUTED MULTIPOLES')
  and
	  variable('DMA TOTAL MULTIPOLES')
  commands.

    Psi4 stopped on: Tuesday, 28 April 2020 02:01AM
    Psi4 wall time for execution: 0:00:10.37

*** Psi4 exiting successfully. Buy a developer a beer!
