                               Psi4 1.3.2 release

  ==> Input File <==

--------------------------------------------------------------------------
import numpy as np
set {scf_type pk
basis cc-pvdz
d_convergence 10
gdma_switch   0
gdma_limit    0
gdma_origin   [ 0.0,  0.0,  0.0 ]
}
molecule test {
    units Angstrom
    0 1
    --
    0 1
    C               -2.725273915268650    -0.147239733321691    -0.112564535562384
    C               -2.693273915268650     0.107760266678309     1.389435464437616
    H               -3.617273915268650    -0.706239733321691    -0.395564535562384
    H               -2.740273915268650     0.815760266678309    -0.620564535562384
    H               -1.843273915268650    -0.712239733321691    -0.412564535562384
    H               -1.771273915268650     0.635760266678309     1.637435464437616
    H               -2.714554915268649    -0.855209733321691     1.920705464437616
    H               -3.541476915268650     0.740470266678309     1.689825464437616
    C                0.671726084731350     1.318760266678309    -2.279564535562384
    C                0.816726084731350     0.501760266678309    -1.017564535562384
    C                0.878726084731350    -0.882239733321691    -1.046564535562384
    C                0.876726084731350     1.127760266678309     0.223435464437616
    C                0.982726084731350    -1.614239733321691     0.140435464437616
    C                0.972726084731350     0.393760266678309     1.406435464437616
    C                1.010726084731350    -0.974239733321691     1.373435464437616
    H                1.476726084731350     1.066760266678309    -2.971564535562384
    H                0.785726084731350     2.373760266678309    -2.021564535562384
    H                0.819726084731350    -1.412239733321691    -1.978564535562384
    H                0.850726084731350     2.205760266678309     0.280435464437616
    H                1.036726084731350    -2.686239733321691     0.106435464437616
    H                1.019726084731350     0.903760266678309     2.355435464437616
    H                1.105726084731350    -1.544239733321691     2.285435464437616
    H               -0.291623915268650     1.176600266678309    -2.791184535562385

}
e, wfn = energy('scf', return_wfn=True)
gdma(wfn)
dmavals = variable('DMA DISTRIBUTED MULTIPOLES')
charges = np.array(dmavals)
print(charges)
np.save('SSI-086ALA-136PHE-2-dimer.npy', np.array(charges))--------------------------------------------------------------------------

*** tstart() called on ds3
*** at Mon Apr 27 17:00:51 2020

   => Loading Basis Set <=

    Name: CC-PVDZ
    Role: ORBITAL
    Keyword: BASIS
    atoms 1-2, 9-15  entry C          line   138 file /theoryfs2/ds/metcalf/miniconda2/envs/tf2gpu/share/psi4/basis/cc-pvdz.gbs
    atoms 3-8, 16-23 entry H          line    22 file /theoryfs2/ds/metcalf/miniconda2/envs/tf2gpu/share/psi4/basis/cc-pvdz.gbs

         ---------------------------------------------------------
                                   SCF
               by Justin Turney, Rob Parrish, Andy Simmonett
                          and Daniel G. A. Smith
                              RHF Reference
                        1 Threads,    500 MiB Core
         ---------------------------------------------------------

  ==> Geometry <==

    Molecular point group: c1
    Full point group: C1

    Geometry (in Angstrom), charge = 0, multiplicity = 1:

       Center              X                  Y                   Z               Mass
    ------------   -----------------  -----------------  -----------------  -----------------
         C           -2.725273915269    -0.147239733322    -0.112564535562    12.000000000000
         C           -2.693273915269     0.107760266678     1.389435464438    12.000000000000
         H           -3.617273915269    -0.706239733322    -0.395564535562     1.007825032230
         H           -2.740273915269     0.815760266678    -0.620564535562     1.007825032230
         H           -1.843273915269    -0.712239733322    -0.412564535562     1.007825032230
         H           -1.771273915269     0.635760266678     1.637435464438     1.007825032230
         H           -2.714554915269    -0.855209733322     1.920705464438     1.007825032230
         H           -3.541476915269     0.740470266678     1.689825464438     1.007825032230
         C            0.671726084731     1.318760266678    -2.279564535562    12.000000000000
         C            0.816726084731     0.501760266678    -1.017564535562    12.000000000000
         C            0.878726084731    -0.882239733322    -1.046564535562    12.000000000000
         C            0.876726084731     1.127760266678     0.223435464438    12.000000000000
         C            0.982726084731    -1.614239733322     0.140435464438    12.000000000000
         C            0.972726084731     0.393760266678     1.406435464438    12.000000000000
         C            1.010726084731    -0.974239733322     1.373435464438    12.000000000000
         H            1.476726084731     1.066760266678    -2.971564535562     1.007825032230
         H            0.785726084731     2.373760266678    -2.021564535562     1.007825032230
         H            0.819726084731    -1.412239733322    -1.978564535562     1.007825032230
         H            0.850726084731     2.205760266678     0.280435464438     1.007825032230
         H            1.036726084731    -2.686239733322     0.106435464438     1.007825032230
         H            1.019726084731     0.903760266678     2.355435464438     1.007825032230
         H            1.105726084731    -1.544239733322     2.285435464438     1.007825032230
         H           -0.291623915269     1.176600266678    -2.791184535562     1.007825032230

  Running in c1 symmetry.

  Rotational constants: A =      0.05618  B =      0.04000  C =      0.03189 [cm^-1]
  Rotational constants: A =   1684.35852  B =   1199.19297  C =    956.13162 [MHz]
  Nuclear repulsion =  427.450509000580212

  Charge       = 0
  Multiplicity = 1
  Electrons    = 68
  Nalpha       = 34
  Nbeta        = 34

  ==> Algorithm <==

  SCF Algorithm Type is PK.
  DIIS enabled.
  MOM disabled.
  Fractional occupation disabled.
  Guess Type is SAD.
  Energy threshold   = 1.00e-06
  Density threshold  = 1.00e-10
  Integral threshold = 0.00e+00

  ==> Primary Basis <==

  Basis Set: CC-PVDZ
    Blend: CC-PVDZ
    Number of shells: 96
    Number of basis function: 196
    Number of Cartesian functions: 205
    Spherical Harmonics?: true
    Max angular momentum: 2

  ==> Pre-Iterations <==

   -------------------------------------------------------
    Irrep   Nso     Nmo     Nalpha   Nbeta   Ndocc  Nsocc
   -------------------------------------------------------
     A        196     196       0       0       0       0
   -------------------------------------------------------
    Total     196     196      34      34      34       0
   -------------------------------------------------------

  ==> Integral Setup <==

  Using integral reordering PK algorithm.
  Sizing the integral batches needed.
  Building batch lookup table.
   Calculation information:
      Number of atoms:                  23
      Number of AO shells:              96
      Number of primitives:            268
      Number of atomic orbitals:       205
      Number of basis functions:       196

      Integral cutoff                 1.00e-12
      Number of threads:                 1

	Batch   1 pq = [       0,    9405] index = [             0,44231715] size =     44231715
	Batch   2 pq = [    9405,   13301] index = [      44231715,88464951] size =     44233236
	Batch   3 pq = [   13301,   16290] index = [      88464951,132690195] size =     44225244
	Batch   4 pq = [   16290,   18810] index = [     132690195,176917455] size =     44227260
	Batch   5 pq = [   18810,   19306] index = [     176917455,186370471] size =      9453016
  Task number: 17
  Buffer size: 11059200
  Buffer per thread: 2
  We computed 11308127 shell quartets total.
  Whereas there are 10841496 unique shell quartets.
     4.30 percent of shell quartets recomputed by reordering.

  ==> DiskJK: Disk-Based J/K Matrices <==

    J tasked:                  Yes
    K tasked:                  Yes
    wK tasked:                  No
    Memory [MiB]:              375
    Schwarz Cutoff:          1E-12

    OpenMP threads:              1

  Minimum eigenvalue in the overlap matrix is 2.9821461561E-04.
  Using Symmetric Orthogonalization.

  SCF Guess: Superposition of Atomic Densities via on-the-fly atomic UHF.

  ==> Iterations <==

                        Total Energy        Delta E     RMS |[F,P]|

   @RHF iter SAD:  -347.94836627056219   -3.47948e+02   0.00000e+00
   @RHF iter   1:  -348.76407456194846   -8.15708e-01   2.91438e-03 DIIS
   @RHF iter   2:  -348.95673204676655   -1.92657e-01   1.22885e-03 DIIS
   @RHF iter   3:  -348.98803742625114   -3.13054e-02   2.61460e-04 DIIS
   @RHF iter   4:  -348.99054142821996   -2.50400e-03   5.23471e-05 DIIS
   @RHF iter   5:  -348.99061606810659   -7.46399e-05   1.69288e-05 DIIS
   @RHF iter   6:  -348.99062335675126   -7.28864e-06   4.76763e-06 DIIS
   @RHF iter   7:  -348.99062404269011   -6.85939e-07   1.42374e-06 DIIS
   @RHF iter   8:  -348.99062412293250   -8.02424e-08   4.21617e-07 DIIS
   @RHF iter   9:  -348.99062414018732   -1.72548e-08   1.99648e-07 DIIS
   @RHF iter  10:  -348.99062414481205   -4.62472e-09   9.61418e-08 DIIS
   @RHF iter  11:  -348.99062414598444   -1.17240e-09   3.37476e-08 DIIS
   @RHF iter  12:  -348.99062414609836   -1.13914e-10   1.48467e-08 DIIS
   @RHF iter  13:  -348.99062414611143   -1.30740e-11   4.02354e-09 DIIS
   @RHF iter  14:  -348.99062414611063    7.95808e-13   1.05082e-09 DIIS
   @RHF iter  15:  -348.99062414611103   -3.97904e-13   3.56991e-10 DIIS
   @RHF iter  16:  -348.99062414611188   -8.52651e-13   1.51182e-10 DIIS
   @RHF iter  17:  -348.99062414611080    1.08002e-12   6.77810e-11 DIIS
  Energy and wave function converged.

  ==> Post-Iterations <==

    Orbital Energies [Eh]
    ---------------------

    Doubly Occupied:

       1A    -11.241564     2A    -11.235973     3A    -11.233603
       4A    -11.231379     5A    -11.230790     6A    -11.230505
       7A    -11.229635     8A    -11.206636     9A    -11.203471
      10A     -1.156913    11A     -1.048553    12A     -1.011518
      13A     -1.007668    14A     -0.934573    15A     -0.828656
      16A     -0.823718    17A     -0.797078    18A     -0.694752
      19A     -0.634097    20A     -0.630934    21A     -0.590664
      22A     -0.589376    23A     -0.581150    24A     -0.574010
      25A     -0.567597    26A     -0.536253    27A     -0.494551
      28A     -0.486254    29A     -0.483961    30A     -0.482276
      31A     -0.474623    32A     -0.472819    33A     -0.330896
      34A     -0.327046

    Virtual:

      35A      0.133564    36A      0.140952    37A      0.175981
      38A      0.195900    39A      0.208585    40A      0.213818
      41A      0.242267    42A      0.248430    43A      0.251756
      44A      0.263251    45A      0.273358    46A      0.275212
      47A      0.288273    48A      0.303018    49A      0.315169
      50A      0.320991    51A      0.367361    52A      0.375865
      53A      0.406872    54A      0.452384    55A      0.464333
      56A      0.474170    57A      0.504179    58A      0.565149
      59A      0.579099    60A      0.590255    61A      0.594228
      62A      0.618409    63A      0.641644    64A      0.660988
      65A      0.672735    66A      0.681983    67A      0.700216
      68A      0.707559    69A      0.739304    70A      0.750482
      71A      0.752812    72A      0.761257    73A      0.783801
      74A      0.789501    75A      0.812743    76A      0.832803
      77A      0.850291    78A      0.859172    79A      0.862691
      80A      0.872809    81A      0.878678    82A      0.889880
      83A      0.896312    84A      0.899057    85A      0.907969
      86A      0.914669    87A      0.924885    88A      0.934654
      89A      0.939581    90A      0.953719    91A      0.967384
      92A      0.991402    93A      1.001910    94A      1.017955
      95A      1.048480    96A      1.079236    97A      1.123775
      98A      1.133670    99A      1.141754   100A      1.146508
     101A      1.154429   102A      1.189493   103A      1.205258
     104A      1.214400   105A      1.244930   106A      1.254681
     107A      1.271093   108A      1.293738   109A      1.301390
     110A      1.323100   111A      1.330523   112A      1.345994
     113A      1.416642   114A      1.491775   115A      1.494928
     116A      1.513152   117A      1.529772   118A      1.543556
     119A      1.594287   120A      1.617526   121A      1.671692
     122A      1.684629   123A      1.688219   124A      1.710937
     125A      1.743394   126A      1.752394   127A      1.769607
     128A      1.794373   129A      1.823931   130A      1.860307
     131A      1.869161   132A      1.874126   133A      1.890226
     134A      1.901749   135A      1.915841   136A      1.920927
     137A      1.929553   138A      1.935086   139A      1.948716
     140A      1.955490   141A      1.960203   142A      1.963293
     143A      1.975770   144A      1.987665   145A      1.988957
     146A      1.997143   147A      2.003587   148A      2.025078
     149A      2.037043   150A      2.061288   151A      2.081738
     152A      2.108796   153A      2.124013   154A      2.134027
     155A      2.146059   156A      2.163122   157A      2.181357
     158A      2.195574   159A      2.207821   160A      2.242872
     161A      2.271099   162A      2.293814   163A      2.306642
     164A      2.314533   165A      2.320779   166A      2.343371
     167A      2.357364   168A      2.444654   169A      2.475799
     170A      2.479350   171A      2.490920   172A      2.526466
     173A      2.536621   174A      2.580721   175A      2.597952
     176A      2.632926   177A      2.733941   178A      2.761308
     179A      2.768615   180A      2.781080   181A      2.798484
     182A      2.819778   183A      2.826003   184A      2.846339
     185A      2.855810   186A      2.870487   187A      2.894355
     188A      2.974168   189A      2.982352   190A      3.002265
     191A      3.032237   192A      3.056504   193A      3.168663
     194A      3.210827   195A      3.314889   196A      3.981579

    Final Occupation by Irrep:
              A
    DOCC [    34 ]

  @RHF Final Energy:  -348.99062414611080

   => Energetics <=

    Nuclear Repulsion Energy =            427.4505090005802117
    One-Electron Energy =               -1317.6752821502109327
    Two-Electron Energy =                 541.2341490035198603
    Total Energy =                       -348.9906241461108038

Computation Completed

Properties will be evaluated at   0.000000,   0.000000,   0.000000 [a0]

Properties computed using the SCF density matrix

  Nuclear Dipole Moment: [e a0]
     X:    -8.8353      Y:     1.8770      Z:    -0.8586

  Electronic Dipole Moment: [e a0]
     X:     8.9570      Y:    -1.8324      Z:     0.7319

  Dipole Moment: [e a0]
     X:     0.1216      Y:     0.0446      Z:    -0.1267     Total:     0.1812

  Dipole Moment: [D]
     X:     0.3092      Y:     0.1134      Z:    -0.3220     Total:     0.4606

*** tstop() called on ds3 at Mon Apr 27 17:02:53 2020
Module time:
	user time   =      82.95 seconds =       1.38 minutes
	system time =      27.92 seconds =       0.47 minutes
	total time  =        122 seconds =       2.03 minutes
Total time:
	user time   =      82.95 seconds =       1.38 minutes
	system time =      27.92 seconds =       0.47 minutes
	total time  =        122 seconds =       2.03 minutes
                                     G D M A

                                 by Anthony Stone

                           version 2.2.06, 22 June 2011

               Distributed Multipoles from Gaussian wavefunctions

Starting at 17:2:53 on 27 Apr 2020

Using SCF density matrix from file ./SSI/SSI-086ALA-136PHE-2-dimer.test.32341.fchk

                         Distributed Multipole Analysis

Standard DMA

Positions and radii in angstrom
Multipole moments in atomic units, ea_0^k for rank k

C          x = -2.725274  y = -0.147240  z = -0.112565 angstrom
           Maximum rank =  0   Radius =  0.650 angstrom
                   Q00  =  -0.225612

C          x = -2.693274  y =  0.107760  z =  1.389435 angstrom
           Maximum rank =  0   Radius =  0.650 angstrom
                   Q00  =  -0.240415

H          x = -3.617274  y = -0.706240  z = -0.395565 angstrom
           Maximum rank =  0   Radius =  0.325 angstrom
                   Q00  =   0.070349

H          x = -2.740274  y =  0.815760  z = -0.620565 angstrom
           Maximum rank =  0   Radius =  0.325 angstrom
                   Q00  =   0.069910

H          x = -1.843274  y = -0.712240  z = -0.412565 angstrom
           Maximum rank =  0   Radius =  0.325 angstrom
                   Q00  =   0.093391

H          x = -1.771274  y =  0.635760  z =  1.637435 angstrom
           Maximum rank =  0   Radius =  0.325 angstrom
                   Q00  =   0.085841

H          x = -2.714555  y = -0.855210  z =  1.920705 angstrom
           Maximum rank =  0   Radius =  0.325 angstrom
                   Q00  =   0.072878

H          x = -3.541477  y =  0.740470  z =  1.689825 angstrom
           Maximum rank =  0   Radius =  0.325 angstrom
                   Q00  =   0.069009

C          x =  0.671726  y =  1.318760  z = -2.279565 angstrom
           Maximum rank =  0   Radius =  0.650 angstrom
                   Q00  =  -0.209028

C          x =  0.816726  y =  0.501760  z = -1.017565 angstrom
           Maximum rank =  0   Radius =  0.650 angstrom
                   Q00  =  -0.096507

C          x =  0.878726  y = -0.882240  z = -1.046565 angstrom
           Maximum rank =  0   Radius =  0.650 angstrom
                   Q00  =  -0.091136

C          x =  0.876726  y =  1.127760  z =  0.223435 angstrom
           Maximum rank =  0   Radius =  0.650 angstrom
                   Q00  =  -0.027455

C          x =  0.982726  y = -1.614240  z =  0.140435 angstrom
           Maximum rank =  0   Radius =  0.650 angstrom
                   Q00  =  -0.016057

C          x =  0.972726  y =  0.393760  z =  1.406435 angstrom
           Maximum rank =  0   Radius =  0.650 angstrom
                   Q00  =  -0.073043

C          x =  1.010726  y = -0.974240  z =  1.373435 angstrom
           Maximum rank =  0   Radius =  0.650 angstrom
                   Q00  =  -0.087907

H          x =  1.476726  y =  1.066760  z = -2.971565 angstrom
           Maximum rank =  0   Radius =  0.325 angstrom
                   Q00  =   0.102867

H          x =  0.785726  y =  2.373760  z = -2.021565 angstrom
           Maximum rank =  0   Radius =  0.325 angstrom
                   Q00  =   0.097384

H          x =  0.819726  y = -1.412240  z = -1.978565 angstrom
           Maximum rank =  0   Radius =  0.325 angstrom
                   Q00  =   0.054968

H          x =  0.850726  y =  2.205760  z =  0.280435 angstrom
           Maximum rank =  0   Radius =  0.325 angstrom
                   Q00  =   0.056766

H          x =  1.036726  y = -2.686240  z =  0.106435 angstrom
           Maximum rank =  0   Radius =  0.325 angstrom
                   Q00  =   0.063564

H          x =  1.019726  y =  0.903760  z =  2.355435 angstrom
           Maximum rank =  0   Radius =  0.325 angstrom
                   Q00  =   0.062479

H          x =  1.105726  y = -1.544240  z =  2.285435 angstrom
           Maximum rank =  0   Radius =  0.325 angstrom
                   Q00  =   0.061572

H          x = -0.291624  y =  1.176600  z = -2.791185 angstrom
           Maximum rank =  0   Radius =  0.325 angstrom
                   Q00  =   0.106181

Total multipoles referred to origin at
           x =   0.000000,  y =    0.000000,  z =    0.000000 angstrom
                   Q00  =  -0.000000

Finished at 17:2:54 on 27 Apr 2020

  DMA results are available in the Python driver through the
	  variable('DMA DISTRIBUTED MULTIPOLES')
  and
	  variable('DMA TOTAL MULTIPOLES')
  commands.

    Psi4 stopped on: Monday, 27 April 2020 05:02PM
    Psi4 wall time for execution: 0:02:02.71

*** Psi4 exiting successfully. Buy a developer a beer!
