                               Psi4 1.3.2 release

  ==> Input File <==

--------------------------------------------------------------------------
import numpy as np
set {scf_type pk
basis cc-pvdz
d_convergence 10
gdma_switch   0
gdma_limit    0
gdma_origin   [ 0.0,  0.0,  0.0 ]
}
molecule test {
    units Angstrom
    -1 1
    --
    -1 1
    C                0.368028274413368    -1.434485522204398    -2.542726606896296
    C               -0.357971725586632    -2.186485522204398    -3.663726606896295
    C                0.678028274413368     0.010514477795602    -2.899726606896296
    O                0.365028274413368     0.457514477795602    -4.026726606896296
    O                1.238028274413368     0.710514477795602    -2.026726606896295
    H               -0.219971725586632    -1.485485522204398    -1.624726606896296
    H                1.317028274413368    -1.939485522204398    -2.361726606896295
    H                0.183028274413368    -1.985485522204398    -4.588726606896296
    H               -1.392821725586632    -1.829225522204398    -3.770753606896295
    H               -0.315661725586632    -3.276555522204398    -3.522447606896296
    C               -2.407971725586632     1.088514477795602     3.948273393103705
    C                0.683028274413368    -0.035485522204398     1.182273393103704
    C               -0.062971725586632     1.120514477795602     0.953273393103704
    C                0.425028274413368    -0.834485522204398     2.295273393103704
    C               -1.057971725586632     1.484514477795602     1.859273393103704
    C               -0.574971725586632    -0.465485522204398     3.195273393103705
    C               -1.328971725586632     0.692514477795602     2.979273393103704
    O                1.643028274413368    -0.399485522204398     0.291273393103704
    H                1.535028274413368     0.118514477795602    -0.537726606896296
    H                0.141028274413368     1.737514477795602     0.091273393103704
    H                1.008028274413368    -1.728485522204398     2.461273393103705
    H               -1.618971725586632     2.394514477795602     1.696273393103704
    H               -0.762971725586632    -1.064485522204398     4.072273393103704
    H               -2.781971725586632     0.196514477795602     4.457273393103704
    H               -3.228971725586632     1.515514477795602     3.372273393103705
    H               -2.078751725586632     1.815394477795602     4.705413393103705

}
e, wfn = energy('scf', return_wfn=True)
gdma(wfn)
dmavals = variable('DMA DISTRIBUTED MULTIPOLES')
charges = np.array(dmavals)
print(charges)
np.save('SSI-076ASP-089TYR-1-dimer.npy', np.array(charges))--------------------------------------------------------------------------

*** tstart() called on ds3
*** at Tue Apr 28 14:10:07 2020

   => Loading Basis Set <=

    Name: CC-PVDZ
    Role: ORBITAL
    Keyword: BASIS
    atoms 1-3, 11-17  entry C          line   138 file /theoryfs2/ds/metcalf/miniconda2/envs/tf2gpu/share/psi4/basis/cc-pvdz.gbs
    atoms 4-5, 18     entry O          line   198 file /theoryfs2/ds/metcalf/miniconda2/envs/tf2gpu/share/psi4/basis/cc-pvdz.gbs
    atoms 6-10, 19-26 entry H          line    22 file /theoryfs2/ds/metcalf/miniconda2/envs/tf2gpu/share/psi4/basis/cc-pvdz.gbs

         ---------------------------------------------------------
                                   SCF
               by Justin Turney, Rob Parrish, Andy Simmonett
                          and Daniel G. A. Smith
                              RHF Reference
                        1 Threads,    500 MiB Core
         ---------------------------------------------------------

  ==> Geometry <==

    Molecular point group: c1
    Full point group: C1

    Geometry (in Angstrom), charge = -1, multiplicity = 1:

       Center              X                  Y                   Z               Mass
    ------------   -----------------  -----------------  -----------------  -----------------
         C            0.368028274413    -1.434485522204    -2.542726606896    12.000000000000
         C           -0.357971725587    -2.186485522204    -3.663726606896    12.000000000000
         C            0.678028274413     0.010514477796    -2.899726606896    12.000000000000
         O            0.365028274413     0.457514477796    -4.026726606896    15.994914619570
         O            1.238028274413     0.710514477796    -2.026726606896    15.994914619570
         H           -0.219971725587    -1.485485522204    -1.624726606896     1.007825032230
         H            1.317028274413    -1.939485522204    -2.361726606896     1.007825032230
         H            0.183028274413    -1.985485522204    -4.588726606896     1.007825032230
         H           -1.392821725587    -1.829225522204    -3.770753606896     1.007825032230
         H           -0.315661725587    -3.276555522204    -3.522447606896     1.007825032230
         C           -2.407971725587     1.088514477796     3.948273393104    12.000000000000
         C            0.683028274413    -0.035485522204     1.182273393104    12.000000000000
         C           -0.062971725587     1.120514477796     0.953273393104    12.000000000000
         C            0.425028274413    -0.834485522204     2.295273393104    12.000000000000
         C           -1.057971725587     1.484514477796     1.859273393104    12.000000000000
         C           -0.574971725587    -0.465485522204     3.195273393104    12.000000000000
         C           -1.328971725587     0.692514477796     2.979273393104    12.000000000000
         O            1.643028274413    -0.399485522204     0.291273393104    15.994914619570
         H            1.535028274413     0.118514477796    -0.537726606896     1.007825032230
         H            0.141028274413     1.737514477796     0.091273393104     1.007825032230
         H            1.008028274413    -1.728485522204     2.461273393104     1.007825032230
         H           -1.618971725587     2.394514477796     1.696273393104     1.007825032230
         H           -0.762971725587    -1.064485522204     4.072273393104     1.007825032230
         H           -2.781971725587     0.196514477796     4.457273393104     1.007825032230
         H           -3.228971725587     1.515514477796     3.372273393104     1.007825032230
         H           -2.078751725587     1.815394477796     4.705413393104     1.007825032230

  Running in c1 symmetry.

  Rotational constants: A =      0.05162  B =      0.01047  C =      0.01026 [cm^-1]
  Rotational constants: A =   1547.50801  B =    313.94743  C =    307.61022 [MHz]
  Nuclear repulsion =  745.665958803665148

  Charge       = -1
  Multiplicity = 1
  Electrons    = 98
  Nalpha       = 49
  Nbeta        = 49

  ==> Algorithm <==

  SCF Algorithm Type is PK.
  DIIS enabled.
  MOM disabled.
  Fractional occupation disabled.
  Guess Type is SAD.
  Energy threshold   = 1.00e-06
  Density threshold  = 1.00e-10
  Integral threshold = 0.00e+00

  ==> Primary Basis <==

  Basis Set: CC-PVDZ
    Blend: CC-PVDZ
    Number of shells: 117
    Number of basis function: 247
    Number of Cartesian functions: 260
    Spherical Harmonics?: true
    Max angular momentum: 2

  ==> Pre-Iterations <==

   -------------------------------------------------------
    Irrep   Nso     Nmo     Nalpha   Nbeta   Ndocc  Nsocc
   -------------------------------------------------------
     A        247     247       0       0       0       0
   -------------------------------------------------------
    Total     247     247      49      49      49       0
   -------------------------------------------------------

  ==> Integral Setup <==

  Using integral reordering PK algorithm.
  Sizing the integral batches needed.
  Building batch lookup table.
   Calculation information:
      Number of atoms:                  26
      Number of AO shells:             117
      Number of primitives:            351
      Number of atomic orbitals:       260
      Number of basis functions:       247

      Integral cutoff                 1.00e-12
      Number of threads:                 1

	Batch   1 pq = [       0,    9405] index = [             0,44231715] size =     44231715
	Batch   2 pq = [    9405,   13301] index = [      44231715,88464951] size =     44233236
	Batch   3 pq = [   13301,   16290] index = [      88464951,132690195] size =     44225244
	Batch   4 pq = [   16290,   18810] index = [     132690195,176917455] size =     44227260
	Batch   5 pq = [   18810,   21030] index = [     176917455,221140965] size =     44223510
	Batch   6 pq = [   21030,   23037] index = [     221140965,265363203] size =     44222238
	Batch   7 pq = [   23037,   24883] index = [     265363203,309594286] size =     44231083
	Batch   8 pq = [   24883,   26601] index = [     309594286,353819901] size =     44225615
	Batch   9 pq = [   26601,   28214] index = [     353819901,398029005] size =     44209104
	Batch  10 pq = [   28214,   29740] index = [     398029005,442248670] size =     44219665
	Batch  11 pq = [   29740,   30628] index = [     442248670,469052506] size =     26803836
  Task number: 43
  Buffer size: 11059200
  Buffer per thread: 2
  We computed 19645179 shell quartets total.
  Whereas there are 23829156 unique shell quartets.

  ==> DiskJK: Disk-Based J/K Matrices <==

    J tasked:                  Yes
    K tasked:                  Yes
    wK tasked:                  No
    Memory [MiB]:              375
    Schwarz Cutoff:          1E-12

    OpenMP threads:              1

  Minimum eigenvalue in the overlap matrix is 3.2732023954E-04.
  Using Symmetric Orthogonalization.

  SCF Guess: Superposition of Atomic Densities via on-the-fly atomic UHF.

  ==> Iterations <==

                        Total Energy        Delta E     RMS |[F,P]|

   @RHF iter SAD:  -609.30062834582850   -6.09301e+02   0.00000e+00
   @RHF iter   1:  -610.57968459451786   -1.27906e+00   3.30325e-03 DIIS
   @RHF iter   2:  -610.86837088097934   -2.88686e-01   1.70275e-03 DIIS
   @RHF iter   3:  -610.93631011367768   -6.79392e-02   3.26801e-04 DIIS
   @RHF iter   4:  -610.94043118685875   -4.12107e-03   1.33746e-04 DIIS
   @RHF iter   5:  -610.94106698309952   -6.35796e-04   2.34525e-05 DIIS
   @RHF iter   6:  -610.94109447364553   -2.74905e-05   1.13590e-05 DIIS
   @RHF iter   7:  -610.94110003101230   -5.55737e-06   3.21715e-06 DIIS
   @RHF iter   8:  -610.94110108951099   -1.05850e-06   1.41833e-06 DIIS
   @RHF iter   9:  -610.94110133074207   -2.41231e-07   6.27294e-07 DIIS
   @RHF iter  10:  -610.94110138903295   -5.82909e-08   2.70783e-07 DIIS
   @RHF iter  11:  -610.94110139929728   -1.02643e-08   1.12322e-07 DIIS
   @RHF iter  12:  -610.94110140106113   -1.76385e-09   4.32280e-08 DIIS
   @RHF iter  13:  -610.94110140129885   -2.37719e-10   1.58097e-08 DIIS
   @RHF iter  14:  -610.94110140131193   -1.30740e-11   6.81834e-09 DIIS
   @RHF iter  15:  -610.94110140131727   -5.34328e-12   2.47902e-09 DIIS
   @RHF iter  16:  -610.94110140131397    3.29692e-12   1.09164e-09 DIIS
   @RHF iter  17:  -610.94110140132443   -1.04592e-11   3.41698e-10 DIIS
   @RHF iter  18:  -610.94110140132011    4.32010e-12   1.21958e-10 DIIS
   @RHF iter  19:  -610.94110140131352    6.59384e-12   5.84328e-11 DIIS
  Energy and wave function converged.

  ==> Post-Iterations <==

    Orbital Energies [Eh]
    ---------------------

    Doubly Occupied:

       1A    -20.413922     2A    -20.308795     3A    -20.297212
       4A    -11.173593     5A    -11.152139     6A    -11.140139
       7A    -11.131972     8A    -11.128082     9A    -11.125257
      10A    -11.116005    11A    -11.107727    12A    -11.082163
      13A    -11.071461    14A     -1.240569    15A     -1.192633
      16A     -1.079997    17A     -1.036396    18A     -0.927666
      19A     -0.903502    20A     -0.885173    21A     -0.818224
      22A     -0.726778    23A     -0.719315    24A     -0.682567
      25A     -0.599310    26A     -0.551030    27A     -0.536069
      28A     -0.524908    29A     -0.495925    30A     -0.485223
      31A     -0.476629    32A     -0.474457    33A     -0.462923
      34A     -0.453519    35A     -0.438175    36A     -0.420965
      37A     -0.409149    38A     -0.390240    39A     -0.383870
      40A     -0.377410    41A     -0.360976    42A     -0.346232
      43A     -0.339652    44A     -0.328254    45A     -0.227584
      46A     -0.224196    47A     -0.211945    48A     -0.205184
      49A     -0.179368

    Virtual:

      50A      0.241132    51A      0.265821    52A      0.273507
      53A      0.307060    54A      0.319984    55A      0.323330
      56A      0.345282    57A      0.361941    58A      0.366695
      59A      0.372819    60A      0.382306    61A      0.393485
      62A      0.404101    63A      0.414189    64A      0.461734
      65A      0.465902    66A      0.484653    67A      0.491085
      68A      0.539321    69A      0.561375    70A      0.569697
      71A      0.587513    72A      0.607750    73A      0.612724
      74A      0.636409    75A      0.676327    76A      0.707144
      77A      0.719096    78A      0.730574    79A      0.745967
      80A      0.757623    81A      0.776522    82A      0.787909
      83A      0.802778    84A      0.809999    85A      0.824442
      86A      0.839417    87A      0.844576    88A      0.847827
      89A      0.858572    90A      0.885202    91A      0.892139
      92A      0.904775    93A      0.909316    94A      0.926454
      95A      0.946571    96A      0.952073    97A      0.954988
      98A      0.965086    99A      0.974957   100A      0.989465
     101A      0.993117   102A      0.997990   103A      1.014043
     104A      1.018864   105A      1.025197   106A      1.030061
     107A      1.032538   108A      1.034344   109A      1.044534
     110A      1.049415   111A      1.055871   112A      1.067502
     113A      1.073827   114A      1.097653   115A      1.120143
     116A      1.129256   117A      1.150065   118A      1.180475
     119A      1.212147   120A      1.229949   121A      1.255848
     122A      1.259997   123A      1.277611   124A      1.294022
     125A      1.312348   126A      1.314075   127A      1.352287
     128A      1.354470   129A      1.379138   130A      1.395571
     131A      1.408030   132A      1.420286   133A      1.428547
     134A      1.437829   135A      1.461145   136A      1.487244
     137A      1.495437   138A      1.531434   139A      1.544686
     140A      1.575495   141A      1.592620   142A      1.612887
     143A      1.630109   144A      1.632996   145A      1.644412
     146A      1.654756   147A      1.689016   148A      1.700597
     149A      1.750028   150A      1.768030   151A      1.787059
     152A      1.796073   153A      1.821550   154A      1.834615
     155A      1.839754   156A      1.846684   157A      1.856087
     158A      1.875867   159A      1.884474   160A      1.917708
     161A      1.920257   162A      1.950062   163A      1.976829
     164A      1.990864   165A      1.997230   166A      2.009077
     167A      2.020767   168A      2.026891   169A      2.039043
     170A      2.051266   171A      2.054028   172A      2.064939
     173A      2.071386   174A      2.085712   175A      2.096498
     176A      2.111718   177A      2.122725   178A      2.142599
     179A      2.148335   180A      2.158903   181A      2.162658
     182A      2.167000   183A      2.181284   184A      2.187060
     185A      2.195622   186A      2.211462   187A      2.242718
     188A      2.250262   189A      2.264147   190A      2.274280
     191A      2.306006   192A      2.330966   193A      2.335605
     194A      2.370344   195A      2.375691   196A      2.384733
     197A      2.393497   198A      2.433692   199A      2.447103
     200A      2.489820   201A      2.507791   202A      2.520844
     203A      2.526681   204A      2.563670   205A      2.575917
     206A      2.598604   207A      2.640201   208A      2.641930
     209A      2.670835   210A      2.691864   211A      2.698692
     212A      2.729586   213A      2.749695   214A      2.765564
     215A      2.848347   216A      2.862567   217A      2.881754
     218A      2.896588   219A      2.911864   220A      2.919019
     221A      2.935505   222A      2.972141   223A      2.996463
     224A      2.999894   225A      3.049245   226A      3.072866
     227A      3.104715   228A      3.113830   229A      3.195906
     230A      3.201594   231A      3.216771   232A      3.261370
     233A      3.293767   234A      3.390304   235A      3.413877
     236A      3.478578   237A      3.569942   238A      3.600765
     239A      3.734090   240A      3.755368   241A      3.786347
     242A      3.841650   243A      4.019031   244A      4.084578
     245A      4.099131   246A      4.169378   247A      4.431860

    Final Occupation by Irrep:
              A
    DOCC [    49 ]

  @RHF Final Energy:  -610.94110140131352

   => Energetics <=

    Nuclear Repulsion Energy =            745.6659588036651485
    One-Electron Energy =               -2328.4851531794965922
    Two-Electron Energy =                 971.8780929745180401
    Total Energy =                       -610.9411014013135173

Computation Completed

Properties will be evaluated at   0.000000,   0.000000,   0.000000 [a0]

Properties computed using the SCF density matrix

  Nuclear Dipole Moment: [e a0]
     X:    -7.6866      Y:    -5.1817      Z:     4.1440

  Electronic Dipole Moment: [e a0]
     X:     6.2594      Y:     4.4555      Z:    -0.1667

  Dipole Moment: [e a0]
     X:    -1.4272      Y:    -0.7262      Z:     3.9773     Total:     4.2875

  Dipole Moment: [D]
     X:    -3.6276      Y:    -1.8458      Z:    10.1092     Total:    10.8978

*** tstop() called on ds3 at Tue Apr 28 14:14:19 2020
Module time:
	user time   =     173.07 seconds =       2.88 minutes
	system time =      83.58 seconds =       1.39 minutes
	total time  =        252 seconds =       4.20 minutes
Total time:
	user time   =     173.07 seconds =       2.88 minutes
	system time =      83.58 seconds =       1.39 minutes
	total time  =        252 seconds =       4.20 minutes
                                     G D M A

                                 by Anthony Stone

                           version 2.2.06, 22 June 2011

               Distributed Multipoles from Gaussian wavefunctions

Starting at 14:14:19 on 28 Apr 2020

Using SCF density matrix from file ./SSI/SSI-076ASP-089TYR-1-dimer.test.1792.fchk

                         Distributed Multipole Analysis

Standard DMA

Positions and radii in angstrom
Multipole moments in atomic units, ea_0^k for rank k

C          x =  0.368028  y = -1.434486  z = -2.542727 angstrom
           Maximum rank =  0   Radius =  0.650 angstrom
                   Q00  =  -0.183849

C          x = -0.357972  y = -2.186486  z = -3.663727 angstrom
           Maximum rank =  0   Radius =  0.650 angstrom
                   Q00  =  -0.221059

C          x =  0.678028  y =  0.010514  z = -2.899727 angstrom
           Maximum rank =  0   Radius =  0.650 angstrom
                   Q00  =   0.990020

O          x =  0.365028  y =  0.457514  z = -4.026727 angstrom
           Maximum rank =  0   Radius =  0.650 angstrom
                   Q00  =  -0.922435

O          x =  1.238028  y =  0.710514  z = -2.026727 angstrom
           Maximum rank =  0   Radius =  0.650 angstrom
                   Q00  =  -0.954528

H          x = -0.219972  y = -1.485486  z = -1.624727 angstrom
           Maximum rank =  0   Radius =  0.325 angstrom
                   Q00  =   0.068122

H          x =  1.317028  y = -1.939486  z = -2.361727 angstrom
           Maximum rank =  0   Radius =  0.325 angstrom
                   Q00  =   0.065921

H          x =  0.183028  y = -1.985486  z = -4.588727 angstrom
           Maximum rank =  0   Radius =  0.325 angstrom
                   Q00  =   0.092424

H          x = -1.392822  y = -1.829226  z = -3.770754 angstrom
           Maximum rank =  0   Radius =  0.325 angstrom
                   Q00  =   0.076271

H          x = -0.315662  y = -3.276556  z = -3.522448 angstrom
           Maximum rank =  0   Radius =  0.325 angstrom
                   Q00  =   0.027615

C          x = -2.407972  y =  1.088514  z =  3.948273 angstrom
           Maximum rank =  0   Radius =  0.650 angstrom
                   Q00  =  -0.186143

C          x =  0.683028  y = -0.035486  z =  1.182273 angstrom
           Maximum rank =  0   Radius =  0.650 angstrom
                   Q00  =   0.404334

C          x = -0.062972  y =  1.120514  z =  0.953273 angstrom
           Maximum rank =  0   Radius =  0.650 angstrom
                   Q00  =  -0.149035

C          x =  0.425028  y = -0.834486  z =  2.295273 angstrom
           Maximum rank =  0   Radius =  0.650 angstrom
                   Q00  =  -0.129157

C          x = -1.057972  y =  1.484514  z =  1.859273 angstrom
           Maximum rank =  0   Radius =  0.650 angstrom
                   Q00  =   0.011113

C          x = -0.574972  y = -0.465486  z =  3.195273 angstrom
           Maximum rank =  0   Radius =  0.650 angstrom
                   Q00  =  -0.067403

C          x = -1.328972  y =  0.692514  z =  2.979273 angstrom
           Maximum rank =  0   Radius =  0.650 angstrom
                   Q00  =  -0.154201

O          x =  1.643028  y = -0.399486  z =  0.291273 angstrom
           Maximum rank =  0   Radius =  0.650 angstrom
                   Q00  =  -0.791524

H          x =  1.535028  y =  0.118514  z = -0.537727 angstrom
           Maximum rank =  0   Radius =  0.325 angstrom
                   Q00  =   0.549911

H          x =  0.141028  y =  1.737514  z =  0.091273 angstrom
           Maximum rank =  0   Radius =  0.325 angstrom
                   Q00  =   0.092676

H          x =  1.008028  y = -1.728486  z =  2.461273 angstrom
           Maximum rank =  0   Radius =  0.325 angstrom
                   Q00  =   0.056473

H          x = -1.618972  y =  2.394514  z =  1.696273 angstrom
           Maximum rank =  0   Radius =  0.325 angstrom
                   Q00  =   0.044873

H          x = -0.762972  y = -1.064486  z =  4.072273 angstrom
           Maximum rank =  0   Radius =  0.325 angstrom
                   Q00  =   0.036060

H          x = -2.781972  y =  0.196514  z =  4.457273 angstrom
           Maximum rank =  0   Radius =  0.325 angstrom
                   Q00  =   0.080274

H          x = -3.228972  y =  1.515514  z =  3.372273 angstrom
           Maximum rank =  0   Radius =  0.325 angstrom
                   Q00  =   0.084726

H          x = -2.078752  y =  1.815394  z =  4.705413 angstrom
           Maximum rank =  0   Radius =  0.325 angstrom
                   Q00  =   0.078521

Total multipoles referred to origin at
           x =   0.000000,  y =    0.000000,  z =    0.000000 angstrom
                   Q00  =  -1.000000

Finished at 14:14:19 on 28 Apr 2020

  DMA results are available in the Python driver through the
	  variable('DMA DISTRIBUTED MULTIPOLES')
  and
	  variable('DMA TOTAL MULTIPOLES')
  commands.

    Psi4 stopped on: Tuesday, 28 April 2020 02:14PM
    Psi4 wall time for execution: 0:04:11.98

*** Psi4 exiting successfully. Buy a developer a beer!
