                               Psi4 1.3.2 release

  ==> Input File <==

--------------------------------------------------------------------------
import numpy as np
set {scf_type pk
basis cc-pvdz
d_convergence 10
gdma_switch   0
gdma_limit    0
gdma_origin   [ 0.0,  0.0,  0.0 ]
}
molecule test {
    units Angstrom
    0 1
    --
    0 1
    C                1.594890977856696    -3.152789349357725    -0.246860345034859
    C                2.757890977856696    -4.122789349357725    -0.397860345034859
    H                0.649890977856696    -3.630789349357725    -0.501860345034859
    H                1.546890977856696    -2.831789349357725     0.792139654965141
    H                1.748890977856696    -2.276789349357724    -0.876860345034859
    H                2.551890977856696    -5.016789349357724     0.193139654965141
    H                3.626890977856696    -3.635789349357724     0.029139654965141
    H                2.972740977856696    -4.405189349357725    -1.439058345034860
    C               -0.345109022143304    -0.817789349357725     2.367139654965141
    C                0.649890977856696     0.517210650642275     0.477139654965141
    C               -0.481109022143304     0.110210650642275     1.189139654965141
    C                0.537890977856696     1.394210650642275    -0.598860345034859
    C               -1.734109022143304     0.598210650642275     0.807139654965141
    C               -0.714109022143304     1.872210650642275    -0.975860345034859
    C               -1.854109022143304     1.479210650642275    -0.274860345034859
    O               -0.814109022143304     2.726210650642275    -2.035860345034859
    H                1.624890977856696     0.151210650642275     0.763139654965141
    H                1.415890977856696     1.719210650642275    -1.129860345034859
    H                0.541890977856696    -1.436789349357725     2.243139654965140
    H               -1.212109022143304    -1.480789349357725     2.385139654965141
    H               -2.619109022143304     0.299210650642275     1.354139654965141
    H               -2.823109022143304     1.857210650642275    -0.562860345034859
    H               -1.729109022143304     2.977210650642276    -2.204860345034859
    H               -0.281769022143304    -0.288749349357725     3.329484654965140

}
e, wfn = energy('scf', return_wfn=True)
gdma(wfn)
dmavals = variable('DMA DISTRIBUTED MULTIPOLES')
charges = np.array(dmavals)
print(charges)
np.save('SSI-024ILE-055TYR-1-dimer.npy', np.array(charges))--------------------------------------------------------------------------

*** tstart() called on ds3
*** at Mon Apr 27 22:33:17 2020

   => Loading Basis Set <=

    Name: CC-PVDZ
    Role: ORBITAL
    Keyword: BASIS
    atoms 1-2, 9-15  entry C          line   138 file /theoryfs2/ds/metcalf/miniconda2/envs/tf2gpu/share/psi4/basis/cc-pvdz.gbs
    atoms 3-8, 17-24 entry H          line    22 file /theoryfs2/ds/metcalf/miniconda2/envs/tf2gpu/share/psi4/basis/cc-pvdz.gbs
    atoms 16         entry O          line   198 file /theoryfs2/ds/metcalf/miniconda2/envs/tf2gpu/share/psi4/basis/cc-pvdz.gbs

         ---------------------------------------------------------
                                   SCF
               by Justin Turney, Rob Parrish, Andy Simmonett
                          and Daniel G. A. Smith
                              RHF Reference
                        1 Threads,    500 MiB Core
         ---------------------------------------------------------

  ==> Geometry <==

    Molecular point group: c1
    Full point group: C1

    Geometry (in Angstrom), charge = 0, multiplicity = 1:

       Center              X                  Y                   Z               Mass
    ------------   -----------------  -----------------  -----------------  -----------------
         C            1.594890977857    -3.152789349358    -0.246860345035    12.000000000000
         C            2.757890977857    -4.122789349358    -0.397860345035    12.000000000000
         H            0.649890977857    -3.630789349358    -0.501860345035     1.007825032230
         H            1.546890977857    -2.831789349358     0.792139654965     1.007825032230
         H            1.748890977857    -2.276789349358    -0.876860345035     1.007825032230
         H            2.551890977857    -5.016789349358     0.193139654965     1.007825032230
         H            3.626890977857    -3.635789349358     0.029139654965     1.007825032230
         H            2.972740977857    -4.405189349358    -1.439058345035     1.007825032230
         C           -0.345109022143    -0.817789349358     2.367139654965    12.000000000000
         C            0.649890977857     0.517210650642     0.477139654965    12.000000000000
         C           -0.481109022143     0.110210650642     1.189139654965    12.000000000000
         C            0.537890977857     1.394210650642    -0.598860345035    12.000000000000
         C           -1.734109022143     0.598210650642     0.807139654965    12.000000000000
         C           -0.714109022143     1.872210650642    -0.975860345035    12.000000000000
         C           -1.854109022143     1.479210650642    -0.274860345035    12.000000000000
         O           -0.814109022143     2.726210650642    -2.035860345035    15.994914619570
         H            1.624890977857     0.151210650642     0.763139654965     1.007825032230
         H            1.415890977857     1.719210650642    -1.129860345035     1.007825032230
         H            0.541890977857    -1.436789349358     2.243139654965     1.007825032230
         H           -1.212109022143    -1.480789349358     2.385139654965     1.007825032230
         H           -2.619109022143     0.299210650642     1.354139654965     1.007825032230
         H           -2.823109022143     1.857210650642    -0.562860345035     1.007825032230
         H           -1.729109022143     2.977210650642    -2.204860345035     1.007825032230
         H           -0.281769022143    -0.288749349358     3.329484654965     1.007825032230

  Running in c1 symmetry.

  Rotational constants: A =      0.05817  B =      0.01834  C =      0.01526 [cm^-1]
  Rotational constants: A =   1743.90278  B =    549.89645  C =    457.34843 [MHz]
  Nuclear repulsion =  486.812567022219810

  Charge       = 0
  Multiplicity = 1
  Electrons    = 76
  Nalpha       = 38
  Nbeta        = 38

  ==> Algorithm <==

  SCF Algorithm Type is PK.
  DIIS enabled.
  MOM disabled.
  Fractional occupation disabled.
  Guess Type is SAD.
  Energy threshold   = 1.00e-06
  Density threshold  = 1.00e-10
  Integral threshold = 0.00e+00

  ==> Primary Basis <==

  Basis Set: CC-PVDZ
    Blend: CC-PVDZ
    Number of shells: 102
    Number of basis function: 210
    Number of Cartesian functions: 220
    Spherical Harmonics?: true
    Max angular momentum: 2

  ==> Pre-Iterations <==

   -------------------------------------------------------
    Irrep   Nso     Nmo     Nalpha   Nbeta   Ndocc  Nsocc
   -------------------------------------------------------
     A        210     210       0       0       0       0
   -------------------------------------------------------
    Total     210     210      38      38      38       0
   -------------------------------------------------------

  ==> Integral Setup <==

  Using integral reordering PK algorithm.
  Sizing the integral batches needed.
  Building batch lookup table.
   Calculation information:
      Number of atoms:                  24
      Number of AO shells:             102
      Number of primitives:            290
      Number of atomic orbitals:       220
      Number of basis functions:       210

      Integral cutoff                 1.00e-12
      Number of threads:                 1

	Batch   1 pq = [       0,    9405] index = [             0,44231715] size =     44231715
	Batch   2 pq = [    9405,   13301] index = [      44231715,88464951] size =     44233236
	Batch   3 pq = [   13301,   16290] index = [      88464951,132690195] size =     44225244
	Batch   4 pq = [   16290,   18810] index = [     132690195,176917455] size =     44227260
	Batch   5 pq = [   18810,   21030] index = [     176917455,221140965] size =     44223510
	Batch   6 pq = [   21030,   22155] index = [     221140965,245433090] size =     24292125
  Task number: 23
  Buffer size: 11059200
  Buffer per thread: 2
  We computed 11052037 shell quartets total.
  Whereas there are 13799631 unique shell quartets.

  ==> DiskJK: Disk-Based J/K Matrices <==

    J tasked:                  Yes
    K tasked:                  Yes
    wK tasked:                  No
    Memory [MiB]:              375
    Schwarz Cutoff:          1E-12

    OpenMP threads:              1

  Minimum eigenvalue in the overlap matrix is 3.2967341800E-04.
  Using Symmetric Orthogonalization.

  SCF Guess: Superposition of Atomic Densities via on-the-fly atomic UHF.

  ==> Iterations <==

                        Total Energy        Delta E     RMS |[F,P]|

   @RHF iter SAD:  -422.67369902556254   -4.22674e+02   0.00000e+00
   @RHF iter   1:  -423.60059980200390   -9.26901e-01   2.98456e-03 DIIS
   @RHF iter   2:  -423.81778781705378   -2.17188e-01   1.25894e-03 DIIS
   @RHF iter   3:  -423.85277076544173   -3.49829e-02   2.84846e-04 DIIS
   @RHF iter   4:  -423.85564257064050   -2.87181e-03   1.18025e-04 DIIS
   @RHF iter   5:  -423.85600099089237   -3.58420e-04   2.07775e-05 DIIS
   @RHF iter   6:  -423.85601856453866   -1.75736e-05   6.44322e-06 DIIS
   @RHF iter   7:  -423.85602023828318   -1.67374e-06   2.11724e-06 DIIS
   @RHF iter   8:  -423.85602047467802   -2.36395e-07   7.99533e-07 DIIS
   @RHF iter   9:  -423.85602051536176   -4.06837e-08   3.30681e-07 DIIS
   @RHF iter  10:  -423.85602052369910   -8.33734e-09   1.41244e-07 DIIS
   @RHF iter  11:  -423.85602052629787   -2.59877e-09   6.30473e-08 DIIS
   @RHF iter  12:  -423.85602052676131   -4.63444e-10   2.93164e-08 DIIS
   @RHF iter  13:  -423.85602052684453   -8.32188e-11   8.33646e-09 DIIS
   @RHF iter  14:  -423.85602052684891   -4.37694e-12   2.24087e-09 DIIS
   @RHF iter  15:  -423.85602052684840    5.11591e-13   7.67420e-10 DIIS
   @RHF iter  16:  -423.85602052684851   -1.13687e-13   2.91253e-10 DIIS
   @RHF iter  17:  -423.85602052684692    1.59162e-12   1.35482e-10 DIIS
   @RHF iter  18:  -423.85602052684823   -1.30740e-12   7.00774e-11 DIIS
  Energy and wave function converged.

  ==> Post-Iterations <==

    Orbital Energies [Eh]
    ---------------------

    Doubly Occupied:

       1A    -20.582650     2A    -11.299222     3A    -11.240058
       4A    -11.237475     5A    -11.234225     6A    -11.233087
       7A    -11.229221     8A    -11.226788     9A    -11.215622
      10A    -11.213819    11A     -1.398246    12A     -1.148449
      13A     -1.036352    14A     -1.019326    15A     -1.016309
      16A     -0.924995    17A     -0.844174    18A     -0.835211
      19A     -0.800730    20A     -0.730249    21A     -0.666671
      22A     -0.641117    23A     -0.606715    24A     -0.598512
      25A     -0.598017    26A     -0.586566    27A     -0.584975
      28A     -0.569904    29A     -0.566869    30A     -0.526308
      31A     -0.502106    32A     -0.495696    33A     -0.485361
      34A     -0.484417    35A     -0.481151    36A     -0.465041
      37A     -0.337377    38A     -0.300507

    Virtual:

      39A      0.129737    40A      0.154750    41A      0.175075
      42A      0.180572    43A      0.199861    44A      0.213209
      45A      0.222923    46A      0.244891    47A      0.252977
      48A      0.260540    49A      0.264875    50A      0.275415
      51A      0.284145    52A      0.286675    53A      0.294553
      54A      0.367507    55A      0.370809    56A      0.382821
      57A      0.398317    58A      0.426535    59A      0.458322
      60A      0.486806    61A      0.500226    62A      0.507934
      63A      0.574450    64A      0.597715    65A      0.605236
      66A      0.611969    67A      0.646387    68A      0.658010
      69A      0.667601    70A      0.673572    71A      0.682194
      72A      0.696603    73A      0.710171    74A      0.728992
      75A      0.733411    76A      0.739409    77A      0.753785
      78A      0.769195    79A      0.771937    80A      0.799279
      81A      0.804221    82A      0.829279    83A      0.847398
      84A      0.853755    85A      0.871370    86A      0.879621
      87A      0.889203    88A      0.894766    89A      0.897138
      90A      0.898211    91A      0.911772    92A      0.915145
      93A      0.923887    94A      0.934741    95A      0.942695
      96A      0.948636    97A      0.962664    98A      0.986332
      99A      1.004960   100A      1.021272   101A      1.028939
     102A      1.051146   103A      1.123869   104A      1.130152
     105A      1.133287   106A      1.141361   107A      1.145217
     108A      1.166902   109A      1.202446   110A      1.241258
     111A      1.245087   112A      1.254421   113A      1.274093
     114A      1.285481   115A      1.294273   116A      1.309540
     117A      1.313574   118A      1.355976   119A      1.362763
     120A      1.389283   121A      1.466788   122A      1.481216
     123A      1.488821   124A      1.500171   125A      1.527432
     126A      1.561995   127A      1.600497   128A      1.617074
     129A      1.625713   130A      1.682164   131A      1.685377
     132A      1.696518   133A      1.708950   134A      1.734893
     135A      1.747984   136A      1.783808   137A      1.802939
     138A      1.803965   139A      1.858404   140A      1.868108
     141A      1.871871   142A      1.879903   143A      1.893102
     144A      1.903163   145A      1.914349   146A      1.916002
     147A      1.931060   148A      1.942111   149A      1.948900
     150A      1.959682   151A      1.964393   152A      1.965620
     153A      1.971511   154A      1.978145   155A      1.985971
     156A      2.003586   157A      2.042703   158A      2.047679
     159A      2.059588   160A      2.067336   161A      2.069832
     162A      2.098906   163A      2.132052   164A      2.140408
     165A      2.148858   166A      2.159994   167A      2.198269
     168A      2.230352   169A      2.260390   170A      2.276742
     171A      2.295212   172A      2.307442   173A      2.319847
     174A      2.328019   175A      2.367199   176A      2.425735
     177A      2.451076   178A      2.455709   179A      2.475858
     180A      2.481147   181A      2.486106   182A      2.532999
     183A      2.539228   184A      2.565919   185A      2.587231
     186A      2.602521   187A      2.639143   188A      2.751516
     189A      2.771295   190A      2.777985   191A      2.791467
     192A      2.804769   193A      2.811925   194A      2.841614
     195A      2.856107   196A      2.876181   197A      2.906292
     198A      2.955354   199A      2.965148   200A      2.968840
     201A      3.001407   202A      3.085546   203A      3.110025
     204A      3.250225   205A      3.277223   206A      3.344993
     207A      3.571083   208A      3.675133   209A      3.961383
     210A      4.191817

    Final Occupation by Irrep:
              A
    DOCC [    38 ]

  @RHF Final Energy:  -423.85602052684823

   => Energetics <=

    Nuclear Repulsion Energy =            486.8125670222198096
    One-Electron Energy =               -1539.4101348025328662
    Two-Electron Energy =                 628.7415472534647733
    Total Energy =                       -423.8560205268482832

Computation Completed

Properties will be evaluated at   0.000000,   0.000000,   0.000000 [a0]

Properties computed using the SCF density matrix

  Nuclear Dipole Moment: [e a0]
     X:     7.5096      Y:   -16.8608      Z:     4.0908

  Electronic Dipole Moment: [e a0]
     X:    -8.0373      Y:    16.7888      Z:    -3.8727

  Dipole Moment: [e a0]
     X:    -0.5277      Y:    -0.0720      Z:     0.2181     Total:     0.5755

  Dipole Moment: [D]
     X:    -1.3414      Y:    -0.1830      Z:     0.5543     Total:     1.4629

*** tstop() called on ds3 at Mon Apr 27 22:35:33 2020
Module time:
	user time   =      98.11 seconds =       1.64 minutes
	system time =      44.28 seconds =       0.74 minutes
	total time  =        136 seconds =       2.27 minutes
Total time:
	user time   =      98.11 seconds =       1.64 minutes
	system time =      44.28 seconds =       0.74 minutes
	total time  =        136 seconds =       2.27 minutes
                                     G D M A

                                 by Anthony Stone

                           version 2.2.06, 22 June 2011

               Distributed Multipoles from Gaussian wavefunctions

Starting at 22:35:33 on 27 Apr 2020

Using SCF density matrix from file ./SSI/SSI-024ILE-055TYR-1-dimer.test.31261.fchk

                         Distributed Multipole Analysis

Standard DMA

Positions and radii in angstrom
Multipole moments in atomic units, ea_0^k for rank k

C          x =  1.594891  y = -3.152789  z = -0.246860 angstrom
           Maximum rank =  0   Radius =  0.650 angstrom
                   Q00  =  -0.231232

C          x =  2.757891  y = -4.122789  z = -0.397860 angstrom
           Maximum rank =  0   Radius =  0.650 angstrom
                   Q00  =  -0.234779

H          x =  0.649891  y = -3.630789  z = -0.501860 angstrom
           Maximum rank =  0   Radius =  0.325 angstrom
                   Q00  =   0.080164

H          x =  1.546891  y = -2.831789  z =  0.792140 angstrom
           Maximum rank =  0   Radius =  0.325 angstrom
                   Q00  =   0.071900

H          x =  1.748891  y = -2.276789  z = -0.876860 angstrom
           Maximum rank =  0   Radius =  0.325 angstrom
                   Q00  =   0.083052

H          x =  2.551891  y = -5.016789  z =  0.193140 angstrom
           Maximum rank =  0   Radius =  0.325 angstrom
                   Q00  =   0.076295

H          x =  3.626891  y = -3.635789  z =  0.029140 angstrom
           Maximum rank =  0   Radius =  0.325 angstrom
                   Q00  =   0.073874

H          x =  2.972741  y = -4.405189  z = -1.439058 angstrom
           Maximum rank =  0   Radius =  0.325 angstrom
                   Q00  =   0.081931

C          x = -0.345109  y = -0.817789  z =  2.367140 angstrom
           Maximum rank =  0   Radius =  0.650 angstrom
                   Q00  =  -0.191814

C          x =  0.649891  y =  0.517211  z =  0.477140 angstrom
           Maximum rank =  0   Radius =  0.650 angstrom
                   Q00  =   0.029421

C          x = -0.481109  y =  0.110211  z =  1.189140 angstrom
           Maximum rank =  0   Radius =  0.650 angstrom
                   Q00  =  -0.134502

C          x =  0.537891  y =  1.394211  z = -0.598860 angstrom
           Maximum rank =  0   Radius =  0.650 angstrom
                   Q00  =  -0.111703

C          x = -1.734109  y =  0.598211  z =  0.807140 angstrom
           Maximum rank =  0   Radius =  0.650 angstrom
                   Q00  =  -0.066490

C          x = -0.714109  y =  1.872211  z = -0.975860 angstrom
           Maximum rank =  0   Radius =  0.650 angstrom
                   Q00  =   0.364406

C          x = -1.854109  y =  1.479211  z = -0.274860 angstrom
           Maximum rank =  0   Radius =  0.650 angstrom
                   Q00  =  -0.198453

O          x = -0.814109  y =  2.726211  z = -2.035860 angstrom
           Maximum rank =  0   Radius =  0.650 angstrom
                   Q00  =  -0.675244

H          x =  1.624891  y =  0.151211  z =  0.763140 angstrom
           Maximum rank =  0   Radius =  0.325 angstrom
                   Q00  =   0.064174

H          x =  1.415891  y =  1.719211  z = -1.129860 angstrom
           Maximum rank =  0   Radius =  0.325 angstrom
                   Q00  =   0.080516

H          x =  0.541891  y = -1.436789  z =  2.243140 angstrom
           Maximum rank =  0   Radius =  0.325 angstrom
                   Q00  =   0.097264

H          x = -1.212109  y = -1.480789  z =  2.385140 angstrom
           Maximum rank =  0   Radius =  0.325 angstrom
                   Q00  =   0.094719

H          x = -2.619109  y =  0.299211  z =  1.354140 angstrom
           Maximum rank =  0   Radius =  0.325 angstrom
                   Q00  =   0.069338

H          x = -2.823109  y =  1.857211  z = -0.562860 angstrom
           Maximum rank =  0   Radius =  0.325 angstrom
                   Q00  =   0.072515

H          x = -1.729109  y =  2.977211  z = -2.204860 angstrom
           Maximum rank =  0   Radius =  0.325 angstrom
                   Q00  =   0.405639

H          x = -0.281769  y = -0.288749  z =  3.329485 angstrom
           Maximum rank =  0   Radius =  0.325 angstrom
                   Q00  =   0.099008

Total multipoles referred to origin at
           x =   0.000000,  y =    0.000000,  z =    0.000000 angstrom
                   Q00  =  -0.000000

Finished at 22:35:33 on 27 Apr 2020

  DMA results are available in the Python driver through the
	  variable('DMA DISTRIBUTED MULTIPOLES')
  and
	  variable('DMA TOTAL MULTIPOLES')
  commands.

    Psi4 stopped on: Monday, 27 April 2020 10:35PM
    Psi4 wall time for execution: 0:02:15.97

*** Psi4 exiting successfully. Buy a developer a beer!
