                               Psi4 1.3.2 release

  ==> Input File <==

--------------------------------------------------------------------------
import numpy as np
set {scf_type pk
basis cc-pvdz
d_convergence 10
gdma_switch   0
gdma_limit    0
gdma_origin   [ 0.0,  0.0,  0.0 ]
}
molecule test {
    units Angstrom
    0 1
    --
    0 1
    C                2.215093958708258    -1.565242350303404     1.175685658962401
    C                2.125093958708258    -3.092242350303404     1.235685658962401
    H                3.247093958708258    -1.267242350303404     1.265685658962400
    H                1.820093958708258    -1.193242350303404     0.232685658962401
    H                1.620093958708258    -1.088242350303404     1.953685658962401
    H                1.077093958708258    -3.372242350303404     1.149685658962401
    H                2.527983958708258    -3.457342350303404     2.191921658962400
    H                2.682333958708258    -3.547642350303404     0.403766658962401
    C               -0.225906041291742     3.162757649696596     1.139685658962400
    C               -1.315906041291742    -0.386242350303404     0.263685658962401
    C               -0.792906041291742    -0.532242350303404    -1.019314341037599
    C               -1.121906041291742     0.810757649696596     0.958685658962401
    C               -0.406906041291742     1.868757649696596     0.384685658962400
    C               -0.078906041291742     0.514757649696596    -1.607314341037599
    C                0.112093958708258     1.708757649696596    -0.901314341037599
    O               -0.979906041291742    -1.705242350303404    -1.690314341037599
    H               -1.863906041291742    -1.201242350303404     0.713685658962401
    H               -1.529906041291742     0.917757649696596     1.955685658962401
    H                0.333093958708258     0.391757649696596    -2.595314341037600
    H               -0.587906041291742    -1.686242350303404    -2.570314341037600
    H                0.738093958708258     3.611757649696596     0.892685658962401
    H               -0.204906041291742     2.912757649696596     2.198685658962400
    H                0.662093958708258     2.512757649696596    -1.353314341037599
    H               -1.040176041291742     3.884237649696596     0.977118658962401

}
e, wfn = energy('scf', return_wfn=True)
gdma(wfn)
dmavals = variable('DMA DISTRIBUTED MULTIPOLES')
charges = np.array(dmavals)
print(charges)
np.save('SSI-007ILE-038TYR-1-dimer.npy', np.array(charges))--------------------------------------------------------------------------

*** tstart() called on ds3
*** at Tue Apr 28 14:19:25 2020

   => Loading Basis Set <=

    Name: CC-PVDZ
    Role: ORBITAL
    Keyword: BASIS
    atoms 1-2, 9-15  entry C          line   138 file /theoryfs2/ds/metcalf/miniconda2/envs/tf2gpu/share/psi4/basis/cc-pvdz.gbs
    atoms 3-8, 17-24 entry H          line    22 file /theoryfs2/ds/metcalf/miniconda2/envs/tf2gpu/share/psi4/basis/cc-pvdz.gbs
    atoms 16         entry O          line   198 file /theoryfs2/ds/metcalf/miniconda2/envs/tf2gpu/share/psi4/basis/cc-pvdz.gbs

         ---------------------------------------------------------
                                   SCF
               by Justin Turney, Rob Parrish, Andy Simmonett
                          and Daniel G. A. Smith
                              RHF Reference
                        1 Threads,    500 MiB Core
         ---------------------------------------------------------

  ==> Geometry <==

    Molecular point group: c1
    Full point group: C1

    Geometry (in Angstrom), charge = 0, multiplicity = 1:

       Center              X                  Y                   Z               Mass
    ------------   -----------------  -----------------  -----------------  -----------------
         C            2.215093958708    -1.565242350303     1.175685658962    12.000000000000
         C            2.125093958708    -3.092242350303     1.235685658962    12.000000000000
         H            3.247093958708    -1.267242350303     1.265685658962     1.007825032230
         H            1.820093958708    -1.193242350303     0.232685658962     1.007825032230
         H            1.620093958708    -1.088242350303     1.953685658962     1.007825032230
         H            1.077093958708    -3.372242350303     1.149685658962     1.007825032230
         H            2.527983958708    -3.457342350303     2.191921658962     1.007825032230
         H            2.682333958708    -3.547642350303     0.403766658962     1.007825032230
         C           -0.225906041292     3.162757649697     1.139685658962    12.000000000000
         C           -1.315906041292    -0.386242350303     0.263685658962    12.000000000000
         C           -0.792906041292    -0.532242350303    -1.019314341038    12.000000000000
         C           -1.121906041292     0.810757649697     0.958685658962    12.000000000000
         C           -0.406906041292     1.868757649697     0.384685658962    12.000000000000
         C           -0.078906041292     0.514757649697    -1.607314341038    12.000000000000
         C            0.112093958708     1.708757649697    -0.901314341038    12.000000000000
         O           -0.979906041292    -1.705242350303    -1.690314341038    15.994914619570
         H           -1.863906041292    -1.201242350303     0.713685658962     1.007825032230
         H           -1.529906041292     0.917757649697     1.955685658962     1.007825032230
         H            0.333093958708     0.391757649697    -2.595314341038     1.007825032230
         H           -0.587906041292    -1.686242350303    -2.570314341038     1.007825032230
         H            0.738093958708     3.611757649697     0.892685658962     1.007825032230
         H           -0.204906041292     2.912757649697     2.198685658962     1.007825032230
         H            0.662093958708     2.512757649697    -1.353314341038     1.007825032230
         H           -1.040176041292     3.884237649697     0.977118658962     1.007825032230

  Running in c1 symmetry.

  Rotational constants: A =      0.04712  B =      0.02628  C =      0.02060 [cm^-1]
  Rotational constants: A =   1412.59017  B =    787.97640  C =    617.58066 [MHz]
  Nuclear repulsion =  501.914474565216892

  Charge       = 0
  Multiplicity = 1
  Electrons    = 76
  Nalpha       = 38
  Nbeta        = 38

  ==> Algorithm <==

  SCF Algorithm Type is PK.
  DIIS enabled.
  MOM disabled.
  Fractional occupation disabled.
  Guess Type is SAD.
  Energy threshold   = 1.00e-06
  Density threshold  = 1.00e-10
  Integral threshold = 0.00e+00

  ==> Primary Basis <==

  Basis Set: CC-PVDZ
    Blend: CC-PVDZ
    Number of shells: 102
    Number of basis function: 210
    Number of Cartesian functions: 220
    Spherical Harmonics?: true
    Max angular momentum: 2

  ==> Pre-Iterations <==

   -------------------------------------------------------
    Irrep   Nso     Nmo     Nalpha   Nbeta   Ndocc  Nsocc
   -------------------------------------------------------
     A        210     210       0       0       0       0
   -------------------------------------------------------
    Total     210     210      38      38      38       0
   -------------------------------------------------------

  ==> Integral Setup <==

  Using integral reordering PK algorithm.
  Sizing the integral batches needed.
  Building batch lookup table.
   Calculation information:
      Number of atoms:                  24
      Number of AO shells:             102
      Number of primitives:            290
      Number of atomic orbitals:       220
      Number of basis functions:       210

      Integral cutoff                 1.00e-12
      Number of threads:                 1

	Batch   1 pq = [       0,    9405] index = [             0,44231715] size =     44231715
	Batch   2 pq = [    9405,   13301] index = [      44231715,88464951] size =     44233236
	Batch   3 pq = [   13301,   16290] index = [      88464951,132690195] size =     44225244
	Batch   4 pq = [   16290,   18810] index = [     132690195,176917455] size =     44227260
	Batch   5 pq = [   18810,   21030] index = [     176917455,221140965] size =     44223510
	Batch   6 pq = [   21030,   22155] index = [     221140965,245433090] size =     24292125
  Task number: 23
  Buffer size: 11059200
  Buffer per thread: 2
  We computed 12478113 shell quartets total.
  Whereas there are 13799631 unique shell quartets.

  ==> DiskJK: Disk-Based J/K Matrices <==

    J tasked:                  Yes
    K tasked:                  Yes
    wK tasked:                  No
    Memory [MiB]:              375
    Schwarz Cutoff:          1E-12

    OpenMP threads:              1

  Minimum eigenvalue in the overlap matrix is 3.2973003206E-04.
  Using Symmetric Orthogonalization.

  SCF Guess: Superposition of Atomic Densities via on-the-fly atomic UHF.

  ==> Iterations <==

                        Total Energy        Delta E     RMS |[F,P]|

   @RHF iter SAD:  -422.62751807509323   -4.22628e+02   0.00000e+00
   @RHF iter   1:  -423.60318319016079   -9.75665e-01   2.97522e-03 DIIS
   @RHF iter   2:  -423.81885155810380   -2.15668e-01   1.25540e-03 DIIS
   @RHF iter   3:  -423.85357791438247   -3.47264e-02   2.83078e-04 DIIS
   @RHF iter   4:  -423.85642112186218   -2.84321e-03   1.17322e-04 DIIS
   @RHF iter   5:  -423.85677412063342   -3.52999e-04   2.07380e-05 DIIS
   @RHF iter   6:  -423.85679170735557   -1.75867e-05   6.52321e-06 DIIS
   @RHF iter   7:  -423.85679341344456   -1.70609e-06   2.18166e-06 DIIS
   @RHF iter   8:  -423.85679367209173   -2.58647e-07   8.42415e-07 DIIS
   @RHF iter   9:  -423.85679372101470   -4.89230e-08   3.61540e-07 DIIS
   @RHF iter  10:  -423.85679373167949   -1.06648e-08   1.58212e-07 DIIS
   @RHF iter  11:  -423.85679373501171   -3.33222e-09   6.91409e-08 DIIS
   @RHF iter  12:  -423.85679373554802   -5.36318e-10   3.05972e-08 DIIS
   @RHF iter  13:  -423.85679373562749   -7.94671e-11   8.29953e-09 DIIS
   @RHF iter  14:  -423.85679373563124   -3.75167e-12   2.33815e-09 DIIS
   @RHF iter  15:  -423.85679373563255   -1.30740e-12   7.52215e-10 DIIS
   @RHF iter  16:  -423.85679373563210    4.54747e-13   2.86735e-10 DIIS
   @RHF iter  17:  -423.85679373563215   -5.68434e-14   1.33756e-10 DIIS
   @RHF iter  18:  -423.85679373563255   -3.97904e-13   6.80935e-11 DIIS
  Energy and wave function converged.

  ==> Post-Iterations <==

    Orbital Energies [Eh]
    ---------------------

    Doubly Occupied:

       1A    -20.584262     2A    -11.300979     3A    -11.240387
       4A    -11.240251     5A    -11.235295     6A    -11.234939
       7A    -11.231785     8A    -11.228664     9A    -11.210822
      10A    -11.203160    11A     -1.399831    12A     -1.148945
      13A     -1.037217    14A     -1.016860    15A     -1.007807
      16A     -0.926364    17A     -0.845660    18A     -0.828453
      19A     -0.801728    20A     -0.731912    21A     -0.667593
      22A     -0.642367    23A     -0.607841    24A     -0.594600
      25A     -0.587357    26A     -0.586221    27A     -0.581671
      28A     -0.571841    29A     -0.566358    30A     -0.527112
      31A     -0.498111    32A     -0.493084    33A     -0.485832
      34A     -0.478480    35A     -0.474079    36A     -0.463738
      37A     -0.338132    38A     -0.302024

    Virtual:

      39A      0.127066    40A      0.154218    41A      0.173419
      42A      0.184234    43A      0.197430    44A      0.216062
      45A      0.222743    46A      0.245584    47A      0.254886
      48A      0.261386    49A      0.267250    50A      0.277045
      51A      0.283196    52A      0.288196    53A      0.302989
      54A      0.306990    55A      0.368186    56A      0.371635
      57A      0.403946    58A      0.434154    59A      0.453434
      60A      0.479968    61A      0.494975    62A      0.505214
      63A      0.590189    64A      0.599422    65A      0.603566
      66A      0.608819    67A      0.641321    68A      0.648405
      69A      0.658282    70A      0.666591    71A      0.679560
      72A      0.693225    73A      0.697282    74A      0.728326
      75A      0.734024    76A      0.756168    77A      0.766512
      78A      0.773133    79A      0.783878    80A      0.795465
      81A      0.834456    82A      0.839532    83A      0.849677
      84A      0.858202    85A      0.864789    86A      0.878279
      87A      0.879187    88A      0.888133    89A      0.895632
      90A      0.898914    91A      0.907767    92A      0.920506
      93A      0.926918    94A      0.933589    95A      0.938350
      96A      0.943807    97A      0.959861    98A      0.972163
      99A      0.998077   100A      1.016370   101A      1.049839
     102A      1.052728   103A      1.122341   104A      1.128055
     105A      1.140104   106A      1.142941   107A      1.156388
     108A      1.175013   109A      1.198969   110A      1.240737
     111A      1.245078   112A      1.264234   113A      1.273043
     114A      1.286431   115A      1.298068   116A      1.305898
     117A      1.311455   118A      1.350606   119A      1.359658
     120A      1.384980   121A      1.473963   122A      1.484405
     123A      1.497178   124A      1.500275   125A      1.526982
     126A      1.550624   127A      1.576681   128A      1.617211
     129A      1.623950   130A      1.683819   131A      1.689972
     132A      1.702076   133A      1.715381   134A      1.730648
     135A      1.751414   136A      1.781924   137A      1.797941
     138A      1.807931   139A      1.870754   140A      1.876217
     141A      1.882117   142A      1.887803   143A      1.895905
     144A      1.897460   145A      1.911261   146A      1.918397
     147A      1.925148   148A      1.938282   149A      1.948151
     150A      1.954824   151A      1.959571   152A      1.964283
     153A      1.972121   154A      1.978265   155A      1.991025
     156A      1.999296   157A      2.034798   158A      2.049650
     159A      2.053930   160A      2.070283   161A      2.073780
     162A      2.101772   163A      2.123110   164A      2.139294
     165A      2.146218   166A      2.158239   167A      2.201079
     168A      2.226924   169A      2.260795   170A      2.277399
     171A      2.291849   172A      2.302030   173A      2.317108
     174A      2.335988   175A      2.378828   176A      2.426254
     177A      2.450190   178A      2.464243   179A      2.475677
     180A      2.480466   181A      2.481528   182A      2.533482
     183A      2.549933   184A      2.579758   185A      2.591120
     186A      2.598803   187A      2.640990   188A      2.752621
     189A      2.770185   190A      2.773643   191A      2.783364
     192A      2.806700   193A      2.820326   194A      2.840685
     195A      2.866512   196A      2.882063   197A      2.899055
     198A      2.950956   199A      2.976915   200A      2.991907
     201A      3.006976   202A      3.080542   203A      3.101972
     204A      3.247636   205A      3.277441   206A      3.346274
     207A      3.571681   208A      3.670001   209A      3.960188
     210A      4.190687

    Final Occupation by Irrep:
              A
    DOCC [    38 ]

  @RHF Final Energy:  -423.85679373563255

   => Energetics <=

    Nuclear Repulsion Energy =            501.9144745652168922
    One-Electron Energy =               -1569.6990067393835488
    Two-Electron Energy =                 643.9277384385339928
    Total Energy =                       -423.8567937356325501

Computation Completed

Properties will be evaluated at   0.000000,   0.000000,   0.000000 [a0]

Properties computed using the SCF density matrix

  Nuclear Dipole Moment: [e a0]
     X:     8.8836      Y:    -2.4291      Z:     6.9445

  Electronic Dipole Moment: [e a0]
     X:    -8.6634      Y:     2.8519      Z:    -7.3032

  Dipole Moment: [e a0]
     X:     0.2202      Y:     0.4228      Z:    -0.3587     Total:     0.5966

  Dipole Moment: [D]
     X:     0.5597      Y:     1.0747      Z:    -0.9117     Total:     1.5163

*** tstop() called on ds3 at Tue Apr 28 14:21:51 2020
Module time:
	user time   =      95.59 seconds =       1.59 minutes
	system time =      42.49 seconds =       0.71 minutes
	total time  =        146 seconds =       2.43 minutes
Total time:
	user time   =      95.59 seconds =       1.59 minutes
	system time =      42.49 seconds =       0.71 minutes
	total time  =        146 seconds =       2.43 minutes
                                     G D M A

                                 by Anthony Stone

                           version 2.2.06, 22 June 2011

               Distributed Multipoles from Gaussian wavefunctions

Starting at 14:21:51 on 28 Apr 2020

Using SCF density matrix from file ./SSI/SSI-007ILE-038TYR-1-dimer.test.12760.fchk

                         Distributed Multipole Analysis

Standard DMA

Positions and radii in angstrom
Multipole moments in atomic units, ea_0^k for rank k

C          x =  2.215094  y = -1.565242  z =  1.175686 angstrom
           Maximum rank =  0   Radius =  0.650 angstrom
                   Q00  =  -0.249528

C          x =  2.125094  y = -3.092242  z =  1.235686 angstrom
           Maximum rank =  0   Radius =  0.650 angstrom
                   Q00  =  -0.222601

H          x =  3.247094  y = -1.267242  z =  1.265686 angstrom
           Maximum rank =  0   Radius =  0.325 angstrom
                   Q00  =   0.071219

H          x =  1.820094  y = -1.193242  z =  0.232686 angstrom
           Maximum rank =  0   Radius =  0.325 angstrom
                   Q00  =   0.084392

H          x =  1.620094  y = -1.088242  z =  1.953686 angstrom
           Maximum rank =  0   Radius =  0.325 angstrom
                   Q00  =   0.080556

H          x =  1.077094  y = -3.372242  z =  1.149686 angstrom
           Maximum rank =  0   Radius =  0.325 angstrom
                   Q00  =   0.080943

H          x =  2.527984  y = -3.457342  z =  2.191922 angstrom
           Maximum rank =  0   Radius =  0.325 angstrom
                   Q00  =   0.074606

H          x =  2.682334  y = -3.547642  z =  0.403767 angstrom
           Maximum rank =  0   Radius =  0.325 angstrom
                   Q00  =   0.075661

C          x = -0.225906  y =  3.162758  z =  1.139686 angstrom
           Maximum rank =  0   Radius =  0.650 angstrom
                   Q00  =  -0.195921

C          x = -1.315906  y = -0.386242  z =  0.263686 angstrom
           Maximum rank =  0   Radius =  0.650 angstrom
                   Q00  =  -0.108080

C          x = -0.792906  y = -0.532242  z = -1.019314 angstrom
           Maximum rank =  0   Radius =  0.650 angstrom
                   Q00  =   0.326086

C          x = -1.121906  y =  0.810758  z =  0.958686 angstrom
           Maximum rank =  0   Radius =  0.650 angstrom
                   Q00  =   0.023661

C          x = -0.406906  y =  1.868758  z =  0.384686 angstrom
           Maximum rank =  0   Radius =  0.650 angstrom
                   Q00  =  -0.130780

C          x = -0.078906  y =  0.514758  z = -1.607314 angstrom
           Maximum rank =  0   Radius =  0.650 angstrom
                   Q00  =  -0.201123

C          x =  0.112094  y =  1.708758  z = -0.901314 angstrom
           Maximum rank =  0   Radius =  0.650 angstrom
                   Q00  =  -0.022367

O          x = -0.979906  y = -1.705242  z = -1.690314 angstrom
           Maximum rank =  0   Radius =  0.650 angstrom
                   Q00  =  -0.674702

H          x = -1.863906  y = -1.201242  z =  0.713686 angstrom
           Maximum rank =  0   Radius =  0.325 angstrom
                   Q00  =   0.081960

H          x = -1.529906  y =  0.917758  z =  1.955686 angstrom
           Maximum rank =  0   Radius =  0.325 angstrom
                   Q00  =   0.064364

H          x =  0.333094  y =  0.391758  z = -2.595314 angstrom
           Maximum rank =  0   Radius =  0.325 angstrom
                   Q00  =   0.072524

H          x = -0.587906  y = -1.686242  z = -2.570314 angstrom
           Maximum rank =  0   Radius =  0.325 angstrom
                   Q00  =   0.406781

H          x =  0.738094  y =  3.611758  z =  0.892686 angstrom
           Maximum rank =  0   Radius =  0.325 angstrom
                   Q00  =   0.097926

H          x = -0.204906  y =  2.912758  z =  2.198686 angstrom
           Maximum rank =  0   Radius =  0.325 angstrom
                   Q00  =   0.094247

H          x =  0.662094  y =  2.512758  z = -1.353314 angstrom
           Maximum rank =  0   Radius =  0.325 angstrom
                   Q00  =   0.069215

H          x = -1.040176  y =  3.884238  z =  0.977119 angstrom
           Maximum rank =  0   Radius =  0.325 angstrom
                   Q00  =   0.100960

Total multipoles referred to origin at
           x =   0.000000,  y =    0.000000,  z =    0.000000 angstrom
                   Q00  =  -0.000000

Finished at 14:21:51 on 28 Apr 2020

  DMA results are available in the Python driver through the
	  variable('DMA DISTRIBUTED MULTIPOLES')
  and
	  variable('DMA TOTAL MULTIPOLES')
  commands.

    Psi4 stopped on: Tuesday, 28 April 2020 02:21PM
    Psi4 wall time for execution: 0:02:26.59

*** Psi4 exiting successfully. Buy a developer a beer!
