                               Psi4 1.3.2 release

  ==> Input File <==

--------------------------------------------------------------------------
import numpy as np
set {scf_type pk
basis cc-pvdz
d_convergence 10
gdma_switch   0
gdma_limit    0
gdma_origin   [ 0.0,  0.0,  0.0 ]
}
molecule test {
    units Angstrom
    0 1
    --
    0 1
    C               -1.044886295787909    -0.379129381625874     1.834457885823338
    C               -0.648886295787909     0.716870618374126     0.864457885823338
    O                0.223113704212091     1.540870618374127     1.137457885823338
    N               -1.309886295787909     0.745870618374126    -0.282542114176662
    H               -1.187886295787909    -1.313129381625874     1.288457885823338
    H               -2.009886295787909    -0.094129381625874     2.256457885823338
    H               -1.117886295787909     1.499870618374127    -0.923542114176662
    H               -2.057886295787909     0.090870618374126    -0.452542114176662
    H               -0.309346295787909    -0.534279381625874     2.637518885823338
    C                1.569113704212091    -0.557129381625873    -1.804542114176662
    C                1.214113704212091    -2.027129381625873    -1.624542114176662
    H                0.684113704212091     0.032870618374126    -2.027542114176662
    H                1.980113704212091    -0.154129381625874    -0.888542114176662
    H                2.297113704212091    -0.442129381625874    -2.605542114176662
    H                2.085113704212091    -2.632129381625873    -1.871542114176662
    H                0.371413704212091    -2.308749381625873    -2.273042114176662
    H                0.952113704212091    -2.214159381625873    -0.572692114176662

}
e, wfn = energy('scf', return_wfn=True)
gdma(wfn)
dmavals = variable('DMA DISTRIBUTED MULTIPOLES')
charges = np.array(dmavals)
print(charges)
np.save('SSI-121ASN-132THR-1-dimer.npy', np.array(charges))--------------------------------------------------------------------------

*** tstart() called on ds3
*** at Mon Apr 27 22:54:50 2020

   => Loading Basis Set <=

    Name: CC-PVDZ
    Role: ORBITAL
    Keyword: BASIS
    atoms 1-2, 10-11 entry C          line   138 file /theoryfs2/ds/metcalf/miniconda2/envs/tf2gpu/share/psi4/basis/cc-pvdz.gbs
    atoms 3          entry O          line   198 file /theoryfs2/ds/metcalf/miniconda2/envs/tf2gpu/share/psi4/basis/cc-pvdz.gbs
    atoms 4          entry N          line   168 file /theoryfs2/ds/metcalf/miniconda2/envs/tf2gpu/share/psi4/basis/cc-pvdz.gbs
    atoms 5-9, 12-17 entry H          line    22 file /theoryfs2/ds/metcalf/miniconda2/envs/tf2gpu/share/psi4/basis/cc-pvdz.gbs

         ---------------------------------------------------------
                                   SCF
               by Justin Turney, Rob Parrish, Andy Simmonett
                          and Daniel G. A. Smith
                              RHF Reference
                        1 Threads,    500 MiB Core
         ---------------------------------------------------------

  ==> Geometry <==

    Molecular point group: c1
    Full point group: C1

    Geometry (in Angstrom), charge = 0, multiplicity = 1:

       Center              X                  Y                   Z               Mass
    ------------   -----------------  -----------------  -----------------  -----------------
         C           -1.044886295788    -0.379129381626     1.834457885823    12.000000000000
         C           -0.648886295788     0.716870618374     0.864457885823    12.000000000000
         O            0.223113704212     1.540870618374     1.137457885823    15.994914619570
         N           -1.309886295788     0.745870618374    -0.282542114177    14.003074004430
         H           -1.187886295788    -1.313129381626     1.288457885823     1.007825032230
         H           -2.009886295788    -0.094129381626     2.256457885823     1.007825032230
         H           -1.117886295788     1.499870618374    -0.923542114177     1.007825032230
         H           -2.057886295788     0.090870618374    -0.452542114177     1.007825032230
         H           -0.309346295788    -0.534279381626     2.637518885823     1.007825032230
         C            1.569113704212    -0.557129381626    -1.804542114177    12.000000000000
         C            1.214113704212    -2.027129381626    -1.624542114177    12.000000000000
         H            0.684113704212     0.032870618374    -2.027542114177     1.007825032230
         H            1.980113704212    -0.154129381626    -0.888542114177     1.007825032230
         H            2.297113704212    -0.442129381626    -2.605542114177     1.007825032230
         H            2.085113704212    -2.632129381626    -1.871542114177     1.007825032230
         H            0.371413704212    -2.308749381626    -2.273042114177     1.007825032230
         H            0.952113704212    -2.214159381626    -0.572692114177     1.007825032230

  Running in c1 symmetry.

  Rotational constants: A =      0.14673  B =      0.04784  C =      0.04459 [cm^-1]
  Rotational constants: A =   4398.78166  B =   1434.13099  C =   1336.82791 [MHz]
  Nuclear repulsion =  238.961762696213327

  Charge       = 0
  Multiplicity = 1
  Electrons    = 50
  Nalpha       = 25
  Nbeta        = 25

  ==> Algorithm <==

  SCF Algorithm Type is PK.
  DIIS enabled.
  MOM disabled.
  Fractional occupation disabled.
  Guess Type is SAD.
  Energy threshold   = 1.00e-06
  Density threshold  = 1.00e-10
  Integral threshold = 0.00e+00

  ==> Primary Basis <==

  Basis Set: CC-PVDZ
    Blend: CC-PVDZ
    Number of shells: 69
    Number of basis function: 139
    Number of Cartesian functions: 145
    Spherical Harmonics?: true
    Max angular momentum: 2

  ==> Pre-Iterations <==

   -------------------------------------------------------
    Irrep   Nso     Nmo     Nalpha   Nbeta   Ndocc  Nsocc
   -------------------------------------------------------
     A        139     139       0       0       0       0
   -------------------------------------------------------
    Total     139     139      25      25      25       0
   -------------------------------------------------------

  ==> Integral Setup <==

  Using integral reordering PK algorithm.
  Sizing the integral batches needed.
  Building batch lookup table.
   Calculation information:
      Number of atoms:                  17
      Number of AO shells:              69
      Number of primitives:            187
      Number of atomic orbitals:       145
      Number of basis functions:       139

      Integral cutoff                 1.00e-12
      Number of threads:                 1

	Batch   1 pq = [       0,    9730] index = [             0,47341315] size =     47341315
  Task number: 5
  Buffer size: 11059200
  Buffer per thread: 2
  We computed 2738511 shell quartets total.
  Whereas there are 2917320 unique shell quartets.

  ==> DiskJK: Disk-Based J/K Matrices <==

    J tasked:                  Yes
    K tasked:                  Yes
    wK tasked:                  No
    Memory [MiB]:              375
    Schwarz Cutoff:          1E-12

    OpenMP threads:              1

  Minimum eigenvalue in the overlap matrix is 4.5861097977E-03.
  Using Symmetric Orthogonalization.

  SCF Guess: Superposition of Atomic Densities via on-the-fly atomic UHF.

  ==> Iterations <==

                        Total Energy        Delta E     RMS |[F,P]|

   @RHF iter SAD:  -285.95555290966161   -2.85956e+02   0.00000e+00
   @RHF iter   1:  -286.99281764134548   -1.03726e+00   4.64682e-03 DIIS
   @RHF iter   2:  -287.16913681314293   -1.76319e-01   2.60564e-03 DIIS
   @RHF iter   3:  -287.21947402456470   -5.03372e-02   5.41039e-04 DIIS
   @RHF iter   4:  -287.22283332619298   -3.35930e-03   2.21573e-04 DIIS
   @RHF iter   5:  -287.22344342728371   -6.10101e-04   3.44306e-05 DIIS
   @RHF iter   6:  -287.22347437156537   -3.09443e-05   1.53648e-05 DIIS
   @RHF iter   7:  -287.22347921799866   -4.84643e-06   6.23788e-06 DIIS
   @RHF iter   8:  -287.22348028907720   -1.07108e-06   2.16179e-06 DIIS
   @RHF iter   9:  -287.22348042442724   -1.35350e-07   5.43919e-07 DIIS
   @RHF iter  10:  -287.22348043066359   -6.23635e-09   1.70816e-07 DIIS
   @RHF iter  11:  -287.22348043135150   -6.87919e-10   3.78877e-08 DIIS
   @RHF iter  12:  -287.22348043138527   -3.37650e-11   8.71871e-09 DIIS
   @RHF iter  13:  -287.22348043138817   -2.89901e-12   2.19551e-09 DIIS
   @RHF iter  14:  -287.22348043138891   -7.38964e-13   1.01995e-09 DIIS
   @RHF iter  15:  -287.22348043138982   -9.09495e-13   4.95546e-10 DIIS
   @RHF iter  16:  -287.22348043138788    1.93268e-12   1.58447e-10 DIIS
   @RHF iter  17:  -287.22348043138896   -1.08002e-12   4.80195e-11 DIIS
  Energy and wave function converged.

  ==> Post-Iterations <==

    Orbital Energies [Eh]
    ---------------------

    Doubly Occupied:

       1A    -20.504655     2A    -15.589976     3A    -11.348233
       4A    -11.244086     5A    -11.218480     6A    -11.208190
       7A     -1.367568     8A     -1.219559     9A     -1.017386
      10A     -1.001640    11A     -0.834854    12A     -0.800353
      13A     -0.730853    14A     -0.654191    15A     -0.617633
      16A     -0.596876    17A     -0.595164    18A     -0.570492
      19A     -0.560089    20A     -0.523327    21A     -0.499247
      22A     -0.482082    23A     -0.480397    24A     -0.410218
      25A     -0.404014

    Virtual:

      26A      0.151711    27A      0.193407    28A      0.199258
      29A      0.210748    30A      0.223866    31A      0.243722
      32A      0.253834    33A      0.259516    34A      0.266344
      35A      0.289697    36A      0.328308    37A      0.338412
      38A      0.379659    39A      0.404897    40A      0.464156
      41A      0.526746    42A      0.593694    43A      0.605844
      44A      0.615200    45A      0.629785    46A      0.653350
      47A      0.684440    48A      0.704685    49A      0.710636
      50A      0.737963    51A      0.749524    52A      0.827950
      53A      0.845802    54A      0.853183    55A      0.855717
      56A      0.879509    57A      0.891998    58A      0.901418
      59A      0.914863    60A      0.919093    61A      0.924971
      62A      0.953144    63A      0.967625    64A      0.978889
      65A      1.015929    66A      1.065266    67A      1.078636
      68A      1.103804    69A      1.112386    70A      1.132966
      71A      1.161066    72A      1.226542    73A      1.340449
      74A      1.353739    75A      1.380418    76A      1.383971
      77A      1.418604    78A      1.462977    79A      1.491499
      80A      1.494571    81A      1.508401    82A      1.594474
      83A      1.657719    84A      1.660544    85A      1.683450
      86A      1.702912    87A      1.751703    88A      1.800154
      89A      1.839044    90A      1.868644    91A      1.872648
      92A      1.880782    93A      1.898744    94A      1.899282
      95A      1.926387    96A      1.931157    97A      1.939013
      98A      1.952052    99A      1.965099   100A      1.973955
     101A      1.981139   102A      1.995814   103A      2.043390
     104A      2.103169   105A      2.157395   106A      2.187044
     107A      2.197188   108A      2.233734   109A      2.261710
     110A      2.294372   111A      2.329146   112A      2.407254
     113A      2.419857   114A      2.440729   115A      2.453879
     116A      2.501262   117A      2.525982   118A      2.593367
     119A      2.610878   120A      2.619422   121A      2.632045
     122A      2.706955   123A      2.745296   124A      2.770455
     125A      2.792380   126A      2.809151   127A      2.841469
     128A      2.843514   129A      2.877032   130A      2.955319
     131A      2.969237   132A      2.991274   133A      3.091485
     134A      3.136323   135A      3.290818   136A      3.512163
     137A      3.528666   138A      3.862480   139A      3.902868

    Final Occupation by Irrep:
              A
    DOCC [    25 ]

  @RHF Final Energy:  -287.22348043138896

   => Energetics <=

    Nuclear Repulsion Energy =            238.9617626962133272
    One-Electron Energy =                -863.4113582222790910
    Two-Electron Energy =                 337.2261150946767998
    Total Energy =                       -287.2234804313889640

Computation Completed

Properties will be evaluated at   0.000000,   0.000000,   0.000000 [a0]

Properties computed using the SCF density matrix

  Nuclear Dipole Moment: [e a0]
     X:     1.5865      Y:    -7.5594      Z:    -5.0866

  Electronic Dipole Moment: [e a0]
     X:    -2.8727      Y:     6.6960      Z:     4.5315

  Dipole Moment: [e a0]
     X:    -1.2862      Y:    -0.8635      Z:    -0.5551     Total:     1.6456

  Dipole Moment: [D]
     X:    -3.2692      Y:    -2.1947      Z:    -1.4110     Total:     4.1827

*** tstop() called on ds3 at Mon Apr 27 22:55:15 2020
Module time:
	user time   =      19.62 seconds =       0.33 minutes
	system time =       7.34 seconds =       0.12 minutes
	total time  =         25 seconds =       0.42 minutes
Total time:
	user time   =      19.62 seconds =       0.33 minutes
	system time =       7.34 seconds =       0.12 minutes
	total time  =         25 seconds =       0.42 minutes
                                     G D M A

                                 by Anthony Stone

                           version 2.2.06, 22 June 2011

               Distributed Multipoles from Gaussian wavefunctions

Starting at 22:55:16 on 27 Apr 2020

Using SCF density matrix from file ./SSI/SSI-121ASN-132THR-1-dimer.test.32374.fchk

                         Distributed Multipole Analysis

Standard DMA

Positions and radii in angstrom
Multipole moments in atomic units, ea_0^k for rank k

C          x = -1.044886  y = -0.379129  z =  1.834458 angstrom
           Maximum rank =  0   Radius =  0.650 angstrom
                   Q00  =  -0.263114

C          x = -0.648886  y =  0.716871  z =  0.864458 angstrom
           Maximum rank =  0   Radius =  0.650 angstrom
                   Q00  =   0.815424

O          x =  0.223114  y =  1.540871  z =  1.137458 angstrom
           Maximum rank =  0   Radius =  0.650 angstrom
                   Q00  =  -0.790702

N          x = -1.309886  y =  0.745871  z = -0.282542 angstrom
           Maximum rank =  0   Radius =  0.650 angstrom
                   Q00  =  -0.527098

H          x = -1.187886  y = -1.313129  z =  1.288458 angstrom
           Maximum rank =  0   Radius =  0.325 angstrom
                   Q00  =   0.090324

H          x = -2.009886  y = -0.094129  z =  2.256458 angstrom
           Maximum rank =  0   Radius =  0.325 angstrom
                   Q00  =   0.117722

H          x = -1.117886  y =  1.499871  z = -0.923542 angstrom
           Maximum rank =  0   Radius =  0.325 angstrom
                   Q00  =   0.224381

H          x = -2.057886  y =  0.090871  z = -0.452542 angstrom
           Maximum rank =  0   Radius =  0.325 angstrom
                   Q00  =   0.204597

H          x = -0.309346  y = -0.534279  z =  2.637519 angstrom
           Maximum rank =  0   Radius =  0.325 angstrom
                   Q00  =   0.132471

C          x =  1.569114  y = -0.557129  z = -1.804542 angstrom
           Maximum rank =  0   Radius =  0.650 angstrom
                   Q00  =  -0.234097

C          x =  1.214114  y = -2.027129  z = -1.624542 angstrom
           Maximum rank =  0   Radius =  0.650 angstrom
                   Q00  =  -0.245799

H          x =  0.684114  y =  0.032871  z = -2.027542 angstrom
           Maximum rank =  0   Radius =  0.325 angstrom
                   Q00  =   0.067298

H          x =  1.980114  y = -0.154129  z = -0.888542 angstrom
           Maximum rank =  0   Radius =  0.325 angstrom
                   Q00  =   0.095666

H          x =  2.297114  y = -0.442129  z = -2.605542 angstrom
           Maximum rank =  0   Radius =  0.325 angstrom
                   Q00  =   0.079544

H          x =  2.085114  y = -2.632129  z = -1.871542 angstrom
           Maximum rank =  0   Radius =  0.325 angstrom
                   Q00  =   0.086295

H          x =  0.371414  y = -2.308749  z = -2.273042 angstrom
           Maximum rank =  0   Radius =  0.325 angstrom
                   Q00  =   0.070626

H          x =  0.952114  y = -2.214159  z = -0.572692 angstrom
           Maximum rank =  0   Radius =  0.325 angstrom
                   Q00  =   0.076461

Total multipoles referred to origin at
           x =   0.000000,  y =    0.000000,  z =    0.000000 angstrom
                   Q00  =  -0.000000

Finished at 22:55:16 on 27 Apr 2020

  DMA results are available in the Python driver through the
	  variable('DMA DISTRIBUTED MULTIPOLES')
  and
	  variable('DMA TOTAL MULTIPOLES')
  commands.

    Psi4 stopped on: Monday, 27 April 2020 10:55PM
    Psi4 wall time for execution: 0:00:26.09

*** Psi4 exiting successfully. Buy a developer a beer!
