                               Psi4 1.3.2 release

  ==> Input File <==

--------------------------------------------------------------------------
import numpy as np
set {scf_type pk
basis cc-pvdz
d_convergence 10
gdma_switch   0
gdma_limit    0
gdma_origin   [ 0.0,  0.0,  0.0 ]
}
molecule test {
    units Angstrom
    0 1
    --
    0 1
    C               -2.267465809218761    -1.903827595504237    -0.106723637007314
    C               -3.007465809218761    -0.957827595504237     0.841276362992686
    C               -2.137465809218761    -1.388827595504237    -1.524723637007314
    H               -1.263465809218761    -2.072827595504237     0.283276362992686
    H               -2.783465809218761    -2.865827595504237    -0.118723637007314
    H               -2.560465809218761     0.036172404495763     0.770276362992686
    H               -3.166465809218761    -1.310827595504237    -1.851723637007314
    H               -1.647465809218761    -0.413827595504237    -1.541723637007314
    H               -2.925715809218761    -1.340837595504237     1.869196762992686
    H               -4.077785809218761    -0.904457595504237     0.593168362992686
    H               -1.627665809218761    -2.112977595504237    -2.177184637007314
    C                0.155534190781239     3.266172404495762     0.899276362992686
    C                0.894534190781239    -0.466827595504237     1.027276362992686
    C                1.409534190781239    -0.690827595504237    -0.250723637007314
    C                0.481534190781239     0.820172404495763     1.392276362992686
    C                0.578534190781239     1.880172404495763     0.489276362992686
    C                1.510534190781239     0.361172404495763    -1.160723637007314
    C                1.092534190781239     1.643172404495763    -0.786723637007314
    O                1.823534190781239    -1.939827595504237    -0.610723637007314
    H                0.821534190781239    -1.285827595504237     1.729276362992686
    H                0.084534190781239     0.989172404495763     2.384276362992686
    H                1.944534190781239     0.198172404495763    -2.138723637007314
    H                2.227534190781239    -1.968827595504237    -1.484723637007314
    H                0.830534190781239     3.993172404495763     0.447276362992686
    H                0.277534190781239     3.328172404495763     1.977276362992686
    H                1.168534190781239     2.463172404495762    -1.491723637007314
    H               -0.887315809218761     3.540759404495762     0.682345362992686

}
e, wfn = energy('scf', return_wfn=True)
gdma(wfn)
dmavals = variable('DMA DISTRIBUTED MULTIPOLES')
charges = np.array(dmavals)
print(charges)
np.save('SSI-062GLN-173TYR-1-dimer.npy', np.array(charges))--------------------------------------------------------------------------

*** tstart() called on ds3
*** at Mon Apr 27 17:48:55 2020

   => Loading Basis Set <=

    Name: CC-PVDZ
    Role: ORBITAL
    Keyword: BASIS
    atoms 1-3, 12-18  entry C          line   138 file /theoryfs2/ds/metcalf/miniconda2/envs/tf2gpu/share/psi4/basis/cc-pvdz.gbs
    atoms 4-11, 20-27 entry H          line    22 file /theoryfs2/ds/metcalf/miniconda2/envs/tf2gpu/share/psi4/basis/cc-pvdz.gbs
    atoms 19          entry O          line   198 file /theoryfs2/ds/metcalf/miniconda2/envs/tf2gpu/share/psi4/basis/cc-pvdz.gbs

         ---------------------------------------------------------
                                   SCF
               by Justin Turney, Rob Parrish, Andy Simmonett
                          and Daniel G. A. Smith
                              RHF Reference
                        1 Threads,    500 MiB Core
         ---------------------------------------------------------

  ==> Geometry <==

    Molecular point group: c1
    Full point group: C1

    Geometry (in Angstrom), charge = 0, multiplicity = 1:

       Center              X                  Y                   Z               Mass
    ------------   -----------------  -----------------  -----------------  -----------------
         C           -2.267465809219    -1.903827595504    -0.106723637007    12.000000000000
         C           -3.007465809219    -0.957827595504     0.841276362993    12.000000000000
         C           -2.137465809219    -1.388827595504    -1.524723637007    12.000000000000
         H           -1.263465809219    -2.072827595504     0.283276362993     1.007825032230
         H           -2.783465809219    -2.865827595504    -0.118723637007     1.007825032230
         H           -2.560465809219     0.036172404496     0.770276362993     1.007825032230
         H           -3.166465809219    -1.310827595504    -1.851723637007     1.007825032230
         H           -1.647465809219    -0.413827595504    -1.541723637007     1.007825032230
         H           -2.925715809219    -1.340837595504     1.869196762993     1.007825032230
         H           -4.077785809219    -0.904457595504     0.593168362993     1.007825032230
         H           -1.627665809219    -2.112977595504    -2.177184637007     1.007825032230
         C            0.155534190781     3.266172404496     0.899276362993    12.000000000000
         C            0.894534190781    -0.466827595504     1.027276362993    12.000000000000
         C            1.409534190781    -0.690827595504    -0.250723637007    12.000000000000
         C            0.481534190781     0.820172404496     1.392276362993    12.000000000000
         C            0.578534190781     1.880172404496     0.489276362993    12.000000000000
         C            1.510534190781     0.361172404496    -1.160723637007    12.000000000000
         C            1.092534190781     1.643172404496    -0.786723637007    12.000000000000
         O            1.823534190781    -1.939827595504    -0.610723637007    15.994914619570
         H            0.821534190781    -1.285827595504     1.729276362993     1.007825032230
         H            0.084534190781     0.989172404496     2.384276362993     1.007825032230
         H            1.944534190781     0.198172404496    -2.138723637007     1.007825032230
         H            2.227534190781    -1.968827595504    -1.484723637007     1.007825032230
         H            0.830534190781     3.993172404496     0.447276362993     1.007825032230
         H            0.277534190781     3.328172404496     1.977276362993     1.007825032230
         H            1.168534190781     2.463172404496    -1.491723637007     1.007825032230
         H           -0.887315809219     3.540759404496     0.682345362993     1.007825032230

  Running in c1 symmetry.

  Rotational constants: A =      0.03725  B =      0.02481  C =      0.01874 [cm^-1]
  Rotational constants: A =   1116.63984  B =    743.79682  C =    561.93743 [MHz]
  Nuclear repulsion =  600.156529633833998

  Charge       = 0
  Multiplicity = 1
  Electrons    = 84
  Nalpha       = 42
  Nbeta        = 42

  ==> Algorithm <==

  SCF Algorithm Type is PK.
  DIIS enabled.
  MOM disabled.
  Fractional occupation disabled.
  Guess Type is SAD.
  Energy threshold   = 1.00e-06
  Density threshold  = 1.00e-10
  Integral threshold = 0.00e+00

  ==> Primary Basis <==

  Basis Set: CC-PVDZ
    Blend: CC-PVDZ
    Number of shells: 114
    Number of basis function: 234
    Number of Cartesian functions: 245
    Spherical Harmonics?: true
    Max angular momentum: 2

  ==> Pre-Iterations <==

   -------------------------------------------------------
    Irrep   Nso     Nmo     Nalpha   Nbeta   Ndocc  Nsocc
   -------------------------------------------------------
     A        234     234       0       0       0       0
   -------------------------------------------------------
    Total     234     234      42      42      42       0
   -------------------------------------------------------

  ==> Integral Setup <==

  Using integral reordering PK algorithm.
  Sizing the integral batches needed.
  Building batch lookup table.
   Calculation information:
      Number of atoms:                  27
      Number of AO shells:             114
      Number of primitives:            322
      Number of atomic orbitals:       245
      Number of basis functions:       234

      Integral cutoff                 1.00e-12
      Number of threads:                 1

	Batch   1 pq = [       0,    9405] index = [             0,44231715] size =     44231715
	Batch   2 pq = [    9405,   13301] index = [      44231715,88464951] size =     44233236
	Batch   3 pq = [   13301,   16290] index = [      88464951,132690195] size =     44225244
	Batch   4 pq = [   16290,   18810] index = [     132690195,176917455] size =     44227260
	Batch   5 pq = [   18810,   21030] index = [     176917455,221140965] size =     44223510
	Batch   6 pq = [   21030,   23037] index = [     221140965,265363203] size =     44222238
	Batch   7 pq = [   23037,   24883] index = [     265363203,309594286] size =     44231083
	Batch   8 pq = [   24883,   26601] index = [     309594286,353819901] size =     44225615
	Batch   9 pq = [   26601,   27495] index = [     353819901,378001260] size =     24181359
  Task number: 35
  Buffer size: 11059200
  Buffer per thread: 2
  We computed 22622060 shell quartets total.
  Whereas there are 21487290 unique shell quartets.
     5.28 percent of shell quartets recomputed by reordering.

  ==> DiskJK: Disk-Based J/K Matrices <==

    J tasked:                  Yes
    K tasked:                  Yes
    wK tasked:                  No
    Memory [MiB]:              375
    Schwarz Cutoff:          1E-12

    OpenMP threads:              1

  Minimum eigenvalue in the overlap matrix is 3.2960387911E-04.
  Using Symmetric Orthogonalization.

  SCF Guess: Superposition of Atomic Densities via on-the-fly atomic UHF.

  ==> Iterations <==

                        Total Energy        Delta E     RMS |[F,P]|

   @RHF iter SAD:  -461.68038630668582   -4.61680e+02   0.00000e+00
   @RHF iter   1:  -462.60175979857007   -9.21373e-01   2.83231e-03 DIIS
   @RHF iter   2:  -462.84479745383578   -2.43038e-01   1.22252e-03 DIIS
   @RHF iter   3:  -462.88602336174148   -4.12259e-02   2.71170e-04 DIIS
   @RHF iter   4:  -462.88934500021020   -3.32164e-03   1.04195e-04 DIIS
   @RHF iter   5:  -462.88969435535216   -3.49355e-04   2.12302e-05 DIIS
   @RHF iter   6:  -462.88971493419456   -2.05788e-05   6.67225e-06 DIIS
   @RHF iter   7:  -462.88971710294879   -2.16875e-06   1.88098e-06 DIIS
   @RHF iter   8:  -462.88971735093315   -2.47984e-07   7.25657e-07 DIIS
   @RHF iter   9:  -462.88971739025823   -3.93251e-08   3.02066e-07 DIIS
   @RHF iter  10:  -462.88971739760609   -7.34786e-09   1.20854e-07 DIIS
   @RHF iter  11:  -462.88971739984288   -2.23679e-09   5.54744e-08 DIIS
   @RHF iter  12:  -462.88971740034384   -5.00961e-10   2.67903e-08 DIIS
   @RHF iter  13:  -462.88971740043155   -8.77094e-11   8.73154e-09 DIIS
   @RHF iter  14:  -462.88971740043905   -7.50333e-12   2.17603e-09 DIIS
   @RHF iter  15:  -462.88971740043735    1.70530e-12   8.02976e-10 DIIS
   @RHF iter  16:  -462.88971740043928   -1.93268e-12   3.09921e-10 DIIS
   @RHF iter  17:  -462.88971740044030   -1.02318e-12   1.49873e-10 DIIS
   @RHF iter  18:  -462.88971740044076   -4.54747e-13   7.67049e-11 DIIS
  Energy and wave function converged.

  ==> Post-Iterations <==

    Orbital Energies [Eh]
    ---------------------

    Doubly Occupied:

       1A    -20.584095     2A    -11.302259     3A    -11.241654
       4A    -11.240964     5A    -11.236207     6A    -11.235225
       7A    -11.233580     8A    -11.227968     9A    -11.209320
      10A    -11.206142    11A    -11.204049    12A     -1.399610
      13A     -1.150281    14A     -1.045884    15A     -1.038252
      16A     -1.017521    17A     -0.927079    18A     -0.915974
      19A     -0.845700    20A     -0.803292    21A     -0.783143
      22A     -0.733249    23A     -0.668286    24A     -0.643320
      25A     -0.620799    26A     -0.608490    27A     -0.589237
      28A     -0.587200    29A     -0.583822    30A     -0.572972
      31A     -0.564081    32A     -0.538007    33A     -0.526737
      34A     -0.524553    35A     -0.498707    36A     -0.486859
      37A     -0.469245    38A     -0.466642    39A     -0.457951
      40A     -0.448553    41A     -0.338438    42A     -0.302989

    Virtual:

      43A      0.125844    44A      0.152516    45A      0.172484
      46A      0.178982    47A      0.198517    48A      0.209781
      49A      0.219858    50A      0.241534    51A      0.244841
      52A      0.247358    53A      0.264839    54A      0.267415
      55A      0.279689    56A      0.288174    57A      0.290303
      58A      0.301323    59A      0.320862    60A      0.334237
      61A      0.370703    62A      0.371409    63A      0.382166
      64A      0.434069    65A      0.439338    66A      0.454111
      67A      0.478768    68A      0.495582    69A      0.505241
      70A      0.573047    71A      0.593950    72A      0.601901
      73A      0.610894    74A      0.620898    75A      0.636150
      76A      0.638577    77A      0.657940    78A      0.671341
      79A      0.681408    80A      0.703049    81A      0.731760
      82A      0.736213    83A      0.752850    84A      0.760844
      85A      0.766572    86A      0.774149    87A      0.787869
      88A      0.803800    89A      0.817501    90A      0.830760
      91A      0.838750    92A      0.847977    93A      0.866192
      94A      0.873940    95A      0.875474    96A      0.878238
      97A      0.889961    98A      0.890557    99A      0.900772
     100A      0.913638   101A      0.923812   102A      0.928104
     103A      0.932553   104A      0.934312   105A      0.940162
     106A      0.940700   107A      0.958286   108A      0.968804
     109A      0.997382   110A      1.008445   111A      1.010413
     112A      1.024978   113A      1.038956   114A      1.069507
     115A      1.116405   116A      1.130559   117A      1.139404
     118A      1.143301   119A      1.168674   120A      1.183170
     121A      1.191397   122A      1.239768   123A      1.247341
     124A      1.260852   125A      1.269251   126A      1.294352
     127A      1.300295   128A      1.304404   129A      1.313705
     130A      1.349814   131A      1.358026   132A      1.385720
     133A      1.388916   134A      1.471143   135A      1.478908
     136A      1.490929   137A      1.518233   138A      1.528638
     139A      1.550464   140A      1.561007   141A      1.609206
     142A      1.622958   143A      1.652238   144A      1.680198
     145A      1.687713   146A      1.699899   147A      1.704218
     148A      1.704981   149A      1.741035   150A      1.750038
     151A      1.781543   152A      1.801409   153A      1.809818
     154A      1.859506   155A      1.867693   156A      1.876526
     157A      1.885879   158A      1.897250   159A      1.901608
     160A      1.910694   161A      1.914490   162A      1.917787
     163A      1.923036   164A      1.938343   165A      1.953702
     166A      1.963529   167A      1.966892   168A      1.972381
     169A      1.988438   170A      1.993022   171A      1.995400
     172A      2.004586   173A      2.019197   174A      2.034705
     175A      2.043867   176A      2.049347   177A      2.052640
     178A      2.064472   179A      2.066106   180A      2.071798
     181A      2.140606   182A      2.141700   183A      2.149040
     184A      2.171664   185A      2.192178   186A      2.203269
     187A      2.235296   188A      2.254465   189A      2.268450
     190A      2.288283   191A      2.298906   192A      2.305007
     193A      2.319746   194A      2.324242   195A      2.359088
     196A      2.397956   197A      2.423000   198A      2.451665
     199A      2.470891   200A      2.488766   201A      2.510780
     202A      2.543713   203A      2.547201   204A      2.566524
     205A      2.591178   206A      2.594157   207A      2.617661
     208A      2.640703   209A      2.664821   210A      2.744774
     211A      2.767502   212A      2.776312   213A      2.781058
     214A      2.789685   215A      2.796850   216A      2.822328
     217A      2.832964   218A      2.853978   219A      2.901373
     220A      2.934953   221A      2.957286   222A      2.975312
     223A      2.992546   224A      3.008977   225A      3.073343
     226A      3.079378   227A      3.107537   228A      3.243442
     229A      3.270346   230A      3.349329   231A      3.571710
     232A      3.662309   233A      3.972089   234A      4.188180

    Final Occupation by Irrep:
              A
    DOCC [    42 ]

  @RHF Final Energy:  -462.88971740044076

   => Energetics <=

    Nuclear Repulsion Energy =            600.1565296338339977
    One-Electron Energy =               -1817.9358218086376837
    Two-Electron Energy =                 754.8895747743629272
    Total Energy =                       -462.8897174004407589

Computation Completed

Properties will be evaluated at   0.000000,   0.000000,   0.000000 [a0]

Properties computed using the SCF density matrix

  Nuclear Dipole Moment: [e a0]
     X:   -12.7268      Y:     0.2462      Z:    -0.0668

  Electronic Dipole Moment: [e a0]
     X:    12.9847      Y:     0.1188      Z:    -0.3198

  Dipole Moment: [e a0]
     X:     0.2578      Y:     0.3650      Z:    -0.3866     Total:     0.5909

  Dipole Moment: [D]
     X:     0.6553      Y:     0.9277      Z:    -0.9827     Total:     1.5019

*** tstop() called on ds3 at Mon Apr 27 17:53:01 2020
Module time:
	user time   =     173.31 seconds =       2.89 minutes
	system time =      57.20 seconds =       0.95 minutes
	total time  =        246 seconds =       4.10 minutes
Total time:
	user time   =     173.31 seconds =       2.89 minutes
	system time =      57.20 seconds =       0.95 minutes
	total time  =        246 seconds =       4.10 minutes
                                     G D M A

                                 by Anthony Stone

                           version 2.2.06, 22 June 2011

               Distributed Multipoles from Gaussian wavefunctions

Starting at 17:53:1 on 27 Apr 2020

Using SCF density matrix from file ./SSI/SSI-062GLN-173TYR-1-dimer.test.11925.fchk

                         Distributed Multipole Analysis

Standard DMA

Positions and radii in angstrom
Multipole moments in atomic units, ea_0^k for rank k

C          x = -2.267466  y = -1.903828  z = -0.106724 angstrom
           Maximum rank =  0   Radius =  0.650 angstrom
                   Q00  =  -0.080592

C          x = -3.007466  y = -0.957828  z =  0.841276 angstrom
           Maximum rank =  0   Radius =  0.650 angstrom
                   Q00  =  -0.246425

C          x = -2.137466  y = -1.388828  z = -1.524724 angstrom
           Maximum rank =  0   Radius =  0.650 angstrom
                   Q00  =  -0.227345

H          x = -1.263466  y = -2.072828  z =  0.283276 angstrom
           Maximum rank =  0   Radius =  0.325 angstrom
                   Q00  =   0.048091

H          x = -2.783466  y = -2.865828  z = -0.118724 angstrom
           Maximum rank =  0   Radius =  0.325 angstrom
                   Q00  =   0.037403

H          x = -2.560466  y =  0.036172  z =  0.770276 angstrom
           Maximum rank =  0   Radius =  0.325 angstrom
                   Q00  =   0.082702

H          x = -3.166466  y = -1.310828  z = -1.851724 angstrom
           Maximum rank =  0   Radius =  0.325 angstrom
                   Q00  =   0.061469

H          x = -1.647466  y = -0.413828  z = -1.541724 angstrom
           Maximum rank =  0   Radius =  0.325 angstrom
                   Q00  =   0.087838

H          x = -2.925716  y = -1.340838  z =  1.869197 angstrom
           Maximum rank =  0   Radius =  0.325 angstrom
                   Q00  =   0.078740

H          x = -4.077786  y = -0.904458  z =  0.593168 angstrom
           Maximum rank =  0   Radius =  0.325 angstrom
                   Q00  =   0.071627

H          x = -1.627666  y = -2.112978  z = -2.177185 angstrom
           Maximum rank =  0   Radius =  0.325 angstrom
                   Q00  =   0.079686

C          x =  0.155534  y =  3.266172  z =  0.899276 angstrom
           Maximum rank =  0   Radius =  0.650 angstrom
                   Q00  =  -0.191963

C          x =  0.894534  y = -0.466828  z =  1.027276 angstrom
           Maximum rank =  0   Radius =  0.650 angstrom
                   Q00  =  -0.115328

C          x =  1.409534  y = -0.690828  z = -0.250724 angstrom
           Maximum rank =  0   Radius =  0.650 angstrom
                   Q00  =   0.315241

C          x =  0.481534  y =  0.820172  z =  1.392276 angstrom
           Maximum rank =  0   Radius =  0.650 angstrom
                   Q00  =  -0.021140

C          x =  0.578534  y =  1.880172  z =  0.489276 angstrom
           Maximum rank =  0   Radius =  0.650 angstrom
                   Q00  =  -0.134349

C          x =  1.510534  y =  0.361172  z = -1.160724 angstrom
           Maximum rank =  0   Radius =  0.650 angstrom
                   Q00  =  -0.177036

C          x =  1.092534  y =  1.643172  z = -0.786724 angstrom
           Maximum rank =  0   Radius =  0.650 angstrom
                   Q00  =   0.015529

O          x =  1.823534  y = -1.939828  z = -0.610724 angstrom
           Maximum rank =  0   Radius =  0.650 angstrom
                   Q00  =  -0.679164

H          x =  0.821534  y = -1.285828  z =  1.729276 angstrom
           Maximum rank =  0   Radius =  0.325 angstrom
                   Q00  =   0.084860

H          x =  0.084534  y =  0.989172  z =  2.384276 angstrom
           Maximum rank =  0   Radius =  0.325 angstrom
                   Q00  =   0.066821

H          x =  1.944534  y =  0.198172  z = -2.138724 angstrom
           Maximum rank =  0   Radius =  0.325 angstrom
                   Q00  =   0.073453

H          x =  2.227534  y = -1.968828  z = -1.484724 angstrom
           Maximum rank =  0   Radius =  0.325 angstrom
                   Q00  =   0.409430

H          x =  0.830534  y =  3.993172  z =  0.447276 angstrom
           Maximum rank =  0   Radius =  0.325 angstrom
                   Q00  =   0.096352

H          x =  0.277534  y =  3.328172  z =  1.977276 angstrom
           Maximum rank =  0   Radius =  0.325 angstrom
                   Q00  =   0.093525

H          x =  1.168534  y =  2.463172  z = -1.491724 angstrom
           Maximum rank =  0   Radius =  0.325 angstrom
                   Q00  =   0.070097

H          x = -0.887316  y =  3.540759  z =  0.682345 angstrom
           Maximum rank =  0   Radius =  0.325 angstrom
                   Q00  =   0.100478

Total multipoles referred to origin at
           x =   0.000000,  y =    0.000000,  z =    0.000000 angstrom
                   Q00  =  -0.000000

Finished at 17:53:1 on 27 Apr 2020

  DMA results are available in the Python driver through the
	  variable('DMA DISTRIBUTED MULTIPOLES')
  and
	  variable('DMA TOTAL MULTIPOLES')
  commands.

    Psi4 stopped on: Monday, 27 April 2020 05:53PM
    Psi4 wall time for execution: 0:04:05.71

*** Psi4 exiting successfully. Buy a developer a beer!
