                               Psi4 1.3.2 release

  ==> Input File <==

--------------------------------------------------------------------------
import numpy as np
set {scf_type pk
basis cc-pvdz
d_convergence 10
gdma_switch   0
gdma_limit    0
gdma_origin   [ 0.0,  0.0,  0.0 ]
}
molecule test {
    units Angstrom
    1 1
    --
    1 1
    C               -0.100368947457131     1.069241769195607    -3.328989514580399
    C                0.093631052542869    -1.197758230804393    -2.352989514580399
    N               -0.626368947457131    -0.119758230804393    -2.639989514580399
    N                1.370631052542869    -1.252758230804393    -2.683989514580399
    N               -0.461368947457131    -2.218758230804393    -1.730989514580399
    H               -1.602368947457131    -0.120758230804393    -2.377989514580399
    H                1.783631052542869    -0.503758230804393    -3.213989514580399
    H                1.895631052542869    -2.101758230804393    -2.546989514580399
    H               -1.441368947457131    -2.190758230804393    -1.500989514580399
    H                0.086631052542869    -3.016758230804393    -1.435989514580399
    H                0.108631052542869     0.818241769195607    -4.371989514580400
    H                0.827631052542869     1.386241769195607    -2.848989514580399
    H               -0.799638947457131     1.917997769195607    -3.303835514580399
    C                2.602631052542869    -0.738758230804393     1.526010485419601
    C               -0.604368947457131     1.118241769195607     0.643010485419601
    C                0.663631052542869     0.546241769195607     0.547010485419601
    C               -1.290368947457131     1.086241769195607     1.858010485419601
    C                1.258631052542869    -0.061758230804393     1.657010485419601
    C               -0.706368947457131     0.488241769195607     2.977010485419601
    C                0.564631052542869    -0.081758230804393     2.871010485419601
    O               -2.536368947457131     1.629241769195607     1.946010485419601
    H               -1.050368947457131     1.589241769195607    -0.215989514580399
    H                1.200631052542869     0.585241769195607    -0.390989514580399
    H               -2.838368947457131     1.905241769195607     1.049010485419601
    H               -1.246368947457131     0.457241769195607     3.912010485419601
    H                3.093631052542869    -0.772758230804393     2.499010485419601
    H                3.222631052542869    -0.123758230804393     0.871010485419601
    H                1.004631052542869    -0.562758230804393     3.734010485419601
    H                2.529271052542869    -1.755712230804393     1.113187485419601

}
e, wfn = energy('scf', return_wfn=True)
gdma(wfn)
dmavals = variable('DMA DISTRIBUTED MULTIPOLES')
charges = np.array(dmavals)
print(charges)
np.save('SSI-006ARG-090TYR-1-dimer.npy', np.array(charges))--------------------------------------------------------------------------

*** tstart() called on ds3
*** at Mon Apr 27 17:17:37 2020

   => Loading Basis Set <=

    Name: CC-PVDZ
    Role: ORBITAL
    Keyword: BASIS
    atoms 1-2, 14-20  entry C          line   138 file /theoryfs2/ds/metcalf/miniconda2/envs/tf2gpu/share/psi4/basis/cc-pvdz.gbs
    atoms 3-5         entry N          line   168 file /theoryfs2/ds/metcalf/miniconda2/envs/tf2gpu/share/psi4/basis/cc-pvdz.gbs
    atoms 6-13, 22-29 entry H          line    22 file /theoryfs2/ds/metcalf/miniconda2/envs/tf2gpu/share/psi4/basis/cc-pvdz.gbs
    atoms 21          entry O          line   198 file /theoryfs2/ds/metcalf/miniconda2/envs/tf2gpu/share/psi4/basis/cc-pvdz.gbs

         ---------------------------------------------------------
                                   SCF
               by Justin Turney, Rob Parrish, Andy Simmonett
                          and Daniel G. A. Smith
                              RHF Reference
                        1 Threads,    500 MiB Core
         ---------------------------------------------------------

  ==> Geometry <==

    Molecular point group: c1
    Full point group: C1

    Geometry (in Angstrom), charge = 1, multiplicity = 1:

       Center              X                  Y                   Z               Mass
    ------------   -----------------  -----------------  -----------------  -----------------
         C           -0.100368947457     1.069241769196    -3.328989514580    12.000000000000
         C            0.093631052543    -1.197758230804    -2.352989514580    12.000000000000
         N           -0.626368947457    -0.119758230804    -2.639989514580    14.003074004430
         N            1.370631052543    -1.252758230804    -2.683989514580    14.003074004430
         N           -0.461368947457    -2.218758230804    -1.730989514580    14.003074004430
         H           -1.602368947457    -0.120758230804    -2.377989514580     1.007825032230
         H            1.783631052543    -0.503758230804    -3.213989514580     1.007825032230
         H            1.895631052543    -2.101758230804    -2.546989514580     1.007825032230
         H           -1.441368947457    -2.190758230804    -1.500989514580     1.007825032230
         H            0.086631052543    -3.016758230804    -1.435989514580     1.007825032230
         H            0.108631052543     0.818241769196    -4.371989514580     1.007825032230
         H            0.827631052543     1.386241769196    -2.848989514580     1.007825032230
         H           -0.799638947457     1.917997769196    -3.303835514580     1.007825032230
         C            2.602631052543    -0.738758230804     1.526010485420    12.000000000000
         C           -0.604368947457     1.118241769196     0.643010485420    12.000000000000
         C            0.663631052543     0.546241769196     0.547010485420    12.000000000000
         C           -1.290368947457     1.086241769196     1.858010485420    12.000000000000
         C            1.258631052543    -0.061758230804     1.657010485420    12.000000000000
         C           -0.706368947457     0.488241769196     2.977010485420    12.000000000000
         C            0.564631052543    -0.081758230804     2.871010485420    12.000000000000
         O           -2.536368947457     1.629241769196     1.946010485420    15.994914619570
         H           -1.050368947457     1.589241769196    -0.215989514580     1.007825032230
         H            1.200631052543     0.585241769196    -0.390989514580     1.007825032230
         H           -2.838368947457     1.905241769196     1.049010485420     1.007825032230
         H           -1.246368947457     0.457241769196     3.912010485420     1.007825032230
         H            3.093631052543    -0.772758230804     2.499010485420     1.007825032230
         H            3.222631052543    -0.123758230804     0.871010485420     1.007825032230
         H            1.004631052543    -0.562758230804     3.734010485420     1.007825032230
         H            2.529271052543    -1.755712230804     1.113187485420     1.007825032230

  Running in c1 symmetry.

  Rotational constants: A =      0.03269  B =      0.01537  C =      0.01225 [cm^-1]
  Rotational constants: A =    980.08446  B =    460.76118  C =    367.36545 [MHz]
  Nuclear repulsion =  793.370935221559080

  Charge       = 1
  Multiplicity = 1
  Electrons    = 98
  Nalpha       = 49
  Nbeta        = 49

  ==> Algorithm <==

  SCF Algorithm Type is PK.
  DIIS enabled.
  MOM disabled.
  Fractional occupation disabled.
  Guess Type is SAD.
  Energy threshold   = 1.00e-06
  Density threshold  = 1.00e-10
  Integral threshold = 0.00e+00

  ==> Primary Basis <==

  Basis Set: CC-PVDZ
    Blend: CC-PVDZ
    Number of shells: 126
    Number of basis function: 262
    Number of Cartesian functions: 275
    Spherical Harmonics?: true
    Max angular momentum: 2

  ==> Pre-Iterations <==

   -------------------------------------------------------
    Irrep   Nso     Nmo     Nalpha   Nbeta   Ndocc  Nsocc
   -------------------------------------------------------
     A        262     262       0       0       0       0
   -------------------------------------------------------
    Total     262     262      49      49      49       0
   -------------------------------------------------------

  ==> Integral Setup <==

  Using integral reordering PK algorithm.
  Sizing the integral batches needed.
  Building batch lookup table.
   Calculation information:
      Number of atoms:                  29
      Number of AO shells:             126
      Number of primitives:            366
      Number of atomic orbitals:       275
      Number of basis functions:       262

      Integral cutoff                 1.00e-12
      Number of threads:                 1

	Batch   1 pq = [       0,    9405] index = [             0,44231715] size =     44231715
	Batch   2 pq = [    9405,   13301] index = [      44231715,88464951] size =     44233236
	Batch   3 pq = [   13301,   16290] index = [      88464951,132690195] size =     44225244
	Batch   4 pq = [   16290,   18810] index = [     132690195,176917455] size =     44227260
	Batch   5 pq = [   18810,   21030] index = [     176917455,221140965] size =     44223510
	Batch   6 pq = [   21030,   23037] index = [     221140965,265363203] size =     44222238
	Batch   7 pq = [   23037,   24883] index = [     265363203,309594286] size =     44231083
	Batch   8 pq = [   24883,   26601] index = [     309594286,353819901] size =     44225615
	Batch   9 pq = [   26601,   28214] index = [     353819901,398029005] size =     44209104
	Batch  10 pq = [   28214,   29740] index = [     398029005,442248670] size =     44219665
	Batch  11 pq = [   29740,   31191] index = [     442248670,486454836] size =     44206166
	Batch  12 pq = [   31191,   32578] index = [     486454836,530679331] size =     44224495
	Batch  13 pq = [   32578,   33908] index = [     530679331,574893186] size =     44213855
	Batch  14 pq = [   33908,   34453] index = [     574893186,593521831] size =     18628645
  Task number: 54
  Buffer size: 11059200
  Buffer per thread: 2
  We computed 33288131 shell quartets total.
  Whereas there are 32012001 unique shell quartets.
     3.99 percent of shell quartets recomputed by reordering.

  ==> DiskJK: Disk-Based J/K Matrices <==

    J tasked:                  Yes
    K tasked:                  Yes
    wK tasked:                  No
    Memory [MiB]:              375
    Schwarz Cutoff:          1E-12

    OpenMP threads:              1

  Minimum eigenvalue in the overlap matrix is 3.1940539412E-04.
  Using Symmetric Orthogonalization.

  SCF Guess: Superposition of Atomic Densities via on-the-fly atomic UHF.

  ==> Iterations <==

                        Total Energy        Delta E     RMS |[F,P]|

   @RHF iter SAD:  -587.39949948360731   -5.87399e+02   0.00000e+00
   @RHF iter   1:  -587.90497351606882   -5.05474e-01   2.65523e-03 DIIS
   @RHF iter   2:  -588.16229520880120   -2.57322e-01   1.07276e-03 DIIS
   @RHF iter   3:  -588.19961537936069   -3.73202e-02   2.72686e-04 DIIS
   @RHF iter   4:  -588.20325431269248   -3.63893e-03   9.76558e-05 DIIS
   @RHF iter   5:  -588.20364096179264   -3.86649e-04   2.13919e-05 DIIS
   @RHF iter   6:  -588.20366996793587   -2.90061e-05   7.28003e-06 DIIS
   @RHF iter   7:  -588.20367308479331   -3.11686e-06   2.10076e-06 DIIS
   @RHF iter   8:  -588.20367349155913   -4.06766e-07   7.37252e-07 DIIS
   @RHF iter   9:  -588.20367353519327   -4.36341e-08   2.92530e-07 DIIS
   @RHF iter  10:  -588.20367354443783   -9.24456e-09   1.17760e-07 DIIS
   @RHF iter  11:  -588.20367354755149   -3.11366e-09   5.51894e-08 DIIS
   @RHF iter  12:  -588.20367354823975   -6.88260e-10   2.31238e-08 DIIS
   @RHF iter  13:  -588.20367354833252   -9.27685e-11   8.08321e-09 DIIS
   @RHF iter  14:  -588.20367354834389   -1.13687e-11   2.43826e-09 DIIS
   @RHF iter  15:  -588.20367354834389    0.00000e+00   7.76102e-10 DIIS
   @RHF iter  16:  -588.20367354834207    1.81899e-12   3.21282e-10 DIIS
   @RHF iter  17:  -588.20367354834525   -3.18323e-12   1.43768e-10 DIIS
   @RHF iter  18:  -588.20367354834355    1.70530e-12   7.51008e-11 DIIS
  Energy and wave function converged.

  ==> Post-Iterations <==

    Orbital Energies [Eh]
    ---------------------

    Doubly Occupied:

       1A    -20.680291     2A    -15.789396     3A    -15.786478
       4A    -15.785584     5A    -11.589958     6A    -11.445513
       7A    -11.399550     8A    -11.346151     9A    -11.339205
      10A    -11.336492    11A    -11.335028    12A    -11.327742
      13A    -11.327185    14A     -1.544779    15A     -1.491812
      16A     -1.401075    17A     -1.391599    18A     -1.249384
      19A     -1.141872    20A     -1.134934    21A     -1.118935
      22A     -1.040138    23A     -1.023098    24A     -0.978809
      25A     -0.945278    26A     -0.940089    27A     -0.899521
      28A     -0.859630    29A     -0.855794    30A     -0.831410
      31A     -0.819639    32A     -0.795559    33A     -0.768389
      34A     -0.746306    35A     -0.740784    36A     -0.725129
      37A     -0.706280    38A     -0.687931    39A     -0.683748
      40A     -0.668687    41A     -0.663507    42A     -0.623153
      43A     -0.617719    44A     -0.597627    45A     -0.586907
      46A     -0.583566    47A     -0.565761    48A     -0.440034
      49A     -0.400075

    Virtual:

      50A     -0.012531    51A      0.014028    52A      0.023151
      53A      0.024718    54A      0.033874    55A      0.055123
      56A      0.059680    57A      0.076830    58A      0.091746
      59A      0.094434    60A      0.111180    61A      0.118150
      62A      0.123887    63A      0.131192    64A      0.153138
      65A      0.167143    66A      0.174316    67A      0.195405
      68A      0.201824    69A      0.214064    70A      0.264526
      71A      0.277899    72A      0.291411    73A      0.328665
      74A      0.330042    75A      0.335797    76A      0.347618
      77A      0.381495    78A      0.396419    79A      0.409019
      80A      0.452609    81A      0.487043    82A      0.492857
      83A      0.505512    84A      0.521246    85A      0.530947
      86A      0.533527    87A      0.553568    88A      0.557898
      89A      0.561214    90A      0.562892    91A      0.567610
      92A      0.594368    93A      0.604905    94A      0.616445
      95A      0.636356    96A      0.640469    97A      0.660761
      98A      0.664986    99A      0.671868   100A      0.686359
     101A      0.694561   102A      0.700272   103A      0.707205
     104A      0.711407   105A      0.721099   106A      0.739697
     107A      0.742814   108A      0.748199   109A      0.749449
     110A      0.776674   111A      0.783611   112A      0.787611
     113A      0.799118   114A      0.804435   115A      0.816577
     116A      0.820422   117A      0.826373   118A      0.831455
     119A      0.849804   120A      0.855305   121A      0.879043
     122A      0.900739   123A      0.918328   124A      0.923525
     125A      0.926442   126A      0.937672   127A      0.963915
     128A      0.978990   129A      1.004993   130A      1.026307
     131A      1.039787   132A      1.042315   133A      1.056474
     134A      1.090191   135A      1.106173   136A      1.115718
     137A      1.127300   138A      1.136448   139A      1.153970
     140A      1.157783   141A      1.171355   142A      1.181179
     143A      1.189992   144A      1.203207   145A      1.208005
     146A      1.224940   147A      1.228244   148A      1.242102
     149A      1.260403   150A      1.268852   151A      1.283721
     152A      1.291779   153A      1.383114   154A      1.397145
     155A      1.414368   156A      1.436677   157A      1.451773
     158A      1.501543   159A      1.516438   160A      1.517684
     161A      1.523925   162A      1.538474   163A      1.542253
     164A      1.573598   165A      1.608391   166A      1.611635
     167A      1.622967   168A      1.637318   169A      1.647454
     170A      1.657938   171A      1.679851   172A      1.687070
     173A      1.700799   174A      1.708311   175A      1.725053
     176A      1.754635   177A      1.760859   178A      1.772174
     179A      1.776122   180A      1.781261   181A      1.788814
     182A      1.800822   183A      1.812709   184A      1.814048
     185A      1.819628   186A      1.828681   187A      1.848422
     188A      1.859126   189A      1.866412   190A      1.867577
     191A      1.874819   192A      1.897708   193A      1.898807
     194A      1.938463   195A      1.955685   196A      1.960351
     197A      1.964048   198A      1.974056   199A      2.014085
     200A      2.030901   201A      2.037890   202A      2.044997
     203A      2.068282   204A      2.073448   205A      2.100633
     206A      2.121953   207A      2.131268   208A      2.149644
     209A      2.168286   210A      2.172566   211A      2.201321
     212A      2.210526   213A      2.224962   214A      2.248497
     215A      2.264997   216A      2.268788   217A      2.294038
     218A      2.319069   219A      2.325434   220A      2.327140
     221A      2.357153   222A      2.360599   223A      2.382850
     224A      2.393281   225A      2.431500   226A      2.441492
     227A      2.452026   228A      2.469199   229A      2.508714
     230A      2.529008   231A      2.552345   232A      2.587360
     233A      2.604352   234A      2.637766   235A      2.661714
     236A      2.680894   237A      2.691564   238A      2.713550
     239A      2.722901   240A      2.738599   241A      2.760182
     242A      2.782730   243A      2.808959   244A      2.832125
     245A      2.844617   246A      2.856464   247A      2.882586
     248A      2.901003   249A      2.985918   250A      2.999273
     251A      3.079906   252A      3.096844   253A      3.127689
     254A      3.158524   255A      3.182145   256A      3.236512
     257A      3.487218   258A      3.564999   259A      3.578691
     260A      3.654056   261A      3.846820   262A      4.065469

    Final Occupation by Irrep:
              A
    DOCC [    49 ]

  @RHF Final Energy:  -588.20367354834355

   => Energetics <=

    Nuclear Repulsion Energy =            793.3709352215590798
    One-Electron Energy =               -2359.6341512358803811
    Two-Electron Energy =                 978.0595424659776427
    Total Energy =                       -588.2036735483435450

Computation Completed

Properties will be evaluated at   0.000000,   0.000000,   0.000000 [a0]

Properties computed using the SCF density matrix

  Nuclear Dipole Moment: [e a0]
     X:     6.3378      Y:    -2.3154      Z:    -8.4350

  Electronic Dipole Moment: [e a0]
     X:    -6.0538      Y:     0.3714      Z:     3.8358

  Dipole Moment: [e a0]
     X:     0.2841      Y:    -1.9440      Z:    -4.5992     Total:     5.0013

  Dipole Moment: [D]
     X:     0.7220      Y:    -4.9412      Z:   -11.6900     Total:    12.7119

*** tstop() called on ds3 at Mon Apr 27 17:26:26 2020
Module time:
	user time   =     247.52 seconds =       4.13 minutes
	system time =      92.46 seconds =       1.54 minutes
	total time  =        529 seconds =       8.82 minutes
Total time:
	user time   =     247.52 seconds =       4.13 minutes
	system time =      92.46 seconds =       1.54 minutes
	total time  =        529 seconds =       8.82 minutes
                                     G D M A

                                 by Anthony Stone

                           version 2.2.06, 22 June 2011

               Distributed Multipoles from Gaussian wavefunctions

Starting at 17:26:27 on 27 Apr 2020

Using SCF density matrix from file ./SSI/SSI-006ARG-090TYR-1-dimer.test.12544.fchk

                         Distributed Multipole Analysis

Standard DMA

Positions and radii in angstrom
Multipole moments in atomic units, ea_0^k for rank k

C          x = -0.100369  y =  1.069242  z = -3.328990 angstrom
           Maximum rank =  0   Radius =  0.650 angstrom
                   Q00  =  -0.131153

C          x =  0.093631  y = -1.197758  z = -2.352990 angstrom
           Maximum rank =  0   Radius =  0.650 angstrom
                   Q00  =   1.068035

N          x = -0.626369  y = -0.119758  z = -2.639990 angstrom
           Maximum rank =  0   Radius =  0.650 angstrom
                   Q00  =  -0.480920

N          x =  1.370631  y = -1.252758  z = -2.683990 angstrom
           Maximum rank =  0   Radius =  0.650 angstrom
                   Q00  =  -0.572043

N          x = -0.461369  y = -2.218758  z = -1.730990 angstrom
           Maximum rank =  0   Radius =  0.650 angstrom
                   Q00  =  -0.591888

H          x = -1.602369  y = -0.120758  z = -2.377990 angstrom
           Maximum rank =  0   Radius =  0.325 angstrom
                   Q00  =   0.235371

H          x =  1.783631  y = -0.503758  z = -3.213990 angstrom
           Maximum rank =  0   Radius =  0.325 angstrom
                   Q00  =   0.269406

H          x =  1.895631  y = -2.101758  z = -2.546990 angstrom
           Maximum rank =  0   Radius =  0.325 angstrom
                   Q00  =   0.268215

H          x = -1.441369  y = -2.190758  z = -1.500990 angstrom
           Maximum rank =  0   Radius =  0.325 angstrom
                   Q00  =   0.265570

H          x =  0.086631  y = -3.016758  z = -1.435990 angstrom
           Maximum rank =  0   Radius =  0.325 angstrom
                   Q00  =   0.270818

H          x =  0.108631  y =  0.818242  z = -4.371990 angstrom
           Maximum rank =  0   Radius =  0.325 angstrom
                   Q00  =   0.121019

H          x =  0.827631  y =  1.386242  z = -2.848990 angstrom
           Maximum rank =  0   Radius =  0.325 angstrom
                   Q00  =   0.112318

H          x = -0.799639  y =  1.917998  z = -3.303836 angstrom
           Maximum rank =  0   Radius =  0.325 angstrom
                   Q00  =   0.167101

C          x =  2.602631  y = -0.738758  z =  1.526010 angstrom
           Maximum rank =  0   Radius =  0.650 angstrom
                   Q00  =  -0.180321

C          x = -0.604369  y =  1.118242  z =  0.643010 angstrom
           Maximum rank =  0   Radius =  0.650 angstrom
                   Q00  =  -0.196085

C          x =  0.663631  y =  0.546242  z =  0.547010 angstrom
           Maximum rank =  0   Radius =  0.650 angstrom
                   Q00  =  -0.001279

C          x = -1.290369  y =  1.086242  z =  1.858010 angstrom
           Maximum rank =  0   Radius =  0.650 angstrom
                   Q00  =   0.320855

C          x =  1.258631  y = -0.061758  z =  1.657010 angstrom
           Maximum rank =  0   Radius =  0.650 angstrom
                   Q00  =  -0.139696

C          x = -0.706369  y =  0.488242  z =  2.977010 angstrom
           Maximum rank =  0   Radius =  0.650 angstrom
                   Q00  =  -0.103189

C          x =  0.564631  y = -0.081758  z =  2.871010 angstrom
           Maximum rank =  0   Radius =  0.650 angstrom
                   Q00  =  -0.006781

O          x = -2.536369  y =  1.629242  z =  1.946010 angstrom
           Maximum rank =  0   Radius =  0.650 angstrom
                   Q00  =  -0.666488

H          x = -1.050369  y =  1.589242  z = -0.215990 angstrom
           Maximum rank =  0   Radius =  0.325 angstrom
                   Q00  =   0.047855

H          x =  1.200631  y =  0.585242  z = -0.390990 angstrom
           Maximum rank =  0   Radius =  0.325 angstrom
                   Q00  =   0.035032

H          x = -2.838369  y =  1.905242  z =  1.049010 angstrom
           Maximum rank =  0   Radius =  0.325 angstrom
                   Q00  =   0.409009

H          x = -1.246369  y =  0.457242  z =  3.912010 angstrom
           Maximum rank =  0   Radius =  0.325 angstrom
                   Q00  =   0.102269

H          x =  3.093631  y = -0.772758  z =  2.499010 angstrom
           Maximum rank =  0   Radius =  0.325 angstrom
                   Q00  =   0.121863

H          x =  3.222631  y = -0.123758  z =  0.871010 angstrom
           Maximum rank =  0   Radius =  0.325 angstrom
                   Q00  =   0.094154

H          x =  1.004631  y = -0.562758  z =  3.734010 angstrom
           Maximum rank =  0   Radius =  0.325 angstrom
                   Q00  =   0.083178

H          x =  2.529271  y = -1.755712  z =  1.113187 angstrom
           Maximum rank =  0   Radius =  0.325 angstrom
                   Q00  =   0.077773

Total multipoles referred to origin at
           x =   0.000000,  y =    0.000000,  z =    0.000000 angstrom
                   Q00  =   1.000000

Finished at 17:26:27 on 27 Apr 2020

  DMA results are available in the Python driver through the
	  variable('DMA DISTRIBUTED MULTIPOLES')
  and
	  variable('DMA TOTAL MULTIPOLES')
  commands.

    Psi4 stopped on: Monday, 27 April 2020 05:26PM
    Psi4 wall time for execution: 0:08:49.45

*** Psi4 exiting successfully. Buy a developer a beer!
