                               Psi4 1.3.2 release

  ==> Input File <==

--------------------------------------------------------------------------
import numpy as np
set {scf_type pk
basis cc-pvdz
d_convergence 10
gdma_switch   0
gdma_limit    0
gdma_origin   [ 0.0,  0.0,  0.0 ]
}
molecule test {
    units Angstrom
    -1 1
    --
    -1 1
    C                2.195104171233916    -1.482181049988417    -2.319346688399617
    C                0.997104171233916    -2.068181049988417    -0.104346688399617
    C                1.036104171233916    -1.806181049988417    -1.441346688399617
    C               -1.018895828766084    -2.364181049988417    -0.921346688399617
    N               -0.294895828766084    -2.413181049988417     0.192653311600383
    N               -0.239895828766084    -1.995181049988417    -1.929346688399618
    H                1.773104171233916    -2.049181049988417     0.647653311600383
    H               -0.634895828766084    -2.662181049988417     1.110653311600383
    H                2.925104171233916    -0.960181049988417    -1.717346688399617
    H                1.828104171233916    -0.809181049988417    -3.099346688399617
    H               -2.071895828766084    -2.575181049988417    -1.064346688399617
    H                2.707426171233916    -2.374591049988417    -2.708106688399618
    C                0.153104171233916     1.421818950011583     1.063653311600383
    C                0.528104171233916     1.188818950011583     2.537653311600383
    C               -0.804895828766084     2.593818950011583     0.869653311600383
    O               -1.288895828766084     3.193818950011583     1.861653311600383
    O               -1.134895828766084     2.923818950011583    -0.295346688399617
    H                1.076104171233916     1.626818950011583     0.530653311600383
    H               -0.302895828766084     0.518818950011583     0.655653311600383
    H                0.829104171233916     2.146818950011583     2.968653311600383
    H                1.360662171233916     0.473918950011583     2.613613311600382
    H               -0.333255528766084     0.784858950011583     3.089803311600383

}
e, wfn = energy('scf', return_wfn=True)
gdma(wfn)
dmavals = variable('DMA DISTRIBUTED MULTIPOLES')
charges = np.array(dmavals)
print(charges)
np.save('SSI-010HIE-023ASP-1-dimer.npy', np.array(charges))--------------------------------------------------------------------------

*** tstart() called on ds3
*** at Mon Apr 27 19:37:07 2020

   => Loading Basis Set <=

    Name: CC-PVDZ
    Role: ORBITAL
    Keyword: BASIS
    atoms 1-4, 13-15  entry C          line   138 file /theoryfs2/ds/metcalf/miniconda2/envs/tf2gpu/share/psi4/basis/cc-pvdz.gbs
    atoms 5-6         entry N          line   168 file /theoryfs2/ds/metcalf/miniconda2/envs/tf2gpu/share/psi4/basis/cc-pvdz.gbs
    atoms 7-12, 18-22 entry H          line    22 file /theoryfs2/ds/metcalf/miniconda2/envs/tf2gpu/share/psi4/basis/cc-pvdz.gbs
    atoms 16-17       entry O          line   198 file /theoryfs2/ds/metcalf/miniconda2/envs/tf2gpu/share/psi4/basis/cc-pvdz.gbs

         ---------------------------------------------------------
                                   SCF
               by Justin Turney, Rob Parrish, Andy Simmonett
                          and Daniel G. A. Smith
                              RHF Reference
                        1 Threads,    500 MiB Core
         ---------------------------------------------------------

  ==> Geometry <==

    Molecular point group: c1
    Full point group: C1

    Geometry (in Angstrom), charge = -1, multiplicity = 1:

       Center              X                  Y                   Z               Mass
    ------------   -----------------  -----------------  -----------------  -----------------
         C            2.195104171234    -1.482181049988    -2.319346688400    12.000000000000
         C            0.997104171234    -2.068181049988    -0.104346688400    12.000000000000
         C            1.036104171234    -1.806181049988    -1.441346688400    12.000000000000
         C           -1.018895828766    -2.364181049988    -0.921346688400    12.000000000000
         N           -0.294895828766    -2.413181049988     0.192653311600    14.003074004430
         N           -0.239895828766    -1.995181049988    -1.929346688400    14.003074004430
         H            1.773104171234    -2.049181049988     0.647653311600     1.007825032230
         H           -0.634895828766    -2.662181049988     1.110653311600     1.007825032230
         H            2.925104171234    -0.960181049988    -1.717346688400     1.007825032230
         H            1.828104171234    -0.809181049988    -3.099346688400     1.007825032230
         H           -2.071895828766    -2.575181049988    -1.064346688400     1.007825032230
         H            2.707426171234    -2.374591049988    -2.708106688400     1.007825032230
         C            0.153104171234     1.421818950012     1.063653311600    12.000000000000
         C            0.528104171234     1.188818950012     2.537653311600    12.000000000000
         C           -0.804895828766     2.593818950012     0.869653311600    12.000000000000
         O           -1.288895828766     3.193818950012     1.861653311600    15.994914619570
         O           -1.134895828766     2.923818950012    -0.295346688400    15.994914619570
         H            1.076104171234     1.626818950012     0.530653311600     1.007825032230
         H           -0.302895828766     0.518818950012     0.655653311600     1.007825032230
         H            0.829104171234     2.146818950012     2.968653311600     1.007825032230
         H            1.360662171234     0.473918950012     2.613613311600     1.007825032230
         H           -0.333255528766     0.784858950012     3.089803311600     1.007825032230

  Running in c1 symmetry.

  Rotational constants: A =      0.05400  B =      0.01470  C =      0.01423 [cm^-1]
  Rotational constants: A =   1618.91976  B =    440.75313  C =    426.50427 [MHz]
  Nuclear repulsion =  568.864387421230731

  Charge       = -1
  Multiplicity = 1
  Electrons    = 84
  Nalpha       = 42
  Nbeta        = 42

  ==> Algorithm <==

  SCF Algorithm Type is PK.
  DIIS enabled.
  MOM disabled.
  Fractional occupation disabled.
  Guess Type is SAD.
  Energy threshold   = 1.00e-06
  Density threshold  = 1.00e-10
  Integral threshold = 0.00e+00

  ==> Primary Basis <==

  Basis Set: CC-PVDZ
    Blend: CC-PVDZ
    Number of shells: 99
    Number of basis function: 209
    Number of Cartesian functions: 220
    Spherical Harmonics?: true
    Max angular momentum: 2

  ==> Pre-Iterations <==

   -------------------------------------------------------
    Irrep   Nso     Nmo     Nalpha   Nbeta   Ndocc  Nsocc
   -------------------------------------------------------
     A        209     209       0       0       0       0
   -------------------------------------------------------
    Total     209     209      42      42      42       0
   -------------------------------------------------------

  ==> Integral Setup <==

  Using integral reordering PK algorithm.
  Sizing the integral batches needed.
  Building batch lookup table.
   Calculation information:
      Number of atoms:                  22
      Number of AO shells:              99
      Number of primitives:            297
      Number of atomic orbitals:       220
      Number of basis functions:       209

      Integral cutoff                 1.00e-12
      Number of threads:                 1

	Batch   1 pq = [       0,    9405] index = [             0,44231715] size =     44231715
	Batch   2 pq = [    9405,   13301] index = [      44231715,88464951] size =     44233236
	Batch   3 pq = [   13301,   16290] index = [      88464951,132690195] size =     44225244
	Batch   4 pq = [   16290,   18810] index = [     132690195,176917455] size =     44227260
	Batch   5 pq = [   18810,   21030] index = [     176917455,221140965] size =     44223510
	Batch   6 pq = [   21030,   21945] index = [     221140965,240802485] size =     19661520
  Task number: 22
  Buffer size: 11059200
  Buffer per thread: 2
  We computed 10266605 shell quartets total.
  Whereas there are 12253725 unique shell quartets.

  ==> DiskJK: Disk-Based J/K Matrices <==

    J tasked:                  Yes
    K tasked:                  Yes
    wK tasked:                  No
    Memory [MiB]:              375
    Schwarz Cutoff:          1E-12

    OpenMP threads:              1

  Minimum eigenvalue in the overlap matrix is 1.1292930033E-03.
  Using Symmetric Orthogonalization.

  SCF Guess: Superposition of Atomic Densities via on-the-fly atomic UHF.

  ==> Iterations <==

                        Total Energy        Delta E     RMS |[F,P]|

   @RHF iter SAD:  -528.69750404215677   -5.28698e+02   0.00000e+00
   @RHF iter   1:  -529.79120169236728   -1.09370e+00   3.91685e-03 DIIS
   @RHF iter   2:  -530.05352871310663   -2.62327e-01   2.25178e-03 DIIS
   @RHF iter   3:  -530.13884324410287   -8.53145e-02   3.87951e-04 DIIS
   @RHF iter   4:  -530.14300177365237   -4.15853e-03   1.56804e-04 DIIS
   @RHF iter   5:  -530.14368055136856   -6.78778e-04   3.13130e-05 DIIS
   @RHF iter   6:  -530.14371397786135   -3.34265e-05   1.49608e-05 DIIS
   @RHF iter   7:  -530.14372095853855   -6.98068e-06   3.87465e-06 DIIS
   @RHF iter   8:  -530.14372205870416   -1.10017e-06   1.86047e-06 DIIS
   @RHF iter   9:  -530.14372232389132   -2.65187e-07   7.33693e-07 DIIS
   @RHF iter  10:  -530.14372237210216   -4.82108e-08   2.37006e-07 DIIS
   @RHF iter  11:  -530.14372237598195   -3.87979e-09   8.73543e-08 DIIS
   @RHF iter  12:  -530.14372237642954   -4.47585e-10   4.09979e-08 DIIS
   @RHF iter  13:  -530.14372237651298   -8.34461e-11   1.54414e-08 DIIS
   @RHF iter  14:  -530.14372237652833   -1.53477e-11   4.96023e-09 DIIS
   @RHF iter  15:  -530.14372237653231   -3.97904e-12   2.05506e-09 DIIS
   @RHF iter  16:  -530.14372237653367   -1.36424e-12   8.82409e-10 DIIS
   @RHF iter  17:  -530.14372237652981    3.86535e-12   3.53009e-10 DIIS
   @RHF iter  18:  -530.14372237652890    9.09495e-13   1.02656e-10 DIIS
   @RHF iter  19:  -530.14372237652992   -1.02318e-12   4.51765e-11 DIIS
  Energy and wave function converged.

  ==> Post-Iterations <==

    Orbital Energies [Eh]
    ---------------------

    Doubly Occupied:

       1A    -20.252469     2A    -20.244679     3A    -15.532931
       4A    -15.440799     5A    -11.203981     6A    -11.162684
       7A    -11.153653     8A    -11.139858     9A    -11.106841
      10A    -11.073246    11A    -11.052562    12A     -1.254913
      13A     -1.138527    14A     -1.068139    15A     -1.020178
      16A     -0.945789    17A     -0.867565    18A     -0.856200
      19A     -0.730964    20A     -0.699676    21A     -0.680879
      22A     -0.650292    23A     -0.525470    24A     -0.518739
      25A     -0.511294    26A     -0.500163    27A     -0.472010
      28A     -0.457975    29A     -0.451827    30A     -0.437215
      31A     -0.425711    32A     -0.380799    33A     -0.356390
      34A     -0.353089    35A     -0.326283    36A     -0.317924
      37A     -0.294346    38A     -0.290135    39A     -0.219610
      40A     -0.177240    41A     -0.157655    42A     -0.148475

    Virtual:

      43A      0.254425    44A      0.273397    45A      0.278283
      46A      0.303500    47A      0.307824    48A      0.321299
      49A      0.350278    50A      0.357868    51A      0.373781
      52A      0.392015    53A      0.395946    54A      0.415363
      55A      0.423899    56A      0.464114    57A      0.480505
      58A      0.492058    59A      0.508607    60A      0.546616
      61A      0.572233    62A      0.592844    63A      0.596531
      64A      0.693345    65A      0.699461    66A      0.704891
      67A      0.712824    68A      0.742673    69A      0.754299
      70A      0.770758    71A      0.772312    72A      0.798256
      73A      0.810983    74A      0.838197    75A      0.853233
      76A      0.890578    77A      0.892841    78A      0.911560
      79A      0.924748    80A      0.929079    81A      0.955425
      82A      0.960099    83A      0.985865    84A      0.989946
      85A      0.997971    86A      1.011324    87A      1.019812
      88A      1.031006    89A      1.040350    90A      1.043904
      91A      1.049914    92A      1.058118    93A      1.073359
      94A      1.076700    95A      1.096671    96A      1.107396
      97A      1.119223    98A      1.144347    99A      1.169254
     100A      1.180631   101A      1.201471   102A      1.219292
     103A      1.238989   104A      1.258419   105A      1.302461
     106A      1.308588   107A      1.319144   108A      1.344501
     109A      1.370894   110A      1.398815   111A      1.408914
     112A      1.411891   113A      1.421287   114A      1.478933
     115A      1.494052   116A      1.519558   117A      1.534119
     118A      1.541492   119A      1.571516   120A      1.604805
     121A      1.615691   122A      1.624634   123A      1.656505
     124A      1.658965   125A      1.661677   126A      1.703514
     127A      1.712193   128A      1.737014   129A      1.768214
     130A      1.815056   131A      1.825236   132A      1.838226
     133A      1.859464   134A      1.871035   135A      1.889044
     136A      1.917405   137A      1.945800   138A      1.949842
     139A      1.982429   140A      2.006208   141A      2.013362
     142A      2.030973   143A      2.040003   144A      2.056566
     145A      2.061955   146A      2.065410   147A      2.074929
     148A      2.118593   149A      2.131266   150A      2.139382
     151A      2.150836   152A      2.163958   153A      2.169123
     154A      2.198311   155A      2.222256   156A      2.226647
     157A      2.240500   158A      2.254352   159A      2.286070
     160A      2.315394   161A      2.327087   162A      2.335113
     163A      2.376639   164A      2.392883   165A      2.435591
     166A      2.455369   167A      2.471973   168A      2.501108
     169A      2.521806   170A      2.530179   171A      2.548666
     172A      2.588054   173A      2.607493   174A      2.654555
     175A      2.668999   176A      2.699948   177A      2.726143
     178A      2.769877   179A      2.786208   180A      2.815655
     181A      2.820298   182A      2.833658   183A      2.872652
     184A      2.889645   185A      2.901892   186A      2.917375
     187A      2.951367   188A      2.979107   189A      2.980164
     190A      2.995300   191A      3.005465   192A      3.054247
     193A      3.081145   194A      3.129346   195A      3.199917
     196A      3.254107   197A      3.257261   198A      3.304246
     199A      3.309036   200A      3.324331   201A      3.370783
     202A      3.566906   203A      3.659271   204A      3.754820
     205A      3.817931   206A      3.890189   207A      4.058872
     208A      4.077180   209A      4.216655

    Final Occupation by Irrep:
              A
    DOCC [    42 ]

  @RHF Final Energy:  -530.14372237652992

   => Energetics <=

    Nuclear Repulsion Energy =            568.8643874212307310
    One-Electron Energy =               -1864.8178730586780603
    Two-Electron Energy =                 765.8097632609174070
    Total Energy =                       -530.1437223765299223

Computation Completed

Properties will be evaluated at   0.000000,   0.000000,   0.000000 [a0]

Properties computed using the SCF density matrix

  Nuclear Dipole Moment: [e a0]
     X:     8.5740      Y:    -5.4694      Z:     2.8508

  Electronic Dipole Moment: [e a0]
     X:    -6.3933      Y:    -0.4931      Z:    -3.0677

  Dipole Moment: [e a0]
     X:     2.1807      Y:    -5.9625      Z:    -0.2169     Total:     6.3525

  Dipole Moment: [D]
     X:     5.5427      Y:   -15.1552      Z:    -0.5514     Total:    16.1464

*** tstop() called on ds3 at Mon Apr 27 19:40:57 2020
Module time:
	user time   =      78.65 seconds =       1.31 minutes
	system time =      35.86 seconds =       0.60 minutes
	total time  =        230 seconds =       3.83 minutes
Total time:
	user time   =      78.65 seconds =       1.31 minutes
	system time =      35.86 seconds =       0.60 minutes
	total time  =        230 seconds =       3.83 minutes
                                     G D M A

                                 by Anthony Stone

                           version 2.2.06, 22 June 2011

               Distributed Multipoles from Gaussian wavefunctions

Starting at 19:40:57 on 27 Apr 2020

Using SCF density matrix from file ./SSI/SSI-010HIE-023ASP-1-dimer.test.8808.fchk

                         Distributed Multipole Analysis

Standard DMA

Positions and radii in angstrom
Multipole moments in atomic units, ea_0^k for rank k

C          x =  2.195104  y = -1.482181  z = -2.319347 angstrom
           Maximum rank =  0   Radius =  0.650 angstrom
                   Q00  =  -0.196774

C          x =  0.997104  y = -2.068181  z = -0.104347 angstrom
           Maximum rank =  0   Radius =  0.650 angstrom
                   Q00  =  -0.010853

C          x =  1.036104  y = -1.806181  z = -1.441347 angstrom
           Maximum rank =  0   Radius =  0.650 angstrom
                   Q00  =   0.231295

C          x = -1.018896  y = -2.364181  z = -0.921347 angstrom
           Maximum rank =  0   Radius =  0.650 angstrom
                   Q00  =   0.454505

N          x = -0.294896  y = -2.413181  z =  0.192653 angstrom
           Maximum rank =  0   Radius =  0.650 angstrom
                   Q00  =  -0.446194

N          x = -0.239896  y = -1.995181  z = -1.929347 angstrom
           Maximum rank =  0   Radius =  0.650 angstrom
                   Q00  =  -0.761123

H          x =  1.773104  y = -2.049181  z =  0.647653 angstrom
           Maximum rank =  0   Radius =  0.325 angstrom
                   Q00  =   0.094850

H          x = -0.634896  y = -2.662181  z =  1.110653 angstrom
           Maximum rank =  0   Radius =  0.325 angstrom
                   Q00  =   0.217229

H          x =  2.925104  y = -0.960181  z = -1.717347 angstrom
           Maximum rank =  0   Radius =  0.325 angstrom
                   Q00  =   0.096416

H          x =  1.828104  y = -0.809181  z = -3.099347 angstrom
           Maximum rank =  0   Radius =  0.325 angstrom
                   Q00  =   0.121959

H          x = -2.071896  y = -2.575181  z = -1.064347 angstrom
           Maximum rank =  0   Radius =  0.325 angstrom
                   Q00  =   0.119798

H          x =  2.707426  y = -2.374591  z = -2.708107 angstrom
           Maximum rank =  0   Radius =  0.325 angstrom
                   Q00  =   0.082858

C          x =  0.153104  y =  1.421819  z =  1.063653 angstrom
           Maximum rank =  0   Radius =  0.650 angstrom
                   Q00  =  -0.162969

C          x =  0.528104  y =  1.188819  z =  2.537653 angstrom
           Maximum rank =  0   Radius =  0.650 angstrom
                   Q00  =  -0.215195

C          x = -0.804896  y =  2.593819  z =  0.869653 angstrom
           Maximum rank =  0   Radius =  0.650 angstrom
                   Q00  =   1.027406

O          x = -1.288896  y =  3.193819  z =  1.861653 angstrom
           Maximum rank =  0   Radius =  0.650 angstrom
                   Q00  =  -0.971802

O          x = -1.134896  y =  2.923819  z = -0.295347 angstrom
           Maximum rank =  0   Radius =  0.650 angstrom
                   Q00  =  -0.944960

H          x =  1.076104  y =  1.626819  z =  0.530653 angstrom
           Maximum rank =  0   Radius =  0.325 angstrom
                   Q00  =   0.046141

H          x = -0.302896  y =  0.518819  z =  0.655653 angstrom
           Maximum rank =  0   Radius =  0.325 angstrom
                   Q00  =   0.054484

H          x =  0.829104  y =  2.146819  z =  2.968653 angstrom
           Maximum rank =  0   Radius =  0.325 angstrom
                   Q00  =   0.092565

H          x =  1.360662  y =  0.473919  z =  2.613613 angstrom
           Maximum rank =  0   Radius =  0.325 angstrom
                   Q00  =   0.003564

H          x = -0.333256  y =  0.784859  z =  3.089803 angstrom
           Maximum rank =  0   Radius =  0.325 angstrom
                   Q00  =   0.066801

Total multipoles referred to origin at
           x =   0.000000,  y =    0.000000,  z =    0.000000 angstrom
                   Q00  =  -1.000000

Finished at 19:40:57 on 27 Apr 2020

  DMA results are available in the Python driver through the
	  variable('DMA DISTRIBUTED MULTIPOLES')
  and
	  variable('DMA TOTAL MULTIPOLES')
  commands.

    Psi4 stopped on: Monday, 27 April 2020 07:40PM
    Psi4 wall time for execution: 0:03:49.99

*** Psi4 exiting successfully. Buy a developer a beer!
