                               Psi4 1.3.2 release

  ==> Input File <==

--------------------------------------------------------------------------
import numpy as np
set {scf_type pk
basis cc-pvdz
d_convergence 10
gdma_switch   0
gdma_limit    0
gdma_origin   [ 0.0,  0.0,  0.0 ]
}
molecule test {
    units Angstrom
    0 1
    --
    0 1
    C                0.046314007352980    -0.213077144217388    -3.546073437244054
    C                0.264314007352980    -0.805077144217388    -2.165073437244054
    O               -0.621685992647020    -1.549077144217388    -1.678073437244054
    O                1.326314007352980    -0.538077144217388    -1.573073437244054
    H                0.679314007352980     0.666922855782612    -3.670073437244054
    H               -0.990685992647020     0.110922855782612    -3.645073437244054
    H                0.274244007352980    -0.944337144217388    -4.335572437244053
    C               -0.767685992647020     1.157922855782612     0.320926562755946
    C               -1.690685992647020     2.348922855782611     0.131926562755946
    C                0.352314007352980    -0.079077144217388     2.117926562755946
    N               -0.411685992647020     0.921922855782612     1.714926562755946
    N                0.873314007352980    -0.935077144217388     1.265926562755946
    N                0.573314007352980    -0.229077144217388     3.399926562755946
    H               -1.274685992647020     0.276922855782612    -0.072073437244054
    H                0.139314007352980     1.320922855782612    -0.262073437244054
    H               -1.189685992647020     3.233922855782612     0.519926562755946
    H               -2.615685992647020     2.194922855782612     0.688926562755946
    H               -0.805685992647020     1.538922855782612     2.429926562755946
    H                0.816314007352980    -0.760077144217388     0.258926562755946
    H                1.412314007352980    -1.735077144217388     1.574926562755946
    H                0.149314007352980     0.421922855782612     4.045926562755946
    H                1.141314007352980    -0.991077144217388     3.736926562755946
    H               -1.920625992647020     2.464622855782611    -0.937533437244054

}
e, wfn = energy('scf', return_wfn=True)
gdma(wfn)
dmavals = variable('DMA DISTRIBUTED MULTIPOLES')
charges = np.array(dmavals)
print(charges)
np.save('SSI-026GLU-059ARG-1-dimer.npy', np.array(charges))--------------------------------------------------------------------------

*** tstart() called on ds3
*** at Tue Apr 28 00:42:37 2020

   => Loading Basis Set <=

    Name: CC-PVDZ
    Role: ORBITAL
    Keyword: BASIS
    atoms 1-2, 8-10  entry C          line   138 file /theoryfs2/ds/metcalf/miniconda2/envs/tf2gpu/share/psi4/basis/cc-pvdz.gbs
    atoms 3-4        entry O          line   198 file /theoryfs2/ds/metcalf/miniconda2/envs/tf2gpu/share/psi4/basis/cc-pvdz.gbs
    atoms 5-7, 14-23 entry H          line    22 file /theoryfs2/ds/metcalf/miniconda2/envs/tf2gpu/share/psi4/basis/cc-pvdz.gbs
    atoms 11-13      entry N          line   168 file /theoryfs2/ds/metcalf/miniconda2/envs/tf2gpu/share/psi4/basis/cc-pvdz.gbs

         ---------------------------------------------------------
                                   SCF
               by Justin Turney, Rob Parrish, Andy Simmonett
                          and Daniel G. A. Smith
                              RHF Reference
                        1 Threads,    500 MiB Core
         ---------------------------------------------------------

  ==> Geometry <==

    Molecular point group: c1
    Full point group: C1

    Geometry (in Angstrom), charge = 0, multiplicity = 1:

       Center              X                  Y                   Z               Mass
    ------------   -----------------  -----------------  -----------------  -----------------
         C            0.046314007353    -0.213077144217    -3.546073437244    12.000000000000
         C            0.264314007353    -0.805077144217    -2.165073437244    12.000000000000
         O           -0.621685992647    -1.549077144217    -1.678073437244    15.994914619570
         O            1.326314007353    -0.538077144217    -1.573073437244    15.994914619570
         H            0.679314007353     0.666922855783    -3.670073437244     1.007825032230
         H           -0.990685992647     0.110922855783    -3.645073437244     1.007825032230
         H            0.274244007353    -0.944337144217    -4.335572437244     1.007825032230
         C           -0.767685992647     1.157922855783     0.320926562756    12.000000000000
         C           -1.690685992647     2.348922855783     0.131926562756    12.000000000000
         C            0.352314007353    -0.079077144217     2.117926562756    12.000000000000
         N           -0.411685992647     0.921922855783     1.714926562756    14.003074004430
         N            0.873314007353    -0.935077144217     1.265926562756    14.003074004430
         N            0.573314007353    -0.229077144217     3.399926562756    14.003074004430
         H           -1.274685992647     0.276922855783    -0.072073437244     1.007825032230
         H            0.139314007353     1.320922855783    -0.262073437244     1.007825032230
         H           -1.189685992647     3.233922855783     0.519926562756     1.007825032230
         H           -2.615685992647     2.194922855783     0.688926562756     1.007825032230
         H           -0.805685992647     1.538922855783     2.429926562756     1.007825032230
         H            0.816314007353    -0.760077144217     0.258926562756     1.007825032230
         H            1.412314007353    -1.735077144217     1.574926562756     1.007825032230
         H            0.149314007353     0.421922855783     4.045926562756     1.007825032230
         H            1.141314007353    -0.991077144217     3.736926562756     1.007825032230
         H           -1.920625992647     2.464622855783    -0.937533437244     1.007825032230

  Running in c1 symmetry.

  Rotational constants: A =      0.05801  B =      0.02346  C =      0.01829 [cm^-1]
  Rotational constants: A =   1738.99459  B =    703.40717  C =    548.40544 [MHz]
  Nuclear repulsion =  558.268765937975218

  Charge       = 0
  Multiplicity = 1
  Electrons    = 80
  Nalpha       = 40
  Nbeta        = 40

  ==> Algorithm <==

  SCF Algorithm Type is PK.
  DIIS enabled.
  MOM disabled.
  Fractional occupation disabled.
  Guess Type is SAD.
  Energy threshold   = 1.00e-06
  Density threshold  = 1.00e-10
  Integral threshold = 0.00e+00

  ==> Primary Basis <==

  Basis Set: CC-PVDZ
    Blend: CC-PVDZ
    Number of shells: 99
    Number of basis function: 205
    Number of Cartesian functions: 215
    Spherical Harmonics?: true
    Max angular momentum: 2

  ==> Pre-Iterations <==

   -------------------------------------------------------
    Irrep   Nso     Nmo     Nalpha   Nbeta   Ndocc  Nsocc
   -------------------------------------------------------
     A        205     205       0       0       0       0
   -------------------------------------------------------
    Total     205     205      40      40      40       0
   -------------------------------------------------------

  ==> Integral Setup <==

  Using integral reordering PK algorithm.
  Sizing the integral batches needed.
  Building batch lookup table.
   Calculation information:
      Number of atoms:                  23
      Number of AO shells:              99
      Number of primitives:            285
      Number of atomic orbitals:       215
      Number of basis functions:       205

      Integral cutoff                 1.00e-12
      Number of threads:                 1

	Batch   1 pq = [       0,    9405] index = [             0,44231715] size =     44231715
	Batch   2 pq = [    9405,   13301] index = [      44231715,88464951] size =     44233236
	Batch   3 pq = [   13301,   16290] index = [      88464951,132690195] size =     44225244
	Batch   4 pq = [   16290,   18810] index = [     132690195,176917455] size =     44227260
	Batch   5 pq = [   18810,   21115] index = [     176917455,222932170] size =     46014715
  Task number: 21
  Buffer size: 11059200
  Buffer per thread: 2
  We computed 10606853 shell quartets total.
  Whereas there are 12253725 unique shell quartets.

  ==> DiskJK: Disk-Based J/K Matrices <==

    J tasked:                  Yes
    K tasked:                  Yes
    wK tasked:                  No
    Memory [MiB]:              375
    Schwarz Cutoff:          1E-12

    OpenMP threads:              1

  Minimum eigenvalue in the overlap matrix is 3.3238078352E-03.
  Using Symmetric Orthogonalization.

  SCF Guess: Superposition of Atomic Densities via on-the-fly atomic UHF.

  ==> Iterations <==

                        Total Energy        Delta E     RMS |[F,P]|

   @RHF iter SAD:  -508.78019247053714   -5.08780e+02   0.00000e+00
   @RHF iter   1:  -509.69215487357968   -9.11962e-01   3.92579e-03 DIIS
   @RHF iter   2:  -509.95363276605093   -2.61478e-01   2.01897e-03 DIIS
   @RHF iter   3:  -510.01684235308454   -6.32096e-02   3.72168e-04 DIIS
   @RHF iter   4:  -510.02057212069889   -3.72977e-03   1.30214e-04 DIIS
   @RHF iter   5:  -510.02101143174582   -4.39311e-04   2.42039e-05 DIIS
   @RHF iter   6:  -510.02103186944072   -2.04377e-05   1.07063e-05 DIIS
   @RHF iter   7:  -510.02103455530175   -2.68586e-06   2.77578e-06 DIIS
   @RHF iter   8:  -510.02103484456575   -2.89264e-07   1.06260e-06 DIIS
   @RHF iter   9:  -510.02103488279965   -3.82339e-08   3.31065e-07 DIIS
   @RHF iter  10:  -510.02103488846262   -5.66297e-09   1.23544e-07 DIIS
   @RHF iter  11:  -510.02103488942288   -9.60256e-10   4.41421e-08 DIIS
   @RHF iter  12:  -510.02103488954577   -1.22895e-10   1.73341e-08 DIIS
   @RHF iter  13:  -510.02103488956635   -2.05773e-11   5.03275e-09 DIIS
   @RHF iter  14:  -510.02103488956709   -7.38964e-13   1.00945e-09 DIIS
   @RHF iter  15:  -510.02103488956482    2.27374e-12   3.40738e-10 DIIS
   @RHF iter  16:  -510.02103488956675   -1.93268e-12   1.19038e-10 DIIS
   @RHF iter  17:  -510.02103488956783   -1.08002e-12   4.66415e-11 DIIS
  Energy and wave function converged.

  ==> Post-Iterations <==

    Orbital Energies [Eh]
    ---------------------

    Doubly Occupied:

       1A    -20.416101     2A    -20.401262     3A    -15.656766
       4A    -15.640125     5A    -15.614971     6A    -11.437977
       7A    -11.276101     8A    -11.255541     9A    -11.246569
      10A    -11.164839    11A     -1.403006    12A     -1.301278
      13A     -1.264232    14A     -1.234357    15A     -1.183710
      16A     -1.050278    17A     -0.916992    18A     -0.912804
      19A     -0.871428    20A     -0.826109    21A     -0.794463
      22A     -0.717077    23A     -0.694438    24A     -0.682968
      25A     -0.651132    26A     -0.632663    27A     -0.626196
      28A     -0.561156    29A     -0.545469    30A     -0.539214
      31A     -0.537106    32A     -0.531725    33A     -0.519555
      34A     -0.471593    35A     -0.463936    36A     -0.441163
      37A     -0.432368    38A     -0.330923    39A     -0.316527
      40A     -0.309928

    Virtual:

      41A      0.110487    42A      0.149125    43A      0.169830
      44A      0.176145    45A      0.196140    46A      0.221349
      47A      0.238835    48A      0.242208    49A      0.263542
      50A      0.270864    51A      0.292728    52A      0.308417
      53A      0.332966    54A      0.342592    55A      0.365503
      56A      0.387759    57A      0.399863    58A      0.440137
      59A      0.458045    60A      0.487927    61A      0.502532
      62A      0.564867    63A      0.580205    64A      0.608084
      65A      0.612224    66A      0.640543    67A      0.645512
      68A      0.662766    69A      0.680953    70A      0.685898
      71A      0.697288    72A      0.719834    73A      0.731554
      74A      0.745247    75A      0.751010    76A      0.825761
      77A      0.848351    78A      0.856690    79A      0.868823
      80A      0.869350    81A      0.874143    82A      0.893472
      83A      0.894418    84A      0.906097    85A      0.916841
      86A      0.922524    87A      0.924959    88A      0.935334
      89A      0.939489    90A      0.959158    91A      0.985501
      92A      1.002551    93A      1.016144    94A      1.018967
      95A      1.029784    96A      1.062666    97A      1.092323
      98A      1.112517    99A      1.139023   100A      1.158556
     101A      1.193949   102A      1.227531   103A      1.229735
     104A      1.250210   105A      1.260978   106A      1.274892
     107A      1.323973   108A      1.344829   109A      1.351451
     110A      1.385801   111A      1.397374   112A      1.413942
     113A      1.458043   114A      1.461728   115A      1.494481
     116A      1.515043   117A      1.531510   118A      1.544931
     119A      1.577635   120A      1.607519   121A      1.621203
     122A      1.650615   123A      1.669589   124A      1.689863
     125A      1.697818   126A      1.712191   127A      1.721626
     128A      1.729638   129A      1.741033   130A      1.796884
     131A      1.810119   132A      1.847592   133A      1.859103
     134A      1.864391   135A      1.897880   136A      1.901001
     137A      1.914763   138A      1.946141   139A      1.953362
     140A      1.960848   141A      1.966168   142A      1.974722
     143A      1.977594   144A      1.988788   145A      2.031157
     146A      2.038534   147A      2.056599   148A      2.088101
     149A      2.113031   150A      2.122162   151A      2.147018
     152A      2.160861   153A      2.173543   154A      2.199308
     155A      2.233344   156A      2.262848   157A      2.272532
     158A      2.306494   159A      2.343647   160A      2.372214
     161A      2.384884   162A      2.390287   163A      2.415661
     164A      2.433693   165A      2.456659   166A      2.481953
     167A      2.492331   168A      2.512183   169A      2.546478
     170A      2.560760   171A      2.590949   172A      2.606960
     173A      2.618466   174A      2.636574   175A      2.665697
     176A      2.737195   177A      2.759106   178A      2.773505
     179A      2.774031   180A      2.806928   181A      2.831555
     182A      2.860011   183A      2.869230   184A      2.886152
     185A      2.909687   186A      2.955483   187A      2.988900
     188A      3.032750   189A      3.036174   190A      3.051351
     191A      3.093006   192A      3.126986   193A      3.167035
     194A      3.223060   195A      3.237363   196A      3.270970
     197A      3.327893   198A      3.501240   199A      3.637124
     200A      3.700924   201A      3.734045   202A      3.822862
     203A      3.936835   204A      3.948667   205A      4.080669

    Final Occupation by Irrep:
              A
    DOCC [    40 ]

  @RHF Final Energy:  -510.02103488956783

   => Energetics <=

    Nuclear Repulsion Energy =            558.2687659379752176
    One-Electron Energy =               -1804.8315112767643313
    Two-Electron Energy =                 736.5417104492214548
    Total Energy =                       -510.0210348895677726

Computation Completed

Properties will be evaluated at   0.000000,   0.000000,   0.000000 [a0]

Properties computed using the SCF density matrix

  Nuclear Dipole Moment: [e a0]
     X:    -3.9229      Y:     7.3024      Z:     0.2781

  Electronic Dipole Moment: [e a0]
     X:     3.7898      Y:    -5.6196      Z:     4.7987

  Dipole Moment: [e a0]
     X:    -0.1331      Y:     1.6828      Z:     5.0768     Total:     5.3501

  Dipole Moment: [D]
     X:    -0.3383      Y:     4.2773      Z:    12.9040     Total:    13.5986

*** tstop() called on ds3 at Tue Apr 28 00:44:28 2020
Module time:
	user time   =      79.91 seconds =       1.33 minutes
	system time =      35.98 seconds =       0.60 minutes
	total time  =        111 seconds =       1.85 minutes
Total time:
	user time   =      79.91 seconds =       1.33 minutes
	system time =      35.98 seconds =       0.60 minutes
	total time  =        111 seconds =       1.85 minutes
                                     G D M A

                                 by Anthony Stone

                           version 2.2.06, 22 June 2011

               Distributed Multipoles from Gaussian wavefunctions

Starting at 0:44:29 on 28 Apr 2020

Using SCF density matrix from file ./SSI/SSI-026GLU-059ARG-1-dimer.test.11367.fchk

                         Distributed Multipole Analysis

Standard DMA

Positions and radii in angstrom
Multipole moments in atomic units, ea_0^k for rank k

C          x =  0.046314  y = -0.213077  z = -3.546073 angstrom
           Maximum rank =  0   Radius =  0.650 angstrom
                   Q00  =  -0.254850

C          x =  0.264314  y = -0.805077  z = -2.165073 angstrom
           Maximum rank =  0   Radius =  0.650 angstrom
                   Q00  =   0.857566

O          x = -0.621686  y = -1.549077  z = -1.678073 angstrom
           Maximum rank =  0   Radius =  0.650 angstrom
                   Q00  =  -0.897464

O          x =  1.326314  y = -0.538077  z = -1.573073 angstrom
           Maximum rank =  0   Radius =  0.650 angstrom
                   Q00  =  -0.902270

H          x =  0.679314  y =  0.666923  z = -3.670073 angstrom
           Maximum rank =  0   Radius =  0.325 angstrom
                   Q00  =   0.069517

H          x = -0.990686  y =  0.110923  z = -3.645073 angstrom
           Maximum rank =  0   Radius =  0.325 angstrom
                   Q00  =   0.073118

H          x =  0.274244  y = -0.944337  z = -4.335572 angstrom
           Maximum rank =  0   Radius =  0.325 angstrom
                   Q00  =   0.110433

C          x = -0.767686  y =  1.157923  z =  0.320927 angstrom
           Maximum rank =  0   Radius =  0.650 angstrom
                   Q00  =   0.057054

C          x = -1.690686  y =  2.348923  z =  0.131927 angstrom
           Maximum rank =  0   Radius =  0.650 angstrom
                   Q00  =  -0.218288

C          x =  0.352314  y = -0.079077  z =  2.117927 angstrom
           Maximum rank =  0   Radius =  0.650 angstrom
                   Q00  =   1.079987

N          x = -0.411686  y =  0.921923  z =  1.714927 angstrom
           Maximum rank =  0   Radius =  0.650 angstrom
                   Q00  =  -0.494667

N          x =  0.873314  y = -0.935077  z =  1.265927 angstrom
           Maximum rank =  0   Radius =  0.650 angstrom
                   Q00  =  -0.572671

N          x =  0.573314  y = -0.229077  z =  3.399927 angstrom
           Maximum rank =  0   Radius =  0.650 angstrom
                   Q00  =  -0.593497

H          x = -1.274686  y =  0.276923  z = -0.072073 angstrom
           Maximum rank =  0   Radius =  0.325 angstrom
                   Q00  =   0.091779

H          x =  0.139314  y =  1.320923  z = -0.262073 angstrom
           Maximum rank =  0   Radius =  0.325 angstrom
                   Q00  =   0.083975

H          x = -1.189686  y =  3.233923  z =  0.519927 angstrom
           Maximum rank =  0   Radius =  0.325 angstrom
                   Q00  =   0.070188

H          x = -2.615686  y =  2.194923  z =  0.688927 angstrom
           Maximum rank =  0   Radius =  0.325 angstrom
                   Q00  =   0.078159

H          x = -0.805686  y =  1.538923  z =  2.429927 angstrom
           Maximum rank =  0   Radius =  0.325 angstrom
                   Q00  =   0.196559

H          x =  0.816314  y = -0.760077  z =  0.258927 angstrom
           Maximum rank =  0   Radius =  0.325 angstrom
                   Q00  =   0.306554

H          x =  1.412314  y = -1.735077  z =  1.574927 angstrom
           Maximum rank =  0   Radius =  0.325 angstrom
                   Q00  =   0.242135

H          x =  0.149314  y =  0.421923  z =  4.045927 angstrom
           Maximum rank =  0   Radius =  0.325 angstrom
                   Q00  =   0.234730

H          x =  1.141314  y = -0.991077  z =  3.736927 angstrom
           Maximum rank =  0   Radius =  0.325 angstrom
                   Q00  =   0.248641

H          x = -1.920626  y =  2.464623  z = -0.937533 angstrom
           Maximum rank =  0   Radius =  0.325 angstrom
                   Q00  =   0.133314

Total multipoles referred to origin at
           x =   0.000000,  y =    0.000000,  z =    0.000000 angstrom
                   Q00  =  -0.000000

Finished at 0:44:29 on 28 Apr 2020

  DMA results are available in the Python driver through the
	  variable('DMA DISTRIBUTED MULTIPOLES')
  and
	  variable('DMA TOTAL MULTIPOLES')
  commands.

    Psi4 stopped on: Tuesday, 28 April 2020 12:44AM
    Psi4 wall time for execution: 0:01:51.94

*** Psi4 exiting successfully. Buy a developer a beer!
