                               Psi4 1.3.2 release

  ==> Input File <==

--------------------------------------------------------------------------
import numpy as np
set {scf_type pk
basis cc-pvdz
d_convergence 10
gdma_switch   0
gdma_limit    0
gdma_origin   [ 0.0,  0.0,  0.0 ]
}
molecule test {
    units Angstrom
    -1 1
    --
    -1 1
    C                0.791286360763591     1.838887745036920    -0.900279959812328
    C                0.899286360763591     2.115887745036920     0.597720040187672
    C                1.748286360763591     0.757887745036920    -1.368279959812327
    O                2.583286360763591     0.292887745036920    -0.558279959812327
    O                1.664286360763591     0.385887745036920    -2.558279959812328
    H               -0.227713639236409     1.524887745036920    -1.121279959812328
    H                0.992286360763591     2.753887745036920    -1.460279959812327
    H                0.656286360763591     1.185887745036920     1.099720040187673
    H                0.174546360763591     2.894922745036920     0.876755040187672
    H                1.912196360763591     2.453286745036920     0.862614040187672
    C               -3.034713639236409    -0.752112254963080    -0.595279959812328
    C               -0.670713639236409    -1.496112254963080     0.170720040187672
    C               -1.871713639236409    -0.884112254963080     0.341720040187672
    C               -0.762713639236409    -0.737112254963080     2.236720040187672
    N                0.003286360763591    -1.391112254963080     1.368720040187672
    N               -1.906713639236409    -0.415112254963080     1.639720040187673
    H               -0.328713639236409    -1.995112254963080    -0.727279959812328
    H                0.924286360763591    -1.767112254963080     1.569720040187673
    H               -3.917713639236409    -0.485112254963080    -0.020279959812328
    H               -3.206713639236409    -1.743112254963080    -1.019279959812327
    H               -0.501713639236409    -0.509112254963080     3.263720040187672
    H               -2.900553639236409    -0.029662254963080    -1.413859959812328

}
e, wfn = energy('scf', return_wfn=True)
gdma(wfn)
dmavals = variable('DMA DISTRIBUTED MULTIPOLES')
charges = np.array(dmavals)
print(charges)
np.save('SSI-017ASP-060HIE-1-dimer.npy', np.array(charges))--------------------------------------------------------------------------

*** tstart() called on ds3
*** at Mon Apr 27 16:45:30 2020

   => Loading Basis Set <=

    Name: CC-PVDZ
    Role: ORBITAL
    Keyword: BASIS
    atoms 1-3, 11-14  entry C          line   138 file /theoryfs2/ds/metcalf/miniconda2/envs/tf2gpu/share/psi4/basis/cc-pvdz.gbs
    atoms 4-5         entry O          line   198 file /theoryfs2/ds/metcalf/miniconda2/envs/tf2gpu/share/psi4/basis/cc-pvdz.gbs
    atoms 6-10, 17-22 entry H          line    22 file /theoryfs2/ds/metcalf/miniconda2/envs/tf2gpu/share/psi4/basis/cc-pvdz.gbs
    atoms 15-16       entry N          line   168 file /theoryfs2/ds/metcalf/miniconda2/envs/tf2gpu/share/psi4/basis/cc-pvdz.gbs

         ---------------------------------------------------------
                                   SCF
               by Justin Turney, Rob Parrish, Andy Simmonett
                          and Daniel G. A. Smith
                              RHF Reference
                        1 Threads,    500 MiB Core
         ---------------------------------------------------------

  ==> Geometry <==

    Molecular point group: c1
    Full point group: C1

    Geometry (in Angstrom), charge = -1, multiplicity = 1:

       Center              X                  Y                   Z               Mass
    ------------   -----------------  -----------------  -----------------  -----------------
         C            0.791286360764     1.838887745037    -0.900279959812    12.000000000000
         C            0.899286360764     2.115887745037     0.597720040188    12.000000000000
         C            1.748286360764     0.757887745037    -1.368279959812    12.000000000000
         O            2.583286360764     0.292887745037    -0.558279959812    15.994914619570
         O            1.664286360764     0.385887745037    -2.558279959812    15.994914619570
         H           -0.227713639236     1.524887745037    -1.121279959812     1.007825032230
         H            0.992286360764     2.753887745037    -1.460279959812     1.007825032230
         H            0.656286360764     1.185887745037     1.099720040188     1.007825032230
         H            0.174546360764     2.894922745037     0.876755040188     1.007825032230
         H            1.912196360764     2.453286745037     0.862614040188     1.007825032230
         C           -3.034713639236    -0.752112254963    -0.595279959812    12.000000000000
         C           -0.670713639236    -1.496112254963     0.170720040188    12.000000000000
         C           -1.871713639236    -0.884112254963     0.341720040188    12.000000000000
         C           -0.762713639236    -0.737112254963     2.236720040188    12.000000000000
         N            0.003286360764    -1.391112254963     1.368720040188    14.003074004430
         N           -1.906713639236    -0.415112254963     1.639720040188    14.003074004430
         H           -0.328713639236    -1.995112254963    -0.727279959812     1.007825032230
         H            0.924286360764    -1.767112254963     1.569720040188     1.007825032230
         H           -3.917713639236    -0.485112254963    -0.020279959812     1.007825032230
         H           -3.206713639236    -1.743112254963    -1.019279959812     1.007825032230
         H           -0.501713639236    -0.509112254963     3.263720040188     1.007825032230
         H           -2.900553639236    -0.029662254963    -1.413859959812     1.007825032230

  Running in c1 symmetry.

  Rotational constants: A =      0.05118  B =      0.02153  C =      0.01983 [cm^-1]
  Rotational constants: A =   1534.36211  B =    645.34657  C =    594.62664 [MHz]
  Nuclear repulsion =  601.021188121790715

  Charge       = -1
  Multiplicity = 1
  Electrons    = 84
  Nalpha       = 42
  Nbeta        = 42

  ==> Algorithm <==

  SCF Algorithm Type is PK.
  DIIS enabled.
  MOM disabled.
  Fractional occupation disabled.
  Guess Type is SAD.
  Energy threshold   = 1.00e-06
  Density threshold  = 1.00e-10
  Integral threshold = 0.00e+00

  ==> Primary Basis <==

  Basis Set: CC-PVDZ
    Blend: CC-PVDZ
    Number of shells: 99
    Number of basis function: 209
    Number of Cartesian functions: 220
    Spherical Harmonics?: true
    Max angular momentum: 2

  ==> Pre-Iterations <==

   -------------------------------------------------------
    Irrep   Nso     Nmo     Nalpha   Nbeta   Ndocc  Nsocc
   -------------------------------------------------------
     A        209     209       0       0       0       0
   -------------------------------------------------------
    Total     209     209      42      42      42       0
   -------------------------------------------------------

  ==> Integral Setup <==

  Using integral reordering PK algorithm.
  Sizing the integral batches needed.
  Building batch lookup table.
   Calculation information:
      Number of atoms:                  22
      Number of AO shells:              99
      Number of primitives:            297
      Number of atomic orbitals:       220
      Number of basis functions:       209

      Integral cutoff                 1.00e-12
      Number of threads:                 1

	Batch   1 pq = [       0,    9405] index = [             0,44231715] size =     44231715
	Batch   2 pq = [    9405,   13301] index = [      44231715,88464951] size =     44233236
	Batch   3 pq = [   13301,   16290] index = [      88464951,132690195] size =     44225244
	Batch   4 pq = [   16290,   18810] index = [     132690195,176917455] size =     44227260
	Batch   5 pq = [   18810,   21030] index = [     176917455,221140965] size =     44223510
	Batch   6 pq = [   21030,   21945] index = [     221140965,240802485] size =     19661520
  Task number: 22
  Buffer size: 11059200
  Buffer per thread: 2
  We computed 12279100 shell quartets total.
  Whereas there are 12253725 unique shell quartets.
     0.21 percent of shell quartets recomputed by reordering.

  ==> DiskJK: Disk-Based J/K Matrices <==

    J tasked:                  Yes
    K tasked:                  Yes
    wK tasked:                  No
    Memory [MiB]:              375
    Schwarz Cutoff:          1E-12

    OpenMP threads:              1

  Minimum eigenvalue in the overlap matrix is 1.1657259921E-03.
  Using Symmetric Orthogonalization.

  SCF Guess: Superposition of Atomic Densities via on-the-fly atomic UHF.

  ==> Iterations <==

                        Total Energy        Delta E     RMS |[F,P]|

   @RHF iter SAD:  -528.73815938094094   -5.28738e+02   0.00000e+00
   @RHF iter   1:  -529.81195060288394   -1.07379e+00   3.86196e-03 DIIS
   @RHF iter   2:  -530.07212500054914   -2.60174e-01   2.15564e-03 DIIS
   @RHF iter   3:  -530.15004899720998   -7.79240e-02   3.69885e-04 DIIS
   @RHF iter   4:  -530.15391142998283   -3.86243e-03   1.55312e-04 DIIS
   @RHF iter   5:  -530.15455715321195   -6.45723e-04   3.08278e-05 DIIS
   @RHF iter   6:  -530.15459089347712   -3.37403e-05   1.48558e-05 DIIS
   @RHF iter   7:  -530.15459823613378   -7.34266e-06   4.18631e-06 DIIS
   @RHF iter   8:  -530.15459966426886   -1.42814e-06   2.07972e-06 DIIS
   @RHF iter   9:  -530.15460001131964   -3.47051e-07   8.01463e-07 DIIS
   @RHF iter  10:  -530.15460006949047   -5.81708e-08   2.66615e-07 DIIS
   @RHF iter  11:  -530.15460007361742   -4.12695e-09   9.66986e-08 DIIS
   @RHF iter  12:  -530.15460007410491   -4.87489e-10   4.03842e-08 DIIS
   @RHF iter  13:  -530.15460007419381   -8.89031e-11   1.64735e-08 DIIS
   @RHF iter  14:  -530.15460007420495   -1.11413e-11   5.01194e-09 DIIS
   @RHF iter  15:  -530.15460007420700   -2.04636e-12   2.17367e-09 DIIS
   @RHF iter  16:  -530.15460007421052   -3.52429e-12   9.14126e-10 DIIS
   @RHF iter  17:  -530.15460007420825    2.27374e-12   3.59205e-10 DIIS
   @RHF iter  18:  -530.15460007420813    1.13687e-13   1.10625e-10 DIIS
   @RHF iter  19:  -530.15460007420722    9.09495e-13   4.79682e-11 DIIS
  Energy and wave function converged.

  ==> Post-Iterations <==

    Orbital Energies [Eh]
    ---------------------

    Doubly Occupied:

       1A    -20.262789     2A    -20.254858     3A    -15.508974
       4A    -15.423742     5A    -11.184685     6A    -11.139297
       7A    -11.132262     8A    -11.126589     9A    -11.112055
      10A    -11.061018    11A    -11.046222    12A     -1.229959
      13A     -1.149069    14A     -1.043812    15A     -1.035984
      16A     -0.924603    17A     -0.864160    18A     -0.837492
      19A     -0.707431    20A     -0.693806    21A     -0.651336
      22A     -0.632582    23A     -0.504698    24A     -0.503329
      25A     -0.498197    26A     -0.484457    27A     -0.457170
      28A     -0.447311    29A     -0.437886    30A     -0.428641
      31A     -0.419294    32A     -0.386146    33A     -0.354976
      34A     -0.350964    35A     -0.319990    36A     -0.307337
      37A     -0.297646    38A     -0.270331    39A     -0.197880
      40A     -0.181924    41A     -0.170807    42A     -0.161332

    Virtual:

      43A      0.289397    44A      0.293096    45A      0.296066
      46A      0.327364    47A      0.330800    48A      0.347528
      49A      0.358153    50A      0.367068    51A      0.379382
      52A      0.397377    53A      0.406936    54A      0.444812
      55A      0.448865    56A      0.480932    57A      0.496740
      58A      0.512169    59A      0.527462    60A      0.557602
      61A      0.593449    62A      0.611731    63A      0.624601
      64A      0.682824    65A      0.714198    66A      0.717495
      67A      0.738610    68A      0.754388    69A      0.767239
      70A      0.774285    71A      0.784960    72A      0.829096
      73A      0.839392    74A      0.842969    75A      0.870635
      76A      0.912247    77A      0.926207    78A      0.944480
      79A      0.954901    80A      0.964730    81A      0.969330
      82A      0.979249    83A      0.986982    84A      1.007991
      85A      1.013685    86A      1.024942    87A      1.032986
      88A      1.041323    89A      1.048923    90A      1.066141
      91A      1.070590    92A      1.074807    93A      1.087707
      94A      1.093205    95A      1.118124    96A      1.136439
      97A      1.153282    98A      1.160682    99A      1.195878
     100A      1.202275   101A      1.231108   102A      1.265214
     103A      1.269918   104A      1.286881   105A      1.309544
     106A      1.323906   107A      1.336910   108A      1.360778
     109A      1.386517   110A      1.394469   111A      1.408193
     112A      1.437789   113A      1.456659   114A      1.491257
     115A      1.526764   116A      1.531259   117A      1.550459
     118A      1.557895   119A      1.587717   120A      1.611462
     121A      1.629857   122A      1.642683   123A      1.653368
     124A      1.671455   125A      1.690801   126A      1.715765
     127A      1.737620   128A      1.779571   129A      1.786777
     130A      1.824641   131A      1.837671   132A      1.871000
     133A      1.875568   134A      1.879868   135A      1.915793
     136A      1.953328   137A      1.957717   138A      1.993145
     139A      2.002490   140A      2.008003   141A      2.027800
     142A      2.033690   143A      2.051506   144A      2.059424
     145A      2.071698   146A      2.091958   147A      2.121180
     148A      2.129308   149A      2.139878   150A      2.153289
     151A      2.171319   152A      2.182812   153A      2.197806
     154A      2.202582   155A      2.215150   156A      2.238918
     157A      2.254609   158A      2.269447   159A      2.317507
     160A      2.345669   161A      2.364247   162A      2.379977
     163A      2.403781   164A      2.429195   165A      2.461634
     166A      2.472218   167A      2.512808   168A      2.522412
     169A      2.530923   170A      2.552820   171A      2.567128
     172A      2.592417   173A      2.643949   174A      2.672149
     175A      2.695789   176A      2.716844   177A      2.739485
     178A      2.777937   179A      2.794505   180A      2.803460
     181A      2.837729   182A      2.868809   183A      2.893933
     184A      2.899911   185A      2.933828   186A      2.942338
     187A      2.970238   188A      3.002222   189A      3.005211
     190A      3.018231   191A      3.058277   192A      3.080021
     193A      3.114969   194A      3.142652   195A      3.182103
     196A      3.243592   197A      3.261125   198A      3.292027
     199A      3.307590   200A      3.333536   201A      3.365868
     202A      3.574797   203A      3.640967   204A      3.792768
     205A      3.833807   206A      3.916523   207A      4.058643
     208A      4.083423   209A      4.210413

    Final Occupation by Irrep:
              A
    DOCC [    42 ]

  @RHF Final Energy:  -530.15460007420722

   => Energetics <=

    Nuclear Repulsion Energy =            601.0211881217907148
    One-Electron Energy =               -1929.9454936095075936
    Two-Electron Energy =                 798.7697054135097687
    Total Energy =                       -530.1546000742072238

Computation Completed

Properties will be evaluated at   0.000000,   0.000000,   0.000000 [a0]

Properties computed using the SCF density matrix

  Nuclear Dipole Moment: [e a0]
     X:    -5.9959      Y:     4.0243      Z:     1.7671

  Electronic Dipole Moment: [e a0]
     X:     3.4410      Y:    -5.2634      Z:     0.7515

  Dipole Moment: [e a0]
     X:    -2.5549      Y:    -1.2392      Z:     2.5186     Total:     3.7956

  Dipole Moment: [D]
     X:    -6.4940      Y:    -3.1496      Z:     6.4017     Total:     9.6475

*** tstop() called on ds3 at Mon Apr 27 16:47:57 2020
Module time:
	user time   =     105.36 seconds =       1.76 minutes
	system time =      47.80 seconds =       0.80 minutes
	total time  =        147 seconds =       2.45 minutes
Total time:
	user time   =     105.36 seconds =       1.76 minutes
	system time =      47.80 seconds =       0.80 minutes
	total time  =        147 seconds =       2.45 minutes
                                     G D M A

                                 by Anthony Stone

                           version 2.2.06, 22 June 2011

               Distributed Multipoles from Gaussian wavefunctions

Starting at 16:47:57 on 27 Apr 2020

Using SCF density matrix from file ./SSI/SSI-017ASP-060HIE-1-dimer.test.27950.fchk

                         Distributed Multipole Analysis

Standard DMA

Positions and radii in angstrom
Multipole moments in atomic units, ea_0^k for rank k

C          x =  0.791286  y =  1.838888  z = -0.900280 angstrom
           Maximum rank =  0   Radius =  0.650 angstrom
                   Q00  =  -0.157128

C          x =  0.899286  y =  2.115888  z =  0.597720 angstrom
           Maximum rank =  0   Radius =  0.650 angstrom
                   Q00  =  -0.224589

C          x =  1.748286  y =  0.757888  z = -1.368280 angstrom
           Maximum rank =  0   Radius =  0.650 angstrom
                   Q00  =   1.027128

O          x =  2.583286  y =  0.292888  z = -0.558280 angstrom
           Maximum rank =  0   Radius =  0.650 angstrom
                   Q00  =  -0.978397

O          x =  1.664286  y =  0.385888  z = -2.558280 angstrom
           Maximum rank =  0   Radius =  0.650 angstrom
                   Q00  =  -0.943564

H          x = -0.227714  y =  1.524888  z = -1.121280 angstrom
           Maximum rank =  0   Radius =  0.325 angstrom
                   Q00  =   0.051057

H          x =  0.992286  y =  2.753888  z = -1.460280 angstrom
           Maximum rank =  0   Radius =  0.325 angstrom
                   Q00  =   0.044700

H          x =  0.656286  y =  1.185888  z =  1.099720 angstrom
           Maximum rank =  0   Radius =  0.325 angstrom
                   Q00  =   0.080309

H          x =  0.174546  y =  2.894923  z =  0.876755 angstrom
           Maximum rank =  0   Radius =  0.325 angstrom
                   Q00  =   0.018356

H          x =  1.912196  y =  2.453287  z =  0.862614 angstrom
           Maximum rank =  0   Radius =  0.325 angstrom
                   Q00  =   0.073843

C          x = -3.034714  y = -0.752112  z = -0.595280 angstrom
           Maximum rank =  0   Radius =  0.650 angstrom
                   Q00  =  -0.200244

C          x = -0.670714  y = -1.496112  z =  0.170720 angstrom
           Maximum rank =  0   Radius =  0.650 angstrom
                   Q00  =   0.044063

C          x = -1.871714  y = -0.884112  z =  0.341720 angstrom
           Maximum rank =  0   Radius =  0.650 angstrom
                   Q00  =   0.201109

C          x = -0.762714  y = -0.737112  z =  2.236720 angstrom
           Maximum rank =  0   Radius =  0.650 angstrom
                   Q00  =   0.456222

N          x =  0.003286  y = -1.391112  z =  1.368720 angstrom
           Maximum rank =  0   Radius =  0.650 angstrom
                   Q00  =  -0.462319

N          x = -1.906714  y = -0.415112  z =  1.639720 angstrom
           Maximum rank =  0   Radius =  0.650 angstrom
                   Q00  =  -0.767095

H          x = -0.328714  y = -1.995112  z = -0.727280 angstrom
           Maximum rank =  0   Radius =  0.325 angstrom
                   Q00  =   0.107531

H          x =  0.924286  y = -1.767112  z =  1.569720 angstrom
           Maximum rank =  0   Radius =  0.325 angstrom
                   Q00  =   0.231853

H          x = -3.917714  y = -0.485112  z = -0.020280 angstrom
           Maximum rank =  0   Radius =  0.325 angstrom
                   Q00  =   0.100374

H          x = -3.206714  y = -1.743112  z = -1.019280 angstrom
           Maximum rank =  0   Radius =  0.325 angstrom
                   Q00  =   0.082018

H          x = -0.501714  y = -0.509112  z =  3.263720 angstrom
           Maximum rank =  0   Radius =  0.325 angstrom
                   Q00  =   0.107357

H          x = -2.900554  y = -0.029662  z = -1.413860 angstrom
           Maximum rank =  0   Radius =  0.325 angstrom
                   Q00  =   0.107416

Total multipoles referred to origin at
           x =   0.000000,  y =    0.000000,  z =    0.000000 angstrom
                   Q00  =  -1.000000

Finished at 16:47:57 on 27 Apr 2020

  DMA results are available in the Python driver through the
	  variable('DMA DISTRIBUTED MULTIPOLES')
  and
	  variable('DMA TOTAL MULTIPOLES')
  commands.

    Psi4 stopped on: Monday, 27 April 2020 04:47PM
    Psi4 wall time for execution: 0:02:27.39

*** Psi4 exiting successfully. Buy a developer a beer!
