                               Psi4 1.3.2 release

  ==> Input File <==

--------------------------------------------------------------------------
import numpy as np
set {scf_type pk
basis cc-pvdz
d_convergence 10
gdma_switch   0
gdma_limit    0
gdma_origin   [ 0.0,  0.0,  0.0 ]
}
molecule test {
    units Angstrom
    0 1
    --
    0 1
    C               -0.549029436599095     1.789199510826351    -0.153117354375682
    C                0.328970563400905     3.011199510826351    -0.380117354375682
    C               -1.448029436599095     1.521199510826351    -1.357117354375682
    H                0.125970563400905     0.944199510826351    -0.030117354375682
    H               -1.145029436599095     1.910199510826351     0.752882645624318
    H                0.834970563400905     2.907199510826351    -1.339117354375682
    H                1.082970563400905     3.052199510826350     0.405882645624318
    H               -2.160029436599095     2.345199510826351    -1.471117354375682
    H               -0.825029436599095     1.500199510826351    -2.260117354375682
    H               -0.255019436599095     3.942709510826351    -0.344787354375682
    H               -1.978149436599095     0.562849510826351    -1.254487354375682
    C                0.238970563400905    -1.750800489173649     1.031882645624318
    C                1.648970563400905    -2.322800489173649     1.190882645624318
    O               -0.235029436599095    -1.930800489173649    -0.292117354375682
    H               -0.432029436599095    -2.263800489173649     1.722882645624318
    H                0.243970563400905    -0.695800489173649     1.293882645624318
    H                1.601970563400904    -3.396800489173649     0.996882645624318
    H               -0.324029436599095    -2.882800489173649    -0.467117354375682
    H                2.006920563400905    -2.167990489173649     2.219422645624318
    H                2.334880563400905    -1.880880489173649     0.453152645624318

}
e, wfn = energy('scf', return_wfn=True)
gdma(wfn)
dmavals = variable('DMA DISTRIBUTED MULTIPOLES')
charges = np.array(dmavals)
print(charges)
np.save('SSI-091LYS-140SER-1-dimer.npy', np.array(charges))--------------------------------------------------------------------------

*** tstart() called on ds3
*** at Mon Apr 27 21:56:30 2020

   => Loading Basis Set <=

    Name: CC-PVDZ
    Role: ORBITAL
    Keyword: BASIS
    atoms 1-3, 12-13  entry C          line   138 file /theoryfs2/ds/metcalf/miniconda2/envs/tf2gpu/share/psi4/basis/cc-pvdz.gbs
    atoms 4-11, 15-20 entry H          line    22 file /theoryfs2/ds/metcalf/miniconda2/envs/tf2gpu/share/psi4/basis/cc-pvdz.gbs
    atoms 14          entry O          line   198 file /theoryfs2/ds/metcalf/miniconda2/envs/tf2gpu/share/psi4/basis/cc-pvdz.gbs

         ---------------------------------------------------------
                                   SCF
               by Justin Turney, Rob Parrish, Andy Simmonett
                          and Daniel G. A. Smith
                              RHF Reference
                        1 Threads,    500 MiB Core
         ---------------------------------------------------------

  ==> Geometry <==

    Molecular point group: c1
    Full point group: C1

    Geometry (in Angstrom), charge = 0, multiplicity = 1:

       Center              X                  Y                   Z               Mass
    ------------   -----------------  -----------------  -----------------  -----------------
         C           -0.549029436599     1.789199510826    -0.153117354376    12.000000000000
         C            0.328970563401     3.011199510826    -0.380117354376    12.000000000000
         C           -1.448029436599     1.521199510826    -1.357117354376    12.000000000000
         H            0.125970563401     0.944199510826    -0.030117354376     1.007825032230
         H           -1.145029436599     1.910199510826     0.752882645624     1.007825032230
         H            0.834970563401     2.907199510826    -1.339117354376     1.007825032230
         H            1.082970563401     3.052199510826     0.405882645624     1.007825032230
         H           -2.160029436599     2.345199510826    -1.471117354376     1.007825032230
         H           -0.825029436599     1.500199510826    -2.260117354376     1.007825032230
         H           -0.255019436599     3.942709510826    -0.344787354376     1.007825032230
         H           -1.978149436599     0.562849510826    -1.254487354376     1.007825032230
         C            0.238970563401    -1.750800489174     1.031882645624    12.000000000000
         C            1.648970563401    -2.322800489174     1.190882645624    12.000000000000
         O           -0.235029436599    -1.930800489174    -0.292117354376    15.994914619570
         H           -0.432029436599    -2.263800489174     1.722882645624     1.007825032230
         H            0.243970563401    -0.695800489174     1.293882645624     1.007825032230
         H            1.601970563401    -3.396800489174     0.996882645624     1.007825032230
         H           -0.324029436599    -2.882800489174    -0.467117354376     1.007825032230
         H            2.006920563401    -2.167990489174     2.219422645624     1.007825032230
         H            2.334880563401    -1.880880489174     0.453152645624     1.007825032230

  Running in c1 symmetry.

  Rotational constants: A =      0.15699  B =      0.03413  C =      0.02978 [cm^-1]
  Rotational constants: A =   4706.35281  B =   1023.08991  C =    892.80785 [MHz]
  Nuclear repulsion =  242.226652404651787

  Charge       = 0
  Multiplicity = 1
  Electrons    = 52
  Nalpha       = 26
  Nbeta        = 26

  ==> Algorithm <==

  SCF Algorithm Type is PK.
  DIIS enabled.
  MOM disabled.
  Fractional occupation disabled.
  Guess Type is SAD.
  Energy threshold   = 1.00e-06
  Density threshold  = 1.00e-10
  Integral threshold = 0.00e+00

  ==> Primary Basis <==

  Basis Set: CC-PVDZ
    Blend: CC-PVDZ
    Number of shells: 78
    Number of basis function: 154
    Number of Cartesian functions: 160
    Spherical Harmonics?: true
    Max angular momentum: 2

  ==> Pre-Iterations <==

   -------------------------------------------------------
    Irrep   Nso     Nmo     Nalpha   Nbeta   Ndocc  Nsocc
   -------------------------------------------------------
     A        154     154       0       0       0       0
   -------------------------------------------------------
    Total     154     154      26      26      26       0
   -------------------------------------------------------

  ==> Integral Setup <==

  Using integral reordering PK algorithm.
  Sizing the integral batches needed.
  Building batch lookup table.
   Calculation information:
      Number of atoms:                  20
      Number of AO shells:              78
      Number of primitives:            202
      Number of atomic orbitals:       160
      Number of basis functions:       154

      Integral cutoff                 1.00e-12
      Number of threads:                 1

	Batch   1 pq = [       0,    9405] index = [             0,44231715] size =     44231715
	Batch   2 pq = [    9405,   11935] index = [      44231715,71228080] size =     26996365
  Task number: 7
  Buffer size: 11059200
  Buffer per thread: 2
  We computed 3865072 shell quartets total.
  Whereas there are 4747821 unique shell quartets.

  ==> DiskJK: Disk-Based J/K Matrices <==

    J tasked:                  Yes
    K tasked:                  Yes
    wK tasked:                  No
    Memory [MiB]:              375
    Schwarz Cutoff:          1E-12

    OpenMP threads:              1

  Minimum eigenvalue in the overlap matrix is 5.1917598082E-03.
  Using Symmetric Orthogonalization.

  SCF Guess: Superposition of Atomic Densities via on-the-fly atomic UHF.

  ==> Iterations <==

                        Total Energy        Delta E     RMS |[F,P]|

   @RHF iter SAD:  -271.10769016417987   -2.71108e+02   0.00000e+00
   @RHF iter   1:  -272.14562211754145   -1.03793e+00   3.81632e-03 DIIS
   @RHF iter   2:  -272.32262907870233   -1.77007e-01   1.77087e-03 DIIS
   @RHF iter   3:  -272.35667122025268   -3.40421e-02   3.52333e-04 DIIS
   @RHF iter   4:  -272.35916144375904   -2.49022e-03   1.09056e-04 DIIS
   @RHF iter   5:  -272.35931569263869   -1.54249e-04   2.29054e-05 DIIS
   @RHF iter   6:  -272.35932516308583   -9.47045e-06   4.89760e-06 DIIS
   @RHF iter   7:  -272.35932570941122   -5.46325e-07   1.30321e-06 DIIS
   @RHF iter   8:  -272.35932574773705   -3.83258e-08   4.12140e-07 DIIS
   @RHF iter   9:  -272.35932575273097   -4.99392e-09   1.00152e-07 DIIS
   @RHF iter  10:  -272.35932575308686   -3.55897e-10   2.34408e-08 DIIS
   @RHF iter  11:  -272.35932575310500   -1.81331e-11   6.44468e-09 DIIS
   @RHF iter  12:  -272.35932575310579   -7.95808e-13   2.33185e-09 DIIS
   @RHF iter  13:  -272.35932575310534    4.54747e-13   6.63138e-10 DIIS
   @RHF iter  14:  -272.35932575310540   -5.68434e-14   1.73861e-10 DIIS
   @RHF iter  15:  -272.35932575310648   -1.08002e-12   6.63087e-11 DIIS
  Energy and wave function converged.

  ==> Post-Iterations <==

    Orbital Energies [Eh]
    ---------------------

    Doubly Occupied:

       1A    -20.552069     2A    -11.276196     3A    -11.225155
       4A    -11.210058     5A    -11.209115     6A    -11.205725
       7A     -1.352723     8A     -1.047888     9A     -1.008683
      10A     -0.914010    11A     -0.844052    12A     -0.787694
      13A     -0.683466    14A     -0.627683    15A     -0.618618
      16A     -0.598353    17A     -0.587507    18A     -0.542347
      19A     -0.539065    20A     -0.524293    21A     -0.521164
      22A     -0.478637    23A     -0.466347    24A     -0.459662
      25A     -0.454508    26A     -0.434851

    Virtual:

      27A      0.170568    28A      0.194096    29A      0.211282
      30A      0.224477    31A      0.241223    32A      0.244489
      33A      0.245753    34A      0.263397    35A      0.273738
      36A      0.278123    37A      0.301232    38A      0.308241
      39A      0.317802    40A      0.325196    41A      0.378235
      42A      0.392781    43A      0.413005    44A      0.436201
      45A      0.587648    46A      0.597868    47A      0.606955
      48A      0.617636    49A      0.622412    50A      0.631716
      51A      0.662754    52A      0.677134    53A      0.746314
      54A      0.779323    55A      0.803977    56A      0.809836
      57A      0.823833    58A      0.851403    59A      0.869564
      60A      0.883043    61A      0.888412    62A      0.894404
      63A      0.896364    64A      0.903894    65A      0.908040
      66A      0.913889    67A      0.920611    68A      0.921746
      69A      0.926992    70A      0.931746    71A      0.967730
      72A      0.974299    73A      1.024009    74A      1.133028
      75A      1.135243    76A      1.137461    77A      1.161146
      78A      1.196852    79A      1.240607    80A      1.287900
      81A      1.338584    82A      1.385659    83A      1.399372
      84A      1.468277    85A      1.479971    86A      1.493017
      87A      1.524283    88A      1.553335    89A      1.604780
      90A      1.635595    91A      1.641406    92A      1.676617
      93A      1.679913    94A      1.700642    95A      1.718690
      96A      1.738501    97A      1.847224    98A      1.867336
      99A      1.879354   100A      1.880305   101A      1.891530
     102A      1.899253   103A      1.921071   104A      1.933238
     105A      1.940008   106A      1.941750   107A      1.951689
     108A      1.965127   109A      1.967421   110A      1.987461
     111A      1.992510   112A      1.993770   113A      2.019876
     114A      2.029776   115A      2.055058   116A      2.071837
     117A      2.093911   118A      2.138939   119A      2.162984
     120A      2.177656   121A      2.264742   122A      2.277671
     123A      2.299492   124A      2.321238   125A      2.326464
     126A      2.347878   127A      2.363624   128A      2.420574
     129A      2.501879   130A      2.517496   131A      2.534300
     132A      2.543591   133A      2.549766   134A      2.579499
     135A      2.625785   136A      2.640484   137A      2.750499
     138A      2.765023   139A      2.775122   140A      2.776303
     141A      2.789976   142A      2.803964   143A      2.836431
     144A      2.878425   145A      2.908750   146A      2.922592
     147A      2.974472   148A      2.982084   149A      3.081358
     150A      3.312591   151A      3.397511   152A      3.472505
     153A      3.644273   154A      4.098841

    Final Occupation by Irrep:
              A
    DOCC [    26 ]

  @RHF Final Energy:  -272.35932575310648

   => Energetics <=

    Nuclear Repulsion Energy =            242.2266524046517873
    One-Electron Energy =                -848.8322198619212031
    Two-Electron Energy =                 334.2462417041629692
    Total Energy =                       -272.3593257531064751

Computation Completed

Properties will be evaluated at   0.000000,   0.000000,   0.000000 [a0]

Properties computed using the SCF density matrix

  Nuclear Dipole Moment: [e a0]
     X:     1.0417      Y:     3.6250      Z:     0.6343

  Electronic Dipole Moment: [e a0]
     X:    -0.8809      Y:    -4.2290      Z:    -0.1839

  Dipole Moment: [e a0]
     X:     0.1607      Y:    -0.6040      Z:     0.4504     Total:     0.7704

  Dipole Moment: [D]
     X:     0.4085      Y:    -1.5351      Z:     1.1448     Total:     1.9581

*** tstop() called on ds3 at Mon Apr 27 21:57:00 2020
Module time:
	user time   =      20.60 seconds =       0.34 minutes
	system time =       9.53 seconds =       0.16 minutes
	total time  =         30 seconds =       0.50 minutes
Total time:
	user time   =      20.60 seconds =       0.34 minutes
	system time =       9.53 seconds =       0.16 minutes
	total time  =         30 seconds =       0.50 minutes
                                     G D M A

                                 by Anthony Stone

                           version 2.2.06, 22 June 2011

               Distributed Multipoles from Gaussian wavefunctions

Starting at 21:57:0 on 27 Apr 2020

Using SCF density matrix from file ./SSI/SSI-091LYS-140SER-1-dimer.test.27351.fchk

                         Distributed Multipole Analysis

Standard DMA

Positions and radii in angstrom
Multipole moments in atomic units, ea_0^k for rank k

C          x = -0.549029  y =  1.789200  z = -0.153117 angstrom
           Maximum rank =  0   Radius =  0.650 angstrom
                   Q00  =  -0.082353

C          x =  0.328971  y =  3.011200  z = -0.380117 angstrom
           Maximum rank =  0   Radius =  0.650 angstrom
                   Q00  =  -0.240083

C          x = -1.448029  y =  1.521200  z = -1.357117 angstrom
           Maximum rank =  0   Radius =  0.650 angstrom
                   Q00  =  -0.227790

H          x =  0.125971  y =  0.944200  z = -0.030117 angstrom
           Maximum rank =  0   Radius =  0.325 angstrom
                   Q00  =   0.038603

H          x = -1.145029  y =  1.910200  z =  0.752883 angstrom
           Maximum rank =  0   Radius =  0.325 angstrom
                   Q00  =   0.044929

H          x =  0.834971  y =  2.907200  z = -1.339117 angstrom
           Maximum rank =  0   Radius =  0.325 angstrom
                   Q00  =   0.076332

H          x =  1.082971  y =  3.052200  z =  0.405883 angstrom
           Maximum rank =  0   Radius =  0.325 angstrom
                   Q00  =   0.076010

H          x = -2.160029  y =  2.345200  z = -1.471117 angstrom
           Maximum rank =  0   Radius =  0.325 angstrom
                   Q00  =   0.066536

H          x = -0.825029  y =  1.500200  z = -2.260117 angstrom
           Maximum rank =  0   Radius =  0.325 angstrom
                   Q00  =   0.072686

H          x = -0.255019  y =  3.942710  z = -0.344787 angstrom
           Maximum rank =  0   Radius =  0.325 angstrom
                   Q00  =   0.074510

H          x = -1.978149  y =  0.562850  z = -1.254487 angstrom
           Maximum rank =  0   Radius =  0.325 angstrom
                   Q00  =   0.093321

C          x =  0.238971  y = -1.750800  z =  1.031883 angstrom
           Maximum rank =  0   Radius =  0.650 angstrom
                   Q00  =   0.129686

C          x =  1.648971  y = -2.322800  z =  1.190883 angstrom
           Maximum rank =  0   Radius =  0.650 angstrom
                   Q00  =  -0.262486

O          x = -0.235029  y = -1.930800  z = -0.292117 angstrom
           Maximum rank =  0   Radius =  0.650 angstrom
                   Q00  =  -0.605699

H          x = -0.432029  y = -2.263800  z =  1.722883 angstrom
           Maximum rank =  0   Radius =  0.325 angstrom
                   Q00  =   0.035912

H          x =  0.243971  y = -0.695800  z =  1.293883 angstrom
           Maximum rank =  0   Radius =  0.325 angstrom
                   Q00  =   0.075394

H          x =  1.601971  y = -3.396800  z =  0.996883 angstrom
           Maximum rank =  0   Radius =  0.325 angstrom
                   Q00  =   0.071674

H          x = -0.324029  y = -2.882800  z = -0.467117 angstrom
           Maximum rank =  0   Radius =  0.325 angstrom
                   Q00  =   0.385361

H          x =  2.006921  y = -2.167990  z =  2.219423 angstrom
           Maximum rank =  0   Radius =  0.325 angstrom
                   Q00  =   0.085022

H          x =  2.334881  y = -1.880880  z =  0.453153 angstrom
           Maximum rank =  0   Radius =  0.325 angstrom
                   Q00  =   0.092435

Total multipoles referred to origin at
           x =   0.000000,  y =    0.000000,  z =    0.000000 angstrom
                   Q00  =  -0.000000

Finished at 21:57:0 on 27 Apr 2020

  DMA results are available in the Python driver through the
	  variable('DMA DISTRIBUTED MULTIPOLES')
  and
	  variable('DMA TOTAL MULTIPOLES')
  commands.

    Psi4 stopped on: Monday, 27 April 2020 09:57PM
    Psi4 wall time for execution: 0:00:29.86

*** Psi4 exiting successfully. Buy a developer a beer!
