                               Psi4 1.3.2 release

  ==> Input File <==

--------------------------------------------------------------------------
import numpy as np
set {scf_type pk
basis cc-pvdz
d_convergence 10
gdma_switch   0
gdma_limit    0
gdma_origin   [ 0.0,  0.0,  0.0 ]
}
molecule test {
    units Angstrom
    0 1
    --
    0 1
    C               -0.651034233604369    -0.970057952755420     0.680071160246530
    C               -1.887034233604370    -0.730057952755420     1.558071160246530
    C               -0.612034233604369    -2.366057952755420     0.064071160246530
    H               -0.671034233604370    -0.247057952755420    -0.135928839753470
    H                0.256965766395631    -0.794057952755420     1.259071160246530
    H               -2.046034233604370     0.348942047244580     1.624071160246530
    H               -0.692034233604369    -3.095057952755421     0.859071160246530
    H               -1.467034233604370    -2.470057952755421    -0.599928839753470
    H               -1.749104233604370    -1.121367952755420     2.576822160246530
    H               -2.773514233604370    -1.148407952755421     1.058932160246530
    H                0.278715766395631    -2.617777952755421    -0.530241339753470
    C                1.389965766395630     1.373942047244580    -1.508928839753470
    C                1.722965766395630     2.618942047244580    -0.733928839753470
    H                1.678965766395630     0.485942047244580    -0.944928839753470
    H                0.318965766395630     1.342942047244580    -1.714928839753470
    H                1.924965766395630     1.378942047244579    -2.460928839753470
    H                1.420965766395630     3.479942047244580    -1.334928839753471
    H                2.809205766395630     2.671742047244579    -0.568729539753470
    H                1.152595766395630     2.657982047244580     0.205836760246530

}
e, wfn = energy('scf', return_wfn=True)
gdma(wfn)
dmavals = variable('DMA DISTRIBUTED MULTIPOLES')
charges = np.array(dmavals)
print(charges)
np.save('SSI-074LYS-127ALA-1-dimer.npy', np.array(charges))--------------------------------------------------------------------------

*** tstart() called on ds3
*** at Tue Apr 28 14:00:10 2020

   => Loading Basis Set <=

    Name: CC-PVDZ
    Role: ORBITAL
    Keyword: BASIS
    atoms 1-3, 12-13  entry C          line   138 file /theoryfs2/ds/metcalf/miniconda2/envs/tf2gpu/share/psi4/basis/cc-pvdz.gbs
    atoms 4-11, 14-19 entry H          line    22 file /theoryfs2/ds/metcalf/miniconda2/envs/tf2gpu/share/psi4/basis/cc-pvdz.gbs

         ---------------------------------------------------------
                                   SCF
               by Justin Turney, Rob Parrish, Andy Simmonett
                          and Daniel G. A. Smith
                              RHF Reference
                        1 Threads,    500 MiB Core
         ---------------------------------------------------------

  ==> Geometry <==

    Molecular point group: c1
    Full point group: C1

    Geometry (in Angstrom), charge = 0, multiplicity = 1:

       Center              X                  Y                   Z               Mass
    ------------   -----------------  -----------------  -----------------  -----------------
         C           -0.651034233604    -0.970057952755     0.680071160247    12.000000000000
         C           -1.887034233604    -0.730057952755     1.558071160247    12.000000000000
         C           -0.612034233604    -2.366057952755     0.064071160247    12.000000000000
         H           -0.671034233604    -0.247057952755    -0.135928839753     1.007825032230
         H            0.256965766396    -0.794057952755     1.259071160247     1.007825032230
         H           -2.046034233604     0.348942047245     1.624071160247     1.007825032230
         H           -0.692034233604    -3.095057952755     0.859071160247     1.007825032230
         H           -1.467034233604    -2.470057952755    -0.599928839753     1.007825032230
         H           -1.749104233604    -1.121367952755     2.576822160247     1.007825032230
         H           -2.773514233604    -1.148407952755     1.058932160247     1.007825032230
         H            0.278715766396    -2.617777952755    -0.530241339753     1.007825032230
         C            1.389965766396     1.373942047245    -1.508928839753    12.000000000000
         C            1.722965766396     2.618942047245    -0.733928839753    12.000000000000
         H            1.678965766396     0.485942047245    -0.944928839753     1.007825032230
         H            0.318965766396     1.342942047245    -1.714928839753     1.007825032230
         H            1.924965766396     1.378942047245    -2.460928839753     1.007825032230
         H            1.420965766396     3.479942047245    -1.334928839753     1.007825032230
         H            2.809205766396     2.671742047245    -0.568729539753     1.007825032230
         H            1.152595766396     2.657982047245     0.205836760247     1.007825032230

  Running in c1 symmetry.

  Rotational constants: A =      0.20942  B =      0.04027  C =      0.03535 [cm^-1]
  Rotational constants: A =   6278.23453  B =   1207.33862  C =   1059.65451 [MHz]
  Nuclear repulsion =  177.213250440844575

  Charge       = 0
  Multiplicity = 1
  Electrons    = 44
  Nalpha       = 22
  Nbeta        = 22

  ==> Algorithm <==

  SCF Algorithm Type is PK.
  DIIS enabled.
  MOM disabled.
  Fractional occupation disabled.
  Guess Type is SAD.
  Energy threshold   = 1.00e-06
  Density threshold  = 1.00e-10
  Integral threshold = 0.00e+00

  ==> Primary Basis <==

  Basis Set: CC-PVDZ
    Blend: CC-PVDZ
    Number of shells: 72
    Number of basis function: 140
    Number of Cartesian functions: 145
    Spherical Harmonics?: true
    Max angular momentum: 2

  ==> Pre-Iterations <==

   -------------------------------------------------------
    Irrep   Nso     Nmo     Nalpha   Nbeta   Ndocc  Nsocc
   -------------------------------------------------------
     A        140     140       0       0       0       0
   -------------------------------------------------------
    Total     140     140      22      22      22       0
   -------------------------------------------------------

  ==> Integral Setup <==

  Using integral reordering PK algorithm.
  Sizing the integral batches needed.
  Building batch lookup table.
   Calculation information:
      Number of atoms:                  19
      Number of AO shells:              72
      Number of primitives:            180
      Number of atomic orbitals:       145
      Number of basis functions:       140

      Integral cutoff                 1.00e-12
      Number of threads:                 1

	Batch   1 pq = [       0,    9405] index = [             0,44231715] size =     44231715
	Batch   2 pq = [    9405,    9870] index = [      44231715,48713385] size =      4481670
  Task number: 5
  Buffer size: 11059200
  Buffer per thread: 2
  We computed 2806436 shell quartets total.
  Whereas there are 3454506 unique shell quartets.

  ==> DiskJK: Disk-Based J/K Matrices <==

    J tasked:                  Yes
    K tasked:                  Yes
    wK tasked:                  No
    Memory [MiB]:              375
    Schwarz Cutoff:          1E-12

    OpenMP threads:              1

  Minimum eigenvalue in the overlap matrix is 5.3979552631E-03.
  Using Symmetric Orthogonalization.

  SCF Guess: Superposition of Atomic Densities via on-the-fly atomic UHF.

  ==> Iterations <==

                        Total Energy        Delta E     RMS |[F,P]|

   @RHF iter SAD:  -196.38984797565672   -1.96390e+02   0.00000e+00
   @RHF iter   1:  -197.30714822903755   -9.17300e-01   3.83052e-03 DIIS
   @RHF iter   2:  -197.46871960353869   -1.61571e-01   1.66234e-03 DIIS
   @RHF iter   3:  -197.49782360915736   -2.91040e-02   3.27099e-04 DIIS
   @RHF iter   4:  -197.50007392964494   -2.25032e-03   4.93217e-05 DIIS
   @RHF iter   5:  -197.50011376838088   -3.98387e-05   1.50990e-05 DIIS
   @RHF iter   6:  -197.50011724634328   -3.47796e-06   2.39923e-06 DIIS
   @RHF iter   7:  -197.50011735291457   -1.06571e-07   4.73842e-07 DIIS
   @RHF iter   8:  -197.50011735756050   -4.64593e-09   1.30964e-07 DIIS
   @RHF iter   9:  -197.50011735789892   -3.38417e-10   3.96518e-08 DIIS
   @RHF iter  10:  -197.50011735793694   -3.80282e-11   8.33726e-09 DIIS
   @RHF iter  11:  -197.50011735793817   -1.22213e-12   1.56506e-09 DIIS
   @RHF iter  12:  -197.50011735793845   -2.84217e-13   3.08269e-10 DIIS
   @RHF iter  13:  -197.50011735793817    2.84217e-13   6.33476e-11 DIIS
  Energy and wave function converged.

  ==> Post-Iterations <==

    Orbital Energies [Eh]
    ---------------------

    Doubly Occupied:

       1A    -11.219373     2A    -11.218672     3A    -11.217744
       4A    -11.214877     5A    -11.213793     6A     -1.052278
       7A     -1.024593     8A     -0.924316     9A     -0.833349
      10A     -0.796800    11A     -0.627413    12A     -0.603685
      13A     -0.600528    14A     -0.592939    15A     -0.541252
      16A     -0.535247    17A     -0.504483    18A     -0.487056
      19A     -0.480947    20A     -0.475587    21A     -0.468517
      22A     -0.460619

    Virtual:

      23A      0.168492    24A      0.195709    25A      0.211968
      26A      0.224871    27A      0.232985    28A      0.248974
      29A      0.255902    30A      0.264252    31A      0.270362
      32A      0.281141    33A      0.293751    34A      0.304657
      35A      0.315620    36A      0.345543    37A      0.389677
      38A      0.400165    39A      0.427122    40A      0.569685
      41A      0.587673    42A      0.595397    43A      0.604212
      44A      0.610781    45A      0.618030    46A      0.632898
      47A      0.651635    48A      0.677531    49A      0.766374
      50A      0.804022    51A      0.821901    52A      0.851818
      53A      0.859898    54A      0.872404    55A      0.886714
      56A      0.890244    57A      0.892198    58A      0.893697
      59A      0.902944    60A      0.904746    61A      0.911030
      62A      0.916015    63A      0.926001    64A      0.932891
      65A      0.954122    66A      0.962280    67A      0.985843
      68A      1.012156    69A      1.114814    70A      1.126177
      71A      1.131829    72A      1.164102    73A      1.224405
      74A      1.243944    75A      1.374632    76A      1.449926
      77A      1.480902    78A      1.485394    79A      1.494217
      80A      1.546863    81A      1.556288    82A      1.625863
      83A      1.660456    84A      1.677731    85A      1.697367
      86A      1.704484    87A      1.719345    88A      1.838774
      89A      1.855344    90A      1.861630    91A      1.879509
      92A      1.896207    93A      1.899902    94A      1.921552
      95A      1.925162    96A      1.943603    97A      1.951823
      98A      1.952846    99A      1.965862   100A      1.967177
     101A      1.977317   102A      1.984746   103A      1.991634
     104A      1.999238   105A      2.017545   106A      2.023686
     107A      2.045550   108A      2.098491   109A      2.125363
     110A      2.127331   111A      2.174703   112A      2.275876
     113A      2.298072   114A      2.300355   115A      2.317961
     116A      2.328714   117A      2.352156   118A      2.449245
     119A      2.474111   120A      2.481007   121A      2.542398
     122A      2.565118   123A      2.571510   124A      2.578878
     125A      2.606872   126A      2.644483   127A      2.758723
     128A      2.759828   129A      2.771210   130A      2.788359
     131A      2.792229   132A      2.825287   133A      2.847510
     134A      2.860279   135A      2.899594   136A      2.947834
     137A      2.967631   138A      2.972204   139A      2.976213
     140A      3.072971

    Final Occupation by Irrep:
              A
    DOCC [    22 ]

  @RHF Final Energy:  -197.50011735793817

   => Energetics <=

    Nuclear Repulsion Energy =            177.2132504408445755
    One-Electron Energy =                -615.2386003398573848
    Two-Electron Energy =                 240.5252325410746153
    Total Energy =                       -197.5001173579381657

Computation Completed

Properties will be evaluated at   0.000000,   0.000000,   0.000000 [a0]

Properties computed using the SCF density matrix

  Nuclear Dipole Moment: [e a0]
     X:     0.4149      Y:     0.8181      Z:    -0.6625

  Electronic Dipole Moment: [e a0]
     X:    -0.4012      Y:    -0.7822      Z:     0.6369

  Dipole Moment: [e a0]
     X:     0.0138      Y:     0.0359      Z:    -0.0256     Total:     0.0462

  Dipole Moment: [D]
     X:     0.0350      Y:     0.0911      Z:    -0.0652     Total:     0.1174

*** tstop() called on ds3 at Tue Apr 28 14:00:33 2020
Module time:
	user time   =      16.62 seconds =       0.28 minutes
	system time =       7.20 seconds =       0.12 minutes
	total time  =         23 seconds =       0.38 minutes
Total time:
	user time   =      16.62 seconds =       0.28 minutes
	system time =       7.20 seconds =       0.12 minutes
	total time  =         23 seconds =       0.38 minutes
                                     G D M A

                                 by Anthony Stone

                           version 2.2.06, 22 June 2011

               Distributed Multipoles from Gaussian wavefunctions

Starting at 14:0:33 on 28 Apr 2020

Using SCF density matrix from file ./SSI/SSI-074LYS-127ALA-1-dimer.test.10870.fchk

                         Distributed Multipole Analysis

Standard DMA

Positions and radii in angstrom
Multipole moments in atomic units, ea_0^k for rank k

C          x = -0.651034  y = -0.970058  z =  0.680071 angstrom
           Maximum rank =  0   Radius =  0.650 angstrom
                   Q00  =  -0.086741

C          x = -1.887034  y = -0.730058  z =  1.558071 angstrom
           Maximum rank =  0   Radius =  0.650 angstrom
                   Q00  =  -0.250586

C          x = -0.612034  y = -2.366058  z =  0.064071 angstrom
           Maximum rank =  0   Radius =  0.650 angstrom
                   Q00  =  -0.241644

H          x = -0.671034  y = -0.247058  z = -0.135929 angstrom
           Maximum rank =  0   Radius =  0.325 angstrom
                   Q00  =   0.050933

H          x =  0.256966  y = -0.794058  z =  1.259071 angstrom
           Maximum rank =  0   Radius =  0.325 angstrom
                   Q00  =   0.047731

H          x = -2.046034  y =  0.348942  z =  1.624071 angstrom
           Maximum rank =  0   Radius =  0.325 angstrom
                   Q00  =   0.085916

H          x = -0.692034  y = -3.095058  z =  0.859071 angstrom
           Maximum rank =  0   Radius =  0.325 angstrom
                   Q00  =   0.073762

H          x = -1.467034  y = -2.470058  z = -0.599929 angstrom
           Maximum rank =  0   Radius =  0.325 angstrom
                   Q00  =   0.074243

H          x = -1.749104  y = -1.121368  z =  2.576822 angstrom
           Maximum rank =  0   Radius =  0.325 angstrom
                   Q00  =   0.083793

H          x = -2.773514  y = -1.148408  z =  1.058932 angstrom
           Maximum rank =  0   Radius =  0.325 angstrom
                   Q00  =   0.076821

H          x =  0.278716  y = -2.617778  z = -0.530241 angstrom
           Maximum rank =  0   Radius =  0.325 angstrom
                   Q00  =   0.085148

C          x =  1.389966  y =  1.373942  z = -1.508929 angstrom
           Maximum rank =  0   Radius =  0.650 angstrom
                   Q00  =  -0.223999

C          x =  1.722966  y =  2.618942  z = -0.733929 angstrom
           Maximum rank =  0   Radius =  0.650 angstrom
                   Q00  =  -0.232479

H          x =  1.678966  y =  0.485942  z = -0.944929 angstrom
           Maximum rank =  0   Radius =  0.325 angstrom
                   Q00  =   0.078859

H          x =  0.318966  y =  1.342942  z = -1.714929 angstrom
           Maximum rank =  0   Radius =  0.325 angstrom
                   Q00  =   0.075379

H          x =  1.924966  y =  1.378942  z = -2.460929 angstrom
           Maximum rank =  0   Radius =  0.325 angstrom
                   Q00  =   0.075131

H          x =  1.420966  y =  3.479942  z = -1.334929 angstrom
           Maximum rank =  0   Radius =  0.325 angstrom
                   Q00  =   0.073104

H          x =  2.809206  y =  2.671742  z = -0.568730 angstrom
           Maximum rank =  0   Radius =  0.325 angstrom
                   Q00  =   0.077165

H          x =  1.152596  y =  2.657982  z =  0.205837 angstrom
           Maximum rank =  0   Radius =  0.325 angstrom
                   Q00  =   0.077466

Total multipoles referred to origin at
           x =   0.000000,  y =    0.000000,  z =    0.000000 angstrom
                   Q00  =  -0.000000

Finished at 14:0:33 on 28 Apr 2020

  DMA results are available in the Python driver through the
	  variable('DMA DISTRIBUTED MULTIPOLES')
  and
	  variable('DMA TOTAL MULTIPOLES')
  commands.

    Psi4 stopped on: Tuesday, 28 April 2020 02:00PM
    Psi4 wall time for execution: 0:00:23.10

*** Psi4 exiting successfully. Buy a developer a beer!
