                               Psi4 1.3.2 release

  ==> Input File <==

--------------------------------------------------------------------------
import numpy as np
set {scf_type pk
basis cc-pvdz
d_convergence 10
gdma_switch   0
gdma_limit    0
gdma_origin   [ 0.0,  0.0,  0.0 ]
}
molecule test {
    units Angstrom
    0 1
    --
    0 1
    C               -0.796209424436181     3.861671642052571    -0.255268072114369
    C                0.067790575563819     4.470671642052571     0.833731927885631
    H               -1.645209424436181     3.344671642052571     0.192731927885631
    H               -1.167209424436181     4.645671642052570    -0.917268072114369
    H               -0.223209424436181     3.147671642052571    -0.839268072114369
    H                0.858790575563819     5.036671642052570     0.342731927885631
    H                0.516469075563819     3.670231642052571     1.440341927885631
    H               -0.534038924436181     5.165031642052570     1.438431927885631
    C               -1.204209424436181     0.190671642052571     0.693731927885631
    C               -2.067209424436181    -0.544328357947429     1.705731927885631
    C               -0.178209424436181    -0.692328357947429     0.039731927885631
    C                1.015790575563819    -0.978328357947429     0.674731927885631
    C               -0.435209424436181    -1.269328357947429    -1.209268072114368
    C                1.941790575563819    -1.834328357947429     0.077731927885631
    C                0.497790575563819    -2.089328357947429    -1.809268072114369
    C                1.671790575563819    -2.389328357947429    -1.157268072114369
    H               -1.837209424436181     0.650671642052571    -0.067268072114369
    H               -0.673209424436181     0.984671642052571     1.206731927885631
    H               -1.406209424436181    -1.071328357947429     2.396731927885631
    H                1.229790575563819    -0.551328357947429     1.644731927885631
    H               -1.375209424436181    -1.076328357947429    -1.706268072114369
    H                2.862790575563818    -2.081328357947429     0.588731927885631
    H                0.288790575563819    -2.534328357947429    -2.771268072114369
    H                2.369790575563818    -3.085328357947429    -1.596268072114368
    H               -2.729574424436181    -1.259678357947429     1.196281927885631
    H               -2.654330424436181     0.187031642052571     2.280531927885631

}
e, wfn = energy('scf', return_wfn=True)
gdma(wfn)
dmavals = variable('DMA DISTRIBUTED MULTIPOLES')
charges = np.array(dmavals)
print(charges)
np.save('SSI-060LEU-095PHE-1-dimer.npy', np.array(charges))--------------------------------------------------------------------------

*** tstart() called on ds3
*** at Mon Apr 27 14:21:58 2020

   => Loading Basis Set <=

    Name: CC-PVDZ
    Role: ORBITAL
    Keyword: BASIS
    atoms 1-2, 9-16  entry C          line   138 file /theoryfs2/ds/metcalf/miniconda2/envs/tf2gpu/share/psi4/basis/cc-pvdz.gbs
    atoms 3-8, 17-26 entry H          line    22 file /theoryfs2/ds/metcalf/miniconda2/envs/tf2gpu/share/psi4/basis/cc-pvdz.gbs

         ---------------------------------------------------------
                                   SCF
               by Justin Turney, Rob Parrish, Andy Simmonett
                          and Daniel G. A. Smith
                              RHF Reference
                        1 Threads,    500 MiB Core
         ---------------------------------------------------------

  ==> Geometry <==

    Molecular point group: c1
    Full point group: C1

    Geometry (in Angstrom), charge = 0, multiplicity = 1:

       Center              X                  Y                   Z               Mass
    ------------   -----------------  -----------------  -----------------  -----------------
         C           -0.796209424436     3.861671642053    -0.255268072114    12.000000000000
         C            0.067790575564     4.470671642053     0.833731927886    12.000000000000
         H           -1.645209424436     3.344671642053     0.192731927886     1.007825032230
         H           -1.167209424436     4.645671642053    -0.917268072114     1.007825032230
         H           -0.223209424436     3.147671642053    -0.839268072114     1.007825032230
         H            0.858790575564     5.036671642053     0.342731927886     1.007825032230
         H            0.516469075564     3.670231642053     1.440341927886     1.007825032230
         H           -0.534038924436     5.165031642053     1.438431927886     1.007825032230
         C           -1.204209424436     0.190671642053     0.693731927886    12.000000000000
         C           -2.067209424436    -0.544328357947     1.705731927886    12.000000000000
         C           -0.178209424436    -0.692328357947     0.039731927886    12.000000000000
         C            1.015790575564    -0.978328357947     0.674731927886    12.000000000000
         C           -0.435209424436    -1.269328357947    -1.209268072114    12.000000000000
         C            1.941790575564    -1.834328357947     0.077731927886    12.000000000000
         C            0.497790575564    -2.089328357947    -1.809268072114    12.000000000000
         C            1.671790575564    -2.389328357947    -1.157268072114    12.000000000000
         H           -1.837209424436     0.650671642053    -0.067268072114     1.007825032230
         H           -0.673209424436     0.984671642053     1.206731927886     1.007825032230
         H           -1.406209424436    -1.071328357947     2.396731927886     1.007825032230
         H            1.229790575564    -0.551328357947     1.644731927886     1.007825032230
         H           -1.375209424436    -1.076328357947    -1.706268072114     1.007825032230
         H            2.862790575564    -2.081328357947     0.588731927886     1.007825032230
         H            0.288790575564    -2.534328357947    -2.771268072114     1.007825032230
         H            2.369790575564    -3.085328357947    -1.596268072114     1.007825032230
         H           -2.729574424436    -1.259678357947     1.196281927886     1.007825032230
         H           -2.654330424436     0.187031642053     2.280531927886     1.007825032230

  Running in c1 symmetry.

  Rotational constants: A =      0.05410  B =      0.01807  C =      0.01638 [cm^-1]
  Rotational constants: A =   1621.84025  B =    541.77653  C =    491.17729 [MHz]
  Nuclear repulsion =  485.108319524658896

  Charge       = 0
  Multiplicity = 1
  Electrons    = 76
  Nalpha       = 38
  Nbeta        = 38

  ==> Algorithm <==

  SCF Algorithm Type is PK.
  DIIS enabled.
  MOM disabled.
  Fractional occupation disabled.
  Guess Type is SAD.
  Energy threshold   = 1.00e-06
  Density threshold  = 1.00e-10
  Integral threshold = 0.00e+00

  ==> Primary Basis <==

  Basis Set: CC-PVDZ
    Blend: CC-PVDZ
    Number of shells: 108
    Number of basis function: 220
    Number of Cartesian functions: 230
    Spherical Harmonics?: true
    Max angular momentum: 2

  ==> Pre-Iterations <==

   -------------------------------------------------------
    Irrep   Nso     Nmo     Nalpha   Nbeta   Ndocc  Nsocc
   -------------------------------------------------------
     A        220     220       0       0       0       0
   -------------------------------------------------------
    Total     220     220      38      38      38       0
   -------------------------------------------------------

  ==> Integral Setup <==

  Using integral reordering PK algorithm.
  Sizing the integral batches needed.
  Building batch lookup table.
   Calculation information:
      Number of atoms:                  26
      Number of AO shells:             108
      Number of primitives:            300
      Number of atomic orbitals:       230
      Number of basis functions:       220

      Integral cutoff                 1.00e-12
      Number of threads:                 1

	Batch   1 pq = [       0,    9405] index = [             0,44231715] size =     44231715
	Batch   2 pq = [    9405,   13301] index = [      44231715,88464951] size =     44233236
	Batch   3 pq = [   13301,   16290] index = [      88464951,132690195] size =     44225244
	Batch   4 pq = [   16290,   18810] index = [     132690195,176917455] size =     44227260
	Batch   5 pq = [   18810,   21030] index = [     176917455,221140965] size =     44223510
	Batch   6 pq = [   21030,   23037] index = [     221140965,265363203] size =     44222238
	Batch   7 pq = [   23037,   24310] index = [     265363203,295500205] size =     30137002
  Task number: 27
  Buffer size: 11059200
  Buffer per thread: 2
  We computed 14597490 shell quartets total.
  Whereas there are 17325441 unique shell quartets.

  ==> DiskJK: Disk-Based J/K Matrices <==

    J tasked:                  Yes
    K tasked:                  Yes
    wK tasked:                  No
    Memory [MiB]:              375
    Schwarz Cutoff:          1E-12

    OpenMP threads:              1

  Minimum eigenvalue in the overlap matrix is 2.9838406727E-04.
  Using Symmetric Orthogonalization.

  SCF Guess: Superposition of Atomic Densities via on-the-fly atomic UHF.

  ==> Iterations <==

                        Total Energy        Delta E     RMS |[F,P]|

   @RHF iter SAD:  -386.99072809901810   -3.86991e+02   0.00000e+00
   @RHF iter   1:  -387.77228991422692   -7.81562e-01   2.76030e-03 DIIS
   @RHF iter   2:  -387.99071173482429   -2.18422e-01   1.15763e-03 DIIS
   @RHF iter   3:  -388.02598508483726   -3.52734e-02   2.47645e-04 DIIS
   @RHF iter   4:  -388.02884110928778   -2.85602e-03   5.31577e-05 DIIS
   @RHF iter   5:  -388.02892858488610   -8.74756e-05   2.04178e-05 DIIS
   @RHF iter   6:  -388.02894151842168   -1.29335e-05   4.03578e-06 DIIS
   @RHF iter   7:  -388.02894219251777   -6.74096e-07   1.20789e-06 DIIS
   @RHF iter   8:  -388.02894225580565   -6.32879e-08   3.54298e-07 DIIS
   @RHF iter   9:  -388.02894226810548   -1.22998e-08   1.64434e-07 DIIS
   @RHF iter  10:  -388.02894227181514   -3.70966e-09   8.19845e-08 DIIS
   @RHF iter  11:  -388.02894227281490   -9.99762e-10   2.56181e-08 DIIS
   @RHF iter  12:  -388.02894227288851   -7.36122e-11   1.08637e-08 DIIS
   @RHF iter  13:  -388.02894227289266   -4.14957e-12   4.29267e-09 DIIS
   @RHF iter  14:  -388.02894227289420   -1.53477e-12   1.22065e-09 DIIS
   @RHF iter  15:  -388.02894227289340    7.95808e-13   4.58155e-10 DIIS
   @RHF iter  16:  -388.02894227289471   -1.30740e-12   2.04319e-10 DIIS
   @RHF iter  17:  -388.02894227289494   -2.27374e-13   8.36663e-11 DIIS
  Energy and wave function converged.

  ==> Post-Iterations <==

    Orbital Energies [Eh]
    ---------------------

    Doubly Occupied:

       1A    -11.235664     2A    -11.233724     3A    -11.231102
       4A    -11.229224     5A    -11.228482     6A    -11.226892
       7A    -11.226270     8A    -11.222748     9A    -11.218511
      10A    -11.214243    11A     -1.157768    12A     -1.066708
      13A     -1.021351    14A     -1.012964    15A     -0.983797
      16A     -0.860977    17A     -0.834072    18A     -0.826491
      19A     -0.785106    20A     -0.692675    21A     -0.643036
      22A     -0.632651    23A     -0.602234    24A     -0.599020
      25A     -0.591422    26A     -0.588400    27A     -0.577682
      28A     -0.542886    29A     -0.516793    30A     -0.500262
      31A     -0.498895    32A     -0.487736    33A     -0.484920
      34A     -0.481257    35A     -0.476156    36A     -0.466521
      37A     -0.332884    38A     -0.322639

    Virtual:

      39A      0.137577    40A      0.140978    41A      0.170866
      42A      0.188622    43A      0.202708    44A      0.208020
      45A      0.228948    46A      0.233175    47A      0.239207
      48A      0.252598    49A      0.255793    50A      0.263934
      51A      0.275250    52A      0.280965    53A      0.290325
      54A      0.302785    55A      0.312546    56A      0.338559
      57A      0.350667    58A      0.389161    59A      0.402435
      60A      0.430009    61A      0.456093    62A      0.477411
      63A      0.491104    64A      0.497659    65A      0.570355
      66A      0.580227    67A      0.600300    68A      0.603892
      69A      0.609087    70A      0.625548    71A      0.632250
      72A      0.644125    73A      0.675720    74A      0.685765
      75A      0.692653    76A      0.718244    77A      0.729136
      78A      0.735373    79A      0.742888    80A      0.748509
      81A      0.751850    82A      0.767961    83A      0.774294
      84A      0.795969    85A      0.827314    86A      0.842153
      87A      0.850553    88A      0.862095    89A      0.866739
      90A      0.878051    91A      0.887756    92A      0.892235
      93A      0.897790    94A      0.899769    95A      0.902860
      96A      0.911792    97A      0.915644    98A      0.922969
      99A      0.933074   100A      0.937244   101A      0.951306
     102A      0.960709   103A      0.973045   104A      0.986235
     105A      1.002989   106A      1.011898   107A      1.055990
     108A      1.088479   109A      1.125735   110A      1.129301
     111A      1.134415   112A      1.143407   113A      1.144845
     114A      1.162646   115A      1.181868   116A      1.224328
     117A      1.238230   118A      1.243978   119A      1.253360
     120A      1.258218   121A      1.296845   122A      1.305312
     123A      1.319384   124A      1.329189   125A      1.402943
     126A      1.428393   127A      1.436876   128A      1.482938
     129A      1.492587   130A      1.513627   131A      1.536989
     132A      1.557974   133A      1.620297   134A      1.629828
     135A      1.673627   136A      1.676518   137A      1.687478
     138A      1.713933   139A      1.729577   140A      1.740549
     141A      1.766030   142A      1.772460   143A      1.847075
     144A      1.854723   145A      1.860707   146A      1.865017
     147A      1.874957   148A      1.885612   149A      1.891056
     150A      1.903003   151A      1.906767   152A      1.910117
     153A      1.929505   154A      1.934074   155A      1.941755
     156A      1.942617   157A      1.948291   158A      1.953980
     159A      1.963159   160A      1.972618   161A      1.975741
     162A      1.980701   163A      1.986507   164A      2.000369
     165A      2.008855   166A      2.016682   167A      2.048247
     168A      2.065305   169A      2.074908   170A      2.097312
     171A      2.105656   172A      2.126762   173A      2.138408
     174A      2.167987   175A      2.172310   176A      2.173985
     177A      2.182263   178A      2.196288   179A      2.242824
     180A      2.255611   181A      2.277758   182A      2.285330
     183A      2.308212   184A      2.314419   185A      2.324197
     186A      2.336565   187A      2.399157   188A      2.448450
     189A      2.457839   190A      2.474634   191A      2.482983
     192A      2.500639   193A      2.520452   194A      2.552725
     195A      2.568913   196A      2.580263   197A      2.592821
     198A      2.644421   199A      2.746531   200A      2.763602
     201A      2.773866   202A      2.776847   203A      2.797054
     204A      2.800738   205A      2.806470   206A      2.841038
     207A      2.844963   208A      2.855682   209A      2.867561
     210A      2.918223   211A      2.953931   212A      2.966075
     213A      2.987290   214A      3.003653   215A      3.037047
     216A      3.071231   217A      3.197568   218A      3.217333
     219A      3.320649   220A      3.997185

    Final Occupation by Irrep:
              A
    DOCC [    38 ]

  @RHF Final Energy:  -388.02894227289494

   => Energetics <=

    Nuclear Repulsion Energy =            485.1083195246588957
    One-Electron Energy =               -1484.5662012307989244
    Two-Electron Energy =                 611.4289394332450911
    Total Energy =                       -388.0289422728949376

Computation Completed

Properties will be evaluated at   0.000000,   0.000000,   0.000000 [a0]

Properties computed using the SCF density matrix

  Nuclear Dipole Moment: [e a0]
     X:    -5.7364      Y:    14.2239      Z:     4.5283

  Electronic Dipole Moment: [e a0]
     X:     5.6522      Y:   -14.1897      Z:    -4.4793

  Dipole Moment: [e a0]
     X:    -0.0842      Y:     0.0342      Z:     0.0490     Total:     0.1032

  Dipole Moment: [D]
     X:    -0.2140      Y:     0.0869      Z:     0.1246     Total:     0.2624

*** tstop() called on ds3 at Mon Apr 27 14:26:14 2020
Module time:
	user time   =     100.04 seconds =       1.67 minutes
	system time =      40.55 seconds =       0.68 minutes
	total time  =        256 seconds =       4.27 minutes
Total time:
	user time   =     100.04 seconds =       1.67 minutes
	system time =      40.55 seconds =       0.68 minutes
	total time  =        256 seconds =       4.27 minutes
                                     G D M A

                                 by Anthony Stone

                           version 2.2.06, 22 June 2011

               Distributed Multipoles from Gaussian wavefunctions

Starting at 14:26:14 on 27 Apr 2020

Using SCF density matrix from file ./SSI/SSI-060LEU-095PHE-1-dimer.test.9226.fchk

                         Distributed Multipole Analysis

Standard DMA

Positions and radii in angstrom
Multipole moments in atomic units, ea_0^k for rank k

C          x = -0.796209  y =  3.861672  z = -0.255268 angstrom
           Maximum rank =  0   Radius =  0.650 angstrom
                   Q00  =  -0.244602

C          x =  0.067791  y =  4.470672  z =  0.833732 angstrom
           Maximum rank =  0   Radius =  0.650 angstrom
                   Q00  =  -0.220757

H          x = -1.645209  y =  3.344672  z =  0.192732 angstrom
           Maximum rank =  0   Radius =  0.325 angstrom
                   Q00  =   0.074212

H          x = -1.167209  y =  4.645672  z = -0.917268 angstrom
           Maximum rank =  0   Radius =  0.325 angstrom
                   Q00  =   0.076895

H          x = -0.223209  y =  3.147672  z = -0.839268 angstrom
           Maximum rank =  0   Radius =  0.325 angstrom
                   Q00  =   0.082203

H          x =  0.858791  y =  5.036672  z =  0.342732 angstrom
           Maximum rank =  0   Radius =  0.325 angstrom
                   Q00  =   0.077328

H          x =  0.516469  y =  3.670232  z =  1.440342 angstrom
           Maximum rank =  0   Radius =  0.325 angstrom
                   Q00  =   0.077266

H          x = -0.534039  y =  5.165032  z =  1.438432 angstrom
           Maximum rank =  0   Radius =  0.325 angstrom
                   Q00  =   0.077637

C          x = -1.204209  y =  0.190672  z =  0.693732 angstrom
           Maximum rank =  0   Radius =  0.650 angstrom
                   Q00  =  -0.031586

C          x = -2.067209  y = -0.544328  z =  1.705732 angstrom
           Maximum rank =  0   Radius =  0.650 angstrom
                   Q00  =  -0.230959

C          x = -0.178209  y = -0.692328  z =  0.039732 angstrom
           Maximum rank =  0   Radius =  0.650 angstrom
                   Q00  =  -0.105861

C          x =  1.015791  y = -0.978328  z =  0.674732 angstrom
           Maximum rank =  0   Radius =  0.650 angstrom
                   Q00  =  -0.102318

C          x = -0.435209  y = -1.269328  z = -1.209268 angstrom
           Maximum rank =  0   Radius =  0.650 angstrom
                   Q00  =  -0.006771

C          x =  1.941791  y = -1.834328  z =  0.077732 angstrom
           Maximum rank =  0   Radius =  0.650 angstrom
                   Q00  =  -0.070200

C          x =  0.497791  y = -2.089328  z = -1.809268 angstrom
           Maximum rank =  0   Radius =  0.650 angstrom
                   Q00  =  -0.073407

C          x =  1.671791  y = -2.389328  z = -1.157268 angstrom
           Maximum rank =  0   Radius =  0.650 angstrom
                   Q00  =  -0.047552

H          x = -1.837209  y =  0.650672  z = -0.067268 angstrom
           Maximum rank =  0   Radius =  0.325 angstrom
                   Q00  =   0.066541

H          x = -0.673209  y =  0.984672  z =  1.206732 angstrom
           Maximum rank =  0   Radius =  0.325 angstrom
                   Q00  =   0.065751

H          x = -1.406209  y = -1.071328  z =  2.396732 angstrom
           Maximum rank =  0   Radius =  0.325 angstrom
                   Q00  =   0.082103

H          x =  1.229791  y = -0.551328  z =  1.644732 angstrom
           Maximum rank =  0   Radius =  0.325 angstrom
                   Q00  =   0.054006

H          x = -1.375209  y = -1.076328  z = -1.706268 angstrom
           Maximum rank =  0   Radius =  0.325 angstrom
                   Q00  =   0.054023

H          x =  2.862791  y = -2.081328  z =  0.588732 angstrom
           Maximum rank =  0   Radius =  0.325 angstrom
                   Q00  =   0.063646

H          x =  0.288791  y = -2.534328  z = -2.771268 angstrom
           Maximum rank =  0   Radius =  0.325 angstrom
                   Q00  =   0.061429

H          x =  2.369791  y = -3.085328  z = -1.596268 angstrom
           Maximum rank =  0   Radius =  0.325 angstrom
                   Q00  =   0.057984

H          x = -2.729574  y = -1.259678  z =  1.196282 angstrom
           Maximum rank =  0   Radius =  0.325 angstrom
                   Q00  =   0.083133

H          x = -2.654330  y =  0.187032  z =  2.280532 angstrom
           Maximum rank =  0   Radius =  0.325 angstrom
                   Q00  =   0.079856

Total multipoles referred to origin at
           x =   0.000000,  y =    0.000000,  z =    0.000000 angstrom
                   Q00  =  -0.000000

Finished at 14:26:14 on 27 Apr 2020

  DMA results are available in the Python driver through the
	  variable('DMA DISTRIBUTED MULTIPOLES')
  and
	  variable('DMA TOTAL MULTIPOLES')
  commands.

    Psi4 stopped on: Monday, 27 April 2020 02:26PM
    Psi4 wall time for execution: 0:04:16.64

*** Psi4 exiting successfully. Buy a developer a beer!
