                               Psi4 1.3.2 release

  ==> Input File <==

--------------------------------------------------------------------------
import numpy as np
set {scf_type pk
basis cc-pvdz
d_convergence 10
gdma_switch   0
gdma_limit    0
gdma_origin   [ 0.0,  0.0,  0.0 ]
}
molecule test {
    units Angstrom
    0 1
    --
    0 1
    C               -1.218599035653399     3.348697159420136     1.742122796546856
    C               -0.181599035653399     2.534697159420136    -0.417877203453143
    C               -0.098599035653399     2.678697159420136     0.971122796546857
    C                0.833400964346601     1.882697159420136    -1.122877203453144
    C                1.930400964346601     1.367697159420136    -0.436877203453144
    C                1.015400964346602     2.159697159420136     1.646122796546856
    C                2.023400964346601     1.505697159420136     0.944122796546857
    H               -1.038599035653399     2.919697159420136    -0.950877203453143
    H                0.782400964346602     1.781697159420136    -2.193877203453143
    H               -1.779599035653398     3.988697159420136     1.060122796546856
    H               -0.787599035653399     3.991697159420136     2.511122796546857
    H                2.698400964346602     0.853697159420136    -0.982877203453143
    H                1.103400964346601     2.262697159420136     2.719122796546856
    H                2.877400964346602     1.096697159420136     1.461122796546857
    H               -1.912109035653399     2.629317159420136     2.202062796546856
    C                0.738400964346601    -2.204302840579864     1.572122796546856
    C               -0.842599035653398    -1.102302840579864    -0.057877203453143
    C               -0.051599035653399    -2.205302840579864     0.290122796546857
    C               -1.623599035653399    -1.134302840579864    -1.229877203453144
    C               -0.041599035653399    -3.336302840579864    -0.543877203453143
    C               -1.607599035653398    -2.266302840579864    -2.056877203453143
    C               -0.814599035653399    -3.371302840579864    -1.715877203453144
    H               -0.859599035653399    -0.227302840579864     0.575122796546856
    H               -2.242599035653399    -0.288302840579864    -1.486877203453144
    H                0.863400964346602    -1.182302840579864     1.933122796546856
    H                1.731400964346602    -2.599302840579864     1.352122796546857
    H                0.571400964346601    -4.188302840579865    -0.285877203453143
    H               -2.207599035653398    -2.285302840579864    -2.955877203453143
    H               -0.792599035653399    -4.241302840579864    -2.356877203453144
    H                0.270780964346601    -2.818452840579864     2.355802796546857

}
e, wfn = energy('scf', return_wfn=True)
gdma(wfn)
dmavals = variable('DMA DISTRIBUTED MULTIPOLES')
charges = np.array(dmavals)
print(charges)
np.save('SSI-038PHE-042PHE-1-dimer.npy', np.array(charges))--------------------------------------------------------------------------

*** tstart() called on ds3
*** at Tue Apr 28 20:00:18 2020

   => Loading Basis Set <=

    Name: CC-PVDZ
    Role: ORBITAL
    Keyword: BASIS
    atoms 1-7, 16-22  entry C          line   138 file /theoryfs2/ds/metcalf/miniconda2/envs/tf2gpu/share/psi4/basis/cc-pvdz.gbs
    atoms 8-15, 23-30 entry H          line    22 file /theoryfs2/ds/metcalf/miniconda2/envs/tf2gpu/share/psi4/basis/cc-pvdz.gbs

         ---------------------------------------------------------
                                   SCF
               by Justin Turney, Rob Parrish, Andy Simmonett
                          and Daniel G. A. Smith
                              RHF Reference
                        1 Threads,    500 MiB Core
         ---------------------------------------------------------

  ==> Geometry <==

    Molecular point group: c1
    Full point group: C1

    Geometry (in Angstrom), charge = 0, multiplicity = 1:

       Center              X                  Y                   Z               Mass
    ------------   -----------------  -----------------  -----------------  -----------------
         C           -1.218599035653     3.348697159420     1.742122796547    12.000000000000
         C           -0.181599035653     2.534697159420    -0.417877203453    12.000000000000
         C           -0.098599035653     2.678697159420     0.971122796547    12.000000000000
         C            0.833400964347     1.882697159420    -1.122877203453    12.000000000000
         C            1.930400964347     1.367697159420    -0.436877203453    12.000000000000
         C            1.015400964347     2.159697159420     1.646122796547    12.000000000000
         C            2.023400964347     1.505697159420     0.944122796547    12.000000000000
         H           -1.038599035653     2.919697159420    -0.950877203453     1.007825032230
         H            0.782400964347     1.781697159420    -2.193877203453     1.007825032230
         H           -1.779599035653     3.988697159420     1.060122796547     1.007825032230
         H           -0.787599035653     3.991697159420     2.511122796547     1.007825032230
         H            2.698400964347     0.853697159420    -0.982877203453     1.007825032230
         H            1.103400964347     2.262697159420     2.719122796547     1.007825032230
         H            2.877400964347     1.096697159420     1.461122796547     1.007825032230
         H           -1.912109035653     2.629317159420     2.202062796547     1.007825032230
         C            0.738400964347    -2.204302840580     1.572122796547    12.000000000000
         C           -0.842599035653    -1.102302840580    -0.057877203453    12.000000000000
         C           -0.051599035653    -2.205302840580     0.290122796547    12.000000000000
         C           -1.623599035653    -1.134302840580    -1.229877203453    12.000000000000
         C           -0.041599035653    -3.336302840580    -0.543877203453    12.000000000000
         C           -1.607599035653    -2.266302840580    -2.056877203453    12.000000000000
         C           -0.814599035653    -3.371302840580    -1.715877203453    12.000000000000
         H           -0.859599035653    -0.227302840580     0.575122796547     1.007825032230
         H           -2.242599035653    -0.288302840580    -1.486877203453     1.007825032230
         H            0.863400964347    -1.182302840580     1.933122796547     1.007825032230
         H            1.731400964347    -2.599302840580     1.352122796547     1.007825032230
         H            0.571400964347    -4.188302840580    -0.285877203453     1.007825032230
         H           -2.207599035653    -2.285302840580    -2.955877203453     1.007825032230
         H           -0.792599035653    -4.241302840580    -2.356877203453     1.007825032230
         H            0.270780964347    -2.818452840580     2.355802796547     1.007825032230

  Running in c1 symmetry.

  Rotational constants: A =      0.03711  B =      0.01273  C =      0.01176 [cm^-1]
  Rotational constants: A =   1112.54176  B =    381.65914  C =    352.63116 [MHz]
  Nuclear repulsion =  798.545804465599417

  Charge       = 0
  Multiplicity = 1
  Electrons    = 100
  Nalpha       = 50
  Nbeta        = 50

  ==> Algorithm <==

  SCF Algorithm Type is PK.
  DIIS enabled.
  MOM disabled.
  Fractional occupation disabled.
  Guess Type is SAD.
  Energy threshold   = 1.00e-06
  Density threshold  = 1.00e-10
  Integral threshold = 0.00e+00

  ==> Primary Basis <==

  Basis Set: CC-PVDZ
    Blend: CC-PVDZ
    Number of shells: 132
    Number of basis function: 276
    Number of Cartesian functions: 290
    Spherical Harmonics?: true
    Max angular momentum: 2

  ==> Pre-Iterations <==

   -------------------------------------------------------
    Irrep   Nso     Nmo     Nalpha   Nbeta   Ndocc  Nsocc
   -------------------------------------------------------
     A        276     276       0       0       0       0
   -------------------------------------------------------
    Total     276     276      50      50      50       0
   -------------------------------------------------------

  ==> Integral Setup <==

  Using integral reordering PK algorithm.
  Sizing the integral batches needed.
  Building batch lookup table.
   Calculation information:
      Number of atoms:                  30
      Number of AO shells:             132
      Number of primitives:            388
      Number of atomic orbitals:       290
      Number of basis functions:       276

      Integral cutoff                 1.00e-12
      Number of threads:                 1

	Batch   1 pq = [       0,    9405] index = [             0,44231715] size =     44231715
	Batch   2 pq = [    9405,   13301] index = [      44231715,88464951] size =     44233236
	Batch   3 pq = [   13301,   16290] index = [      88464951,132690195] size =     44225244
	Batch   4 pq = [   16290,   18810] index = [     132690195,176917455] size =     44227260
	Batch   5 pq = [   18810,   21030] index = [     176917455,221140965] size =     44223510
	Batch   6 pq = [   21030,   23037] index = [     221140965,265363203] size =     44222238
	Batch   7 pq = [   23037,   24883] index = [     265363203,309594286] size =     44231083
	Batch   8 pq = [   24883,   26601] index = [     309594286,353819901] size =     44225615
	Batch   9 pq = [   26601,   28214] index = [     353819901,398029005] size =     44209104
	Batch  10 pq = [   28214,   29740] index = [     398029005,442248670] size =     44219665
	Batch  11 pq = [   29740,   31191] index = [     442248670,486454836] size =     44206166
	Batch  12 pq = [   31191,   32578] index = [     486454836,530679331] size =     44224495
	Batch  13 pq = [   32578,   33908] index = [     530679331,574893186] size =     44213855
	Batch  14 pq = [   33908,   35188] index = [     574893186,619115266] size =     44222080
	Batch  15 pq = [   35188,   36423] index = [     619115266,663335676] size =     44220410
	Batch  16 pq = [   36423,   37617] index = [     663335676,707538153] size =     44202477
	Batch  17 pq = [   37617,   38226] index = [     707538153,730632651] size =     23094498
  Task number: 67
  Buffer size: 11059200
  Buffer per thread: 2
  We computed 42291394 shell quartets total.
  Whereas there are 38531031 unique shell quartets.
     9.76 percent of shell quartets recomputed by reordering.

  ==> DiskJK: Disk-Based J/K Matrices <==

    J tasked:                  Yes
    K tasked:                  Yes
    wK tasked:                  No
    Memory [MiB]:              375
    Schwarz Cutoff:          1E-12

    OpenMP threads:              1

  Minimum eigenvalue in the overlap matrix is 3.1568237560E-04.
  Using Symmetric Orthogonalization.

  SCF Guess: Superposition of Atomic Densities via on-the-fly atomic UHF.

  ==> Iterations <==

                        Total Energy        Delta E     RMS |[F,P]|

   @RHF iter SAD:  -538.22416469097527   -5.38224e+02   0.00000e+00
   @RHF iter   1:  -539.23239034296989   -1.00823e+00   2.27659e-03 DIIS
   @RHF iter   2:  -539.47949081168827   -2.47100e-01   9.23018e-04 DIIS
   @RHF iter   3:  -539.51517987793784   -3.56891e-02   2.16823e-04 DIIS
   @RHF iter   4:  -539.51830241640710   -3.12254e-03   5.80318e-05 DIIS
   @RHF iter   5:  -539.51846156919760   -1.59153e-04   1.65459e-05 DIIS
   @RHF iter   6:  -539.51847536804053   -1.37988e-05   4.66556e-06 DIIS
   @RHF iter   7:  -539.51847661620127   -1.24816e-06   1.08170e-06 DIIS
   @RHF iter   8:  -539.51847674053420   -1.24333e-07   4.17834e-07 DIIS
   @RHF iter   9:  -539.51847677003866   -2.95045e-08   2.15930e-07 DIIS
   @RHF iter  10:  -539.51847677784440   -7.80574e-09   1.06100e-07 DIIS
   @RHF iter  11:  -539.51847678057868   -2.73428e-09   3.70049e-08 DIIS
   @RHF iter  12:  -539.51847678082959   -2.50907e-10   1.56752e-08 DIIS
   @RHF iter  13:  -539.51847678085517   -2.55795e-11   4.30987e-09 DIIS
   @RHF iter  14:  -539.51847678086051   -5.34328e-12   1.25564e-09 DIIS
   @RHF iter  15:  -539.51847678085858    1.93268e-12   6.46675e-10 DIIS
   @RHF iter  16:  -539.51847678085949   -9.09495e-13   2.89002e-10 DIIS
   @RHF iter  17:  -539.51847678085733    2.16005e-12   1.37562e-10 DIIS
   @RHF iter  18:  -539.51847678086040   -3.06954e-12   4.82012e-11 DIIS
  Energy and wave function converged.

  ==> Post-Iterations <==

    Orbital Energies [Eh]
    ---------------------

    Doubly Occupied:

       1A    -11.245271     2A    -11.237221     3A    -11.236155
       4A    -11.235148     5A    -11.233996     6A    -11.233326
       7A    -11.232592     8A    -11.232523     9A    -11.231131
      10A    -11.230476    11A    -11.228174    12A    -11.227285
      13A    -11.224348    14A    -11.222314    15A     -1.152324
      16A     -1.138618    17A     -1.043760    18A     -1.034794
      19A     -1.012937    20A     -0.999917    21A     -0.932130
      22A     -0.922314    23A     -0.825984    24A     -0.816611
      25A     -0.796538    26A     -0.785757    27A     -0.692248
      28A     -0.681209    29A     -0.633037    30A     -0.630745
      31A     -0.626072    32A     -0.619796    33A     -0.584831
      34A     -0.580515    35A     -0.572997    36A     -0.570088
      37A     -0.562023    38A     -0.554365    39A     -0.536730
      40A     -0.527956    41A     -0.491716    42A     -0.486168
      43A     -0.482579    44A     -0.476793    45A     -0.473109
      46A     -0.472752    47A     -0.335743    48A     -0.325863
      49A     -0.317853    50A     -0.312329

    Virtual:

      51A      0.130574    52A      0.135404    53A      0.141681
      54A      0.149356    55A      0.172820    56A      0.193014
      57A      0.199698    58A      0.201872    59A      0.223637
      60A      0.233641    61A      0.237523    62A      0.249668
      63A      0.253511    64A      0.262560    65A      0.269829
      66A      0.276412    67A      0.285294    68A      0.289103
      69A      0.301185    70A      0.328053    71A      0.364076
      72A      0.367139    73A      0.374971    74A      0.383574
      75A      0.451723    76A      0.454985    77A      0.460629
      78A      0.465464    79A      0.473650    80A      0.481899
      81A      0.491555    82A      0.499618    83A      0.559050
      84A      0.566684    85A      0.586003    86A      0.604089
      87A      0.611293    88A      0.638161    89A      0.664435
      90A      0.674198    91A      0.676290    92A      0.685980
      93A      0.695812    94A      0.704342    95A      0.708151
      96A      0.725371    97A      0.732038    98A      0.737597
      99A      0.743848   100A      0.745815   101A      0.748200
     102A      0.751313   103A      0.756169   104A      0.760057
     105A      0.773493   106A      0.775375   107A      0.780538
     108A      0.800471   109A      0.816600   110A      0.824517
     111A      0.838453   112A      0.854228   113A      0.856832
     114A      0.862081   115A      0.872810   116A      0.874532
     117A      0.883002   118A      0.888782   119A      0.893060
     120A      0.896645   121A      0.899949   122A      0.907365
     123A      0.910350   124A      0.923103   125A      0.928499
     126A      0.937424   127A      0.941964   128A      0.957495
     129A      0.982252   130A      0.993507   131A      0.997337
     132A      1.012549   133A      1.033459   134A      1.052511
     135A      1.057588   136A      1.089316   137A      1.110640
     138A      1.122648   139A      1.130145   140A      1.143673
     141A      1.155200   142A      1.159056   143A      1.161721
     144A      1.167603   145A      1.192725   146A      1.196168
     147A      1.225577   148A      1.236907   149A      1.243650
     150A      1.249242   151A      1.254267   152A      1.256580
     153A      1.260336   154A      1.275513   155A      1.301442
     156A      1.305445   157A      1.310399   158A      1.312884
     159A      1.320129   160A      1.323793   161A      1.327305
     162A      1.368320   163A      1.419986   164A      1.427361
     165A      1.498828   166A      1.509484   167A      1.527200
     168A      1.539745   169A      1.559176   170A      1.577328
     171A      1.595751   172A      1.621235   173A      1.668132
     174A      1.690726   175A      1.693471   176A      1.702247
     177A      1.731083   178A      1.739300   179A      1.743423
     180A      1.748761   181A      1.762261   182A      1.777622
     183A      1.793689   184A      1.799459   185A      1.808723
     186A      1.824798   187A      1.852992   188A      1.857052
     189A      1.880835   190A      1.891116   191A      1.894362
     192A      1.904233   193A      1.910088   194A      1.916348
     195A      1.919978   196A      1.924743   197A      1.930676
     198A      1.938834   199A      1.942374   200A      1.948212
     201A      1.956647   202A      1.961505   203A      1.967101
     204A      1.975574   205A      1.979808   206A      1.986434
     207A      2.005338   208A      2.009019   209A      2.040296
     210A      2.040955   211A      2.051777   212A      2.065913
     213A      2.070788   214A      2.075652   215A      2.109854
     216A      2.113952   217A      2.133778   218A      2.147273
     219A      2.153470   220A      2.158916   221A      2.163523
     222A      2.167757   223A      2.173574   224A      2.180140
     225A      2.184496   226A      2.194804   227A      2.247257
     228A      2.252715   229A      2.274759   230A      2.279914
     231A      2.289982   232A      2.297070   233A      2.299766
     234A      2.301706   235A      2.314991   236A      2.324410
     237A      2.334586   238A      2.369736   239A      2.457953
     240A      2.460541   241A      2.470782   242A      2.487379
     243A      2.505905   244A      2.513855   245A      2.533758
     246A      2.535097   247A      2.617955   248A      2.628635
     249A      2.738294   250A      2.743184   251A      2.751866
     252A      2.757427   253A      2.766396   254A      2.777958
     255A      2.787919   256A      2.797554   257A      2.807107
     258A      2.826466   259A      2.842005   260A      2.848353
     261A      2.869652   262A      2.884262   263A      2.967509
     264A      2.981240   265A      3.002359   266A      3.010523
     267A      3.021388   268A      3.037770   269A      3.147941
     270A      3.148366   271A      3.189507   272A      3.196920
     273A      3.288729   274A      3.296117   275A      3.939255
     276A      3.962409

    Final Occupation by Irrep:
              A
    DOCC [    50 ]

  @RHF Final Energy:  -539.51847678086040

   => Energetics <=

    Nuclear Repulsion Energy =            798.5458044655994172
    One-Electron Energy =               -2313.6102359066071585
    Two-Electron Energy =                 975.5459546601474585
    Total Energy =                       -539.5184767808603965

Computation Completed

Properties will be evaluated at   0.000000,   0.000000,   0.000000 [a0]

Properties computed using the SCF density matrix

  Nuclear Dipole Moment: [e a0]
     X:    -0.6766      Y:     1.5877      Z:     4.6466

  Electronic Dipole Moment: [e a0]
     X:     0.7160      Y:    -1.4181      Z:    -4.4849

  Dipole Moment: [e a0]
     X:     0.0394      Y:     0.1696      Z:     0.1617     Total:     0.2377

  Dipole Moment: [D]
     X:     0.1002      Y:     0.4311      Z:     0.4111     Total:     0.6041

*** tstop() called on ds3 at Tue Apr 28 20:07:50 2020
Module time:
	user time   =     345.36 seconds =       5.76 minutes
	system time =     114.77 seconds =       1.91 minutes
	total time  =        452 seconds =       7.53 minutes
Total time:
	user time   =     345.36 seconds =       5.76 minutes
	system time =     114.77 seconds =       1.91 minutes
	total time  =        452 seconds =       7.53 minutes
                                     G D M A

                                 by Anthony Stone

                           version 2.2.06, 22 June 2011

               Distributed Multipoles from Gaussian wavefunctions

Starting at 20:7:50 on 28 Apr 2020

Using SCF density matrix from file ./SSI/SSI-038PHE-042PHE-1-dimer.test.6881.fchk

                         Distributed Multipole Analysis

Standard DMA

Positions and radii in angstrom
Multipole moments in atomic units, ea_0^k for rank k

C          x = -1.218599  y =  3.348697  z =  1.742123 angstrom
           Maximum rank =  0   Radius =  0.650 angstrom
                   Q00  =  -0.197865

C          x = -0.181599  y =  2.534697  z = -0.417877 angstrom
           Maximum rank =  0   Radius =  0.650 angstrom
                   Q00  =  -0.091613

C          x = -0.098599  y =  2.678697  z =  0.971123 angstrom
           Maximum rank =  0   Radius =  0.650 angstrom
                   Q00  =  -0.111899

C          x =  0.833401  y =  1.882697  z = -1.122877 angstrom
           Maximum rank =  0   Radius =  0.650 angstrom
                   Q00  =  -0.058720

C          x =  1.930401  y =  1.367697  z = -0.436877 angstrom
           Maximum rank =  0   Radius =  0.650 angstrom
                   Q00  =  -0.011915

C          x =  1.015401  y =  2.159697  z =  1.646123 angstrom
           Maximum rank =  0   Radius =  0.650 angstrom
                   Q00  =  -0.059589

C          x =  2.023401  y =  1.505697  z =  0.944123 angstrom
           Maximum rank =  0   Radius =  0.650 angstrom
                   Q00  =  -0.077426

H          x = -1.038599  y =  2.919697  z = -0.950877 angstrom
           Maximum rank =  0   Radius =  0.325 angstrom
                   Q00  =   0.057793

H          x =  0.782401  y =  1.781697  z = -2.193877 angstrom
           Maximum rank =  0   Radius =  0.325 angstrom
                   Q00  =   0.069188

H          x = -1.779599  y =  3.988697  z =  1.060123 angstrom
           Maximum rank =  0   Radius =  0.325 angstrom
                   Q00  =   0.097939

H          x = -0.787599  y =  3.991697  z =  2.511123 angstrom
           Maximum rank =  0   Radius =  0.325 angstrom
                   Q00  =   0.100598

H          x =  2.698401  y =  0.853697  z = -0.982877 angstrom
           Maximum rank =  0   Radius =  0.325 angstrom
                   Q00  =   0.063740

H          x =  1.103401  y =  2.262697  z =  2.719123 angstrom
           Maximum rank =  0   Radius =  0.325 angstrom
                   Q00  =   0.056759

H          x =  2.877401  y =  1.096697  z =  1.461123 angstrom
           Maximum rank =  0   Radius =  0.325 angstrom
                   Q00  =   0.064734

H          x = -1.912109  y =  2.629317  z =  2.202063 angstrom
           Maximum rank =  0   Radius =  0.325 angstrom
                   Q00  =   0.103967

C          x =  0.738401  y = -2.204303  z =  1.572123 angstrom
           Maximum rank =  0   Radius =  0.650 angstrom
                   Q00  =  -0.197192

C          x = -0.842599  y = -1.102303  z = -0.057877 angstrom
           Maximum rank =  0   Radius =  0.650 angstrom
                   Q00  =  -0.076159

C          x = -0.051599  y = -2.205303  z =  0.290123 angstrom
           Maximum rank =  0   Radius =  0.650 angstrom
                   Q00  =  -0.102886

C          x = -1.623599  y = -1.134303  z = -1.229877 angstrom
           Maximum rank =  0   Radius =  0.650 angstrom
                   Q00  =  -0.064093

C          x = -0.041599  y = -3.336303  z = -0.543877 angstrom
           Maximum rank =  0   Radius =  0.650 angstrom
                   Q00  =  -0.008634

C          x = -1.607599  y = -2.266303  z = -2.056877 angstrom
           Maximum rank =  0   Radius =  0.650 angstrom
                   Q00  =  -0.083042

C          x = -0.814599  y = -3.371303  z = -1.715877 angstrom
           Maximum rank =  0   Radius =  0.650 angstrom
                   Q00  =  -0.081908

H          x = -0.859599  y = -0.227303  z =  0.575123 angstrom
           Maximum rank =  0   Radius =  0.325 angstrom
                   Q00  =   0.067249

H          x = -2.242599  y = -0.288303  z = -1.486877 angstrom
           Maximum rank =  0   Radius =  0.325 angstrom
                   Q00  =   0.060995

H          x =  0.863401  y = -1.182303  z =  1.933123 angstrom
           Maximum rank =  0   Radius =  0.325 angstrom
                   Q00  =   0.105630

H          x =  1.731401  y = -2.599303  z =  1.352123 angstrom
           Maximum rank =  0   Radius =  0.325 angstrom
                   Q00  =   0.093936

H          x =  0.571401  y = -4.188303  z = -0.285877 angstrom
           Maximum rank =  0   Radius =  0.325 angstrom
                   Q00  =   0.055002

H          x = -2.207599  y = -2.285303  z = -2.955877 angstrom
           Maximum rank =  0   Radius =  0.325 angstrom
                   Q00  =   0.060065

H          x = -0.792599  y = -4.241303  z = -2.356877 angstrom
           Maximum rank =  0   Radius =  0.325 angstrom
                   Q00  =   0.064821

H          x =  0.270781  y = -2.818453  z =  2.355803 angstrom
           Maximum rank =  0   Radius =  0.325 angstrom
                   Q00  =   0.100526

Total multipoles referred to origin at
           x =   0.000000,  y =    0.000000,  z =    0.000000 angstrom
                   Q00  =  -0.000000

Finished at 20:7:50 on 28 Apr 2020

  DMA results are available in the Python driver through the
	  variable('DMA DISTRIBUTED MULTIPOLES')
  and
	  variable('DMA TOTAL MULTIPOLES')
  commands.

    Psi4 stopped on: Tuesday, 28 April 2020 08:07PM
    Psi4 wall time for execution: 0:07:31.70

*** Psi4 exiting successfully. Buy a developer a beer!
