                               Psi4 1.3.2 release

  ==> Input File <==

--------------------------------------------------------------------------
import numpy as np
set {scf_type pk
basis cc-pvdz
d_convergence 10
gdma_switch   0
gdma_limit    0
gdma_origin   [ 0.0,  0.0,  0.0 ]
}
molecule test {
    units Angstrom
    0 1
    --
    0 1
    C                1.198784265496642     0.044253282130405    -0.407850058326188
    C                1.630784265496642     0.003253282130405    -1.870850058326188
    C                2.297784265496642     0.528253282130405     0.460149941673812
    H                0.329784265496642     0.693253282130404    -0.289850058326188
    H                0.938784265496642    -0.954746717869595    -0.056850058326188
    H                2.637784265496642    -0.410746717869595    -1.955850058326188
    H                2.541784265496642     1.561253282130404     0.230149941673812
    H                1.972784265496642     0.479253282130405     1.498149941673812
    H                3.187784265496641    -0.088746717869595     0.338149941673812
    H                0.920929265496642    -0.658302717869596    -2.388970058326188
    H                1.630075265496642     1.017078282130405    -2.297650058326188
    C               -2.355215734503358    -0.456746717869595     0.172149941673812
    C               -2.691215734503359    -0.106746717869595     1.611149941673812
    H               -2.233215734503358     0.445253282130405    -0.428850058326188
    H               -1.439215734503358    -1.045746717869595     0.142149941673812
    H               -3.161215734503358    -1.063746717869596    -0.239850058326188
    H               -2.810215734503358    -1.034746717869595     2.174149941673812
    H               -3.630306434503358     0.464971282130405     1.646459941673812
    H               -1.849057134503358     0.449666282130405     2.048379941673812

}
e, wfn = energy('scf', return_wfn=True)
gdma(wfn)
dmavals = variable('DMA DISTRIBUTED MULTIPOLES')
charges = np.array(dmavals)
print(charges)
np.save('SSI-105ILE-131ALA-1-dimer.npy', np.array(charges))--------------------------------------------------------------------------

*** tstart() called on ds3
*** at Mon Apr 27 16:45:02 2020

   => Loading Basis Set <=

    Name: CC-PVDZ
    Role: ORBITAL
    Keyword: BASIS
    atoms 1-3, 12-13  entry C          line   138 file /theoryfs2/ds/metcalf/miniconda2/envs/tf2gpu/share/psi4/basis/cc-pvdz.gbs
    atoms 4-11, 14-19 entry H          line    22 file /theoryfs2/ds/metcalf/miniconda2/envs/tf2gpu/share/psi4/basis/cc-pvdz.gbs

         ---------------------------------------------------------
                                   SCF
               by Justin Turney, Rob Parrish, Andy Simmonett
                          and Daniel G. A. Smith
                              RHF Reference
                        1 Threads,    500 MiB Core
         ---------------------------------------------------------

  ==> Geometry <==

    Molecular point group: c1
    Full point group: C1

    Geometry (in Angstrom), charge = 0, multiplicity = 1:

       Center              X                  Y                   Z               Mass
    ------------   -----------------  -----------------  -----------------  -----------------
         C            1.198784265497     0.044253282130    -0.407850058326    12.000000000000
         C            1.630784265497     0.003253282130    -1.870850058326    12.000000000000
         C            2.297784265497     0.528253282130     0.460149941674    12.000000000000
         H            0.329784265497     0.693253282130    -0.289850058326     1.007825032230
         H            0.938784265497    -0.954746717870    -0.056850058326     1.007825032230
         H            2.637784265497    -0.410746717870    -1.955850058326     1.007825032230
         H            2.541784265497     1.561253282130     0.230149941674     1.007825032230
         H            1.972784265497     0.479253282130     1.498149941674     1.007825032230
         H            3.187784265497    -0.088746717870     0.338149941674     1.007825032230
         H            0.920929265497    -0.658302717870    -2.388970058326     1.007825032230
         H            1.630075265497     1.017078282130    -2.297650058326     1.007825032230
         C           -2.355215734503    -0.456746717870     0.172149941674    12.000000000000
         C           -2.691215734503    -0.106746717870     1.611149941674    12.000000000000
         H           -2.233215734503     0.445253282130    -0.428850058326     1.007825032230
         H           -1.439215734503    -1.045746717870     0.142149941674     1.007825032230
         H           -3.161215734503    -1.063746717870    -0.239850058326     1.007825032230
         H           -2.810215734503    -1.034746717870     2.174149941674     1.007825032230
         H           -3.630306434503     0.464971282130     1.646459941674     1.007825032230
         H           -1.849057134503     0.449666282130     2.048379941674     1.007825032230

  Running in c1 symmetry.

  Rotational constants: A =      0.21854  B =      0.04274  C =      0.03705 [cm^-1]
  Rotational constants: A =   6551.61607  B =   1281.22881  C =   1110.86467 [MHz]
  Nuclear repulsion =  179.773336876921974

  Charge       = 0
  Multiplicity = 1
  Electrons    = 44
  Nalpha       = 22
  Nbeta        = 22

  ==> Algorithm <==

  SCF Algorithm Type is PK.
  DIIS enabled.
  MOM disabled.
  Fractional occupation disabled.
  Guess Type is SAD.
  Energy threshold   = 1.00e-06
  Density threshold  = 1.00e-10
  Integral threshold = 0.00e+00

  ==> Primary Basis <==

  Basis Set: CC-PVDZ
    Blend: CC-PVDZ
    Number of shells: 72
    Number of basis function: 140
    Number of Cartesian functions: 145
    Spherical Harmonics?: true
    Max angular momentum: 2

  ==> Pre-Iterations <==

   -------------------------------------------------------
    Irrep   Nso     Nmo     Nalpha   Nbeta   Ndocc  Nsocc
   -------------------------------------------------------
     A        140     140       0       0       0       0
   -------------------------------------------------------
    Total     140     140      22      22      22       0
   -------------------------------------------------------

  ==> Integral Setup <==

  Using integral reordering PK algorithm.
  Sizing the integral batches needed.
  Building batch lookup table.
   Calculation information:
      Number of atoms:                  19
      Number of AO shells:              72
      Number of primitives:            180
      Number of atomic orbitals:       145
      Number of basis functions:       140

      Integral cutoff                 1.00e-12
      Number of threads:                 1

	Batch   1 pq = [       0,    9405] index = [             0,44231715] size =     44231715
	Batch   2 pq = [    9405,    9870] index = [      44231715,48713385] size =      4481670
  Task number: 5
  Buffer size: 11059200
  Buffer per thread: 2
  We computed 2893652 shell quartets total.
  Whereas there are 3454506 unique shell quartets.

  ==> DiskJK: Disk-Based J/K Matrices <==

    J tasked:                  Yes
    K tasked:                  Yes
    wK tasked:                  No
    Memory [MiB]:              375
    Schwarz Cutoff:          1E-12

    OpenMP threads:              1

  Minimum eigenvalue in the overlap matrix is 4.8546161382E-03.
  Using Symmetric Orthogonalization.

  SCF Guess: Superposition of Atomic Densities via on-the-fly atomic UHF.

  ==> Iterations <==

                        Total Energy        Delta E     RMS |[F,P]|

   @RHF iter SAD:  -196.48917359933188   -1.96489e+02   0.00000e+00
   @RHF iter   1:  -197.30078224319297   -8.11609e-01   3.88992e-03 DIIS
   @RHF iter   2:  -197.46585243909638   -1.65070e-01   1.69896e-03 DIIS
   @RHF iter   3:  -197.49612820496628   -3.02758e-02   3.31209e-04 DIIS
   @RHF iter   4:  -197.49841220597816   -2.28400e-03   5.03177e-05 DIIS
   @RHF iter   5:  -197.49845323774676   -4.10318e-05   1.53176e-05 DIIS
   @RHF iter   6:  -197.49845680990873   -3.57216e-06   2.45501e-06 DIIS
   @RHF iter   7:  -197.49845691804555   -1.08137e-07   4.49956e-07 DIIS
   @RHF iter   8:  -197.49845692187256   -3.82701e-09   1.11007e-07 DIIS
   @RHF iter   9:  -197.49845692209618   -2.23622e-10   3.29442e-08 DIIS
   @RHF iter  10:  -197.49845692211946   -2.32774e-11   7.27998e-09 DIIS
   @RHF iter  11:  -197.49845692212045   -9.94760e-13   1.45704e-09 DIIS
   @RHF iter  12:  -197.49845692212159   -1.13687e-12   2.98513e-10 DIIS
   @RHF iter  13:  -197.49845692212088    7.10543e-13   6.06710e-11 DIIS
  Energy and wave function converged.

  ==> Post-Iterations <==

    Orbital Energies [Eh]
    ---------------------

    Doubly Occupied:

       1A    -11.218755     2A    -11.216368     3A    -11.214569
       4A    -11.214293     5A    -11.209289     6A     -1.064109
       7A     -1.021061     8A     -0.924863     9A     -0.834210
      10A     -0.794173    11A     -0.632272    12A     -0.604670
      13A     -0.599336    14A     -0.595210    15A     -0.554288
      16A     -0.531701    17A     -0.500371    18A     -0.489432
      19A     -0.484472    20A     -0.473189    21A     -0.465182
      22A     -0.461355

    Virtual:

      23A      0.168470    24A      0.195995    25A      0.213366
      26A      0.218006    27A      0.233210    28A      0.254106
      29A      0.256256    30A      0.267630    31A      0.269440
      32A      0.285015    33A      0.302851    34A      0.305840
      35A      0.318136    36A      0.352984    37A      0.384227
      38A      0.399160    39A      0.431789    40A      0.580770
      41A      0.585576    42A      0.600492    43A      0.602958
      44A      0.610791    45A      0.618261    46A      0.633201
      47A      0.648999    48A      0.682200    49A      0.778133
      50A      0.799527    51A      0.815423    52A      0.849715
      53A      0.863144    54A      0.882447    55A      0.886878
      56A      0.892482    57A      0.896304    58A      0.901861
      59A      0.904872    60A      0.910569    61A      0.913054
      62A      0.926963    63A      0.932648    64A      0.934691
      65A      0.961271    66A      0.965659    67A      0.988234
      68A      1.002834    69A      1.123805    70A      1.129037
      71A      1.136522    72A      1.166510    73A      1.204769
      74A      1.259308    75A      1.409485    76A      1.458587
      77A      1.478287    78A      1.487656    79A      1.501752
      80A      1.537433    81A      1.575533    82A      1.633390
      83A      1.668232    84A      1.678023    85A      1.693969
      86A      1.698053    87A      1.737291    88A      1.850773
      89A      1.864076    90A      1.866495    91A      1.880362
      92A      1.892150    93A      1.897778    94A      1.912967
      95A      1.925922    96A      1.938671    97A      1.945061
      98A      1.951299    99A      1.965536   100A      1.974788
     101A      1.981149   102A      1.983146   103A      1.992943
     104A      2.001166   105A      2.020642   106A      2.051962
     107A      2.081080   108A      2.117668   109A      2.125356
     110A      2.157232   111A      2.162459   112A      2.282568
     113A      2.292553   114A      2.296609   115A      2.314202
     116A      2.342724   117A      2.375764   118A      2.459859
     119A      2.466168   120A      2.500509   121A      2.544768
     122A      2.567854   123A      2.577237   124A      2.581856
     125A      2.627073   126A      2.645562   127A      2.759746
     128A      2.765163   129A      2.774093   130A      2.790376
     131A      2.801393   132A      2.830372   133A      2.842377
     134A      2.852528   135A      2.908395   136A      2.942894
     137A      2.962977   138A      2.986246   139A      2.991474
     140A      3.091000

    Final Occupation by Irrep:
              A
    DOCC [    22 ]

  @RHF Final Energy:  -197.49845692212088

   => Energetics <=

    Nuclear Repulsion Energy =            179.7733368769219737
    One-Electron Energy =                -620.3372542813319797
    Two-Electron Energy =                 243.0654604822891258
    Total Energy =                       -197.4984569221208801

Computation Completed

Properties will be evaluated at   0.000000,   0.000000,   0.000000 [a0]

Properties computed using the SCF density matrix

  Nuclear Dipole Moment: [e a0]
     X:    -0.9033      Y:    -0.1369      Z:     0.3935

  Electronic Dipole Moment: [e a0]
     X:     0.8805      Y:     0.1125      Z:    -0.3823

  Dipole Moment: [e a0]
     X:    -0.0228      Y:    -0.0244      Z:     0.0112     Total:     0.0352

  Dipole Moment: [D]
     X:    -0.0579      Y:    -0.0620      Z:     0.0284     Total:     0.0895

*** tstop() called on ds3 at Mon Apr 27 16:45:27 2020
Module time:
	user time   =      19.43 seconds =       0.32 minutes
	system time =       7.32 seconds =       0.12 minutes
	total time  =         25 seconds =       0.42 minutes
Total time:
	user time   =      19.43 seconds =       0.32 minutes
	system time =       7.32 seconds =       0.12 minutes
	total time  =         25 seconds =       0.42 minutes
                                     G D M A

                                 by Anthony Stone

                           version 2.2.06, 22 June 2011

               Distributed Multipoles from Gaussian wavefunctions

Starting at 16:45:27 on 27 Apr 2020

Using SCF density matrix from file ./SSI/SSI-105ILE-131ALA-1-dimer.test.27918.fchk

                         Distributed Multipole Analysis

Standard DMA

Positions and radii in angstrom
Multipole moments in atomic units, ea_0^k for rank k

C          x =  1.198784  y =  0.044253  z = -0.407850 angstrom
           Maximum rank =  0   Radius =  0.650 angstrom
                   Q00  =  -0.067578

C          x =  1.630784  y =  0.003253  z = -1.870850 angstrom
           Maximum rank =  0   Radius =  0.650 angstrom
                   Q00  =  -0.237644

C          x =  2.297784  y =  0.528253  z =  0.460150 angstrom
           Maximum rank =  0   Radius =  0.650 angstrom
                   Q00  =  -0.231447

H          x =  0.329784  y =  0.693253  z = -0.289850 angstrom
           Maximum rank =  0   Radius =  0.325 angstrom
                   Q00  =   0.048768

H          x =  0.938784  y = -0.954747  z = -0.056850 angstrom
           Maximum rank =  0   Radius =  0.325 angstrom
                   Q00  =   0.037266

H          x =  2.637784  y = -0.410747  z = -1.955850 angstrom
           Maximum rank =  0   Radius =  0.325 angstrom
                   Q00  =   0.074987

H          x =  2.541784  y =  1.561253  z =  0.230150 angstrom
           Maximum rank =  0   Radius =  0.325 angstrom
                   Q00  =   0.070508

H          x =  1.972784  y =  0.479253  z =  1.498150 angstrom
           Maximum rank =  0   Radius =  0.325 angstrom
                   Q00  =   0.074479

H          x =  3.187784  y = -0.088747  z =  0.338150 angstrom
           Maximum rank =  0   Radius =  0.325 angstrom
                   Q00  =   0.072743

H          x =  0.920929  y = -0.658303  z = -2.388970 angstrom
           Maximum rank =  0   Radius =  0.325 angstrom
                   Q00  =   0.079534

H          x =  1.630075  y =  1.017078  z = -2.297650 angstrom
           Maximum rank =  0   Radius =  0.325 angstrom
                   Q00  =   0.079446

C          x = -2.355216  y = -0.456747  z =  0.172150 angstrom
           Maximum rank =  0   Radius =  0.650 angstrom
                   Q00  =  -0.219978

C          x = -2.691216  y = -0.106747  z =  1.611150 angstrom
           Maximum rank =  0   Radius =  0.650 angstrom
                   Q00  =  -0.247374

H          x = -2.233216  y =  0.445253  z = -0.428850 angstrom
           Maximum rank =  0   Radius =  0.325 angstrom
                   Q00  =   0.077410

H          x = -1.439216  y = -1.045747  z =  0.142150 angstrom
           Maximum rank =  0   Radius =  0.325 angstrom
                   Q00  =   0.082546

H          x = -3.161216  y = -1.063747  z = -0.239850 angstrom
           Maximum rank =  0   Radius =  0.325 angstrom
                   Q00  =   0.074942

H          x = -2.810216  y = -1.034747  z =  2.174150 angstrom
           Maximum rank =  0   Radius =  0.325 angstrom
                   Q00  =   0.076873

H          x = -3.630306  y =  0.464971  z =  1.646460 angstrom
           Maximum rank =  0   Radius =  0.325 angstrom
                   Q00  =   0.079074

H          x = -1.849057  y =  0.449666  z =  2.048380 angstrom
           Maximum rank =  0   Radius =  0.325 angstrom
                   Q00  =   0.075444

Total multipoles referred to origin at
           x =   0.000000,  y =    0.000000,  z =    0.000000 angstrom
                   Q00  =  -0.000000

Finished at 16:45:27 on 27 Apr 2020

  DMA results are available in the Python driver through the
	  variable('DMA DISTRIBUTED MULTIPOLES')
  and
	  variable('DMA TOTAL MULTIPOLES')
  commands.

    Psi4 stopped on: Monday, 27 April 2020 04:45PM
    Psi4 wall time for execution: 0:00:25.77

*** Psi4 exiting successfully. Buy a developer a beer!
