                               Psi4 1.3.2 release

  ==> Input File <==

--------------------------------------------------------------------------
import numpy as np
set {scf_type pk
basis cc-pvdz
d_convergence 10
gdma_switch   0
gdma_limit    0
gdma_origin   [ 0.0,  0.0,  0.0 ]
}
molecule test {
    units Angstrom
    0 1
    --
    0 1
    C                2.944762302757007    -0.878215038390512     0.616191698166382
    C                3.808762302757007    -0.269215038390512     1.705191698166382
    H                2.095762302757007    -1.395215038390512     1.064191698166382
    H                2.573762302757006    -0.094215038390512    -0.045808301833618
    H                3.517762302757006    -1.592215038390512     0.032191698166382
    H                4.599762302757006     0.296784961609488     1.214191698166382
    H                4.257440802757007    -1.069655038390512     2.311801698166382
    H                3.206932802757007     0.425144961609488     2.309891698166382
    C               -0.670237697242994    -2.171215038390512    -0.813808301833618
    C               -0.689237697242994    -0.194215038390512     0.716191698166382
    C               -0.943237697242994    -0.731215038390512    -0.535808301833618
    C               -0.942237697242994     1.160784961609488     0.956191698166382
    C               -1.431237697242993     0.109784961609488    -1.538808301833618
    C               -1.414237697242994     1.972784961609488    -0.072808301833618
    C               -1.685237697242993     1.457784961609488    -1.296808301833618
    H               -0.308237697242993    -0.819215038390513     1.512191698166382
    H               -0.747237697242993     1.584784961609488     1.932191698166382
    H                0.210762302757007    -2.480215038390512    -0.248808301833618
    H               -0.430237697242993    -2.283215038390513    -1.872808301833618
    H               -1.635237697242993    -0.293215038390512    -2.521808301833618
    H               -1.585237697242994     3.024784961609488     0.114191698166382
    H               -2.074237697242993     2.090784961609488    -2.083808301833618
    H               -1.511321697242994    -2.837315038390512    -0.571128301833618

}
e, wfn = energy('scf', return_wfn=True)
gdma(wfn)
dmavals = variable('DMA DISTRIBUTED MULTIPOLES')
charges = np.array(dmavals)
print(charges)
np.save('SSI-060LEU-152PHE-1-dimer.npy', np.array(charges))--------------------------------------------------------------------------

*** tstart() called on ds3
*** at Mon Apr 27 20:43:45 2020

   => Loading Basis Set <=

    Name: CC-PVDZ
    Role: ORBITAL
    Keyword: BASIS
    atoms 1-2, 9-15  entry C          line   138 file /theoryfs2/ds/metcalf/miniconda2/envs/tf2gpu/share/psi4/basis/cc-pvdz.gbs
    atoms 3-8, 16-23 entry H          line    22 file /theoryfs2/ds/metcalf/miniconda2/envs/tf2gpu/share/psi4/basis/cc-pvdz.gbs

         ---------------------------------------------------------
                                   SCF
               by Justin Turney, Rob Parrish, Andy Simmonett
                          and Daniel G. A. Smith
                              RHF Reference
                        1 Threads,    500 MiB Core
         ---------------------------------------------------------

  ==> Geometry <==

    Molecular point group: c1
    Full point group: C1

    Geometry (in Angstrom), charge = 0, multiplicity = 1:

       Center              X                  Y                   Z               Mass
    ------------   -----------------  -----------------  -----------------  -----------------
         C            2.944762302757    -0.878215038391     0.616191698166    12.000000000000
         C            3.808762302757    -0.269215038391     1.705191698166    12.000000000000
         H            2.095762302757    -1.395215038391     1.064191698166     1.007825032230
         H            2.573762302757    -0.094215038391    -0.045808301834     1.007825032230
         H            3.517762302757    -1.592215038391     0.032191698166     1.007825032230
         H            4.599762302757     0.296784961609     1.214191698166     1.007825032230
         H            4.257440802757    -1.069655038391     2.311801698166     1.007825032230
         H            3.206932802757     0.425144961609     2.309891698166     1.007825032230
         C           -0.670237697243    -2.171215038391    -0.813808301834    12.000000000000
         C           -0.689237697243    -0.194215038391     0.716191698166    12.000000000000
         C           -0.943237697243    -0.731215038391    -0.535808301834    12.000000000000
         C           -0.942237697243     1.160784961609     0.956191698166    12.000000000000
         C           -1.431237697243     0.109784961609    -1.538808301834    12.000000000000
         C           -1.414237697243     1.972784961609    -0.072808301834    12.000000000000
         C           -1.685237697243     1.457784961609    -1.296808301834    12.000000000000
         H           -0.308237697243    -0.819215038391     1.512191698166     1.007825032230
         H           -0.747237697243     1.584784961609     1.932191698166     1.007825032230
         H            0.210762302757    -2.480215038391    -0.248808301834     1.007825032230
         H           -0.430237697243    -2.283215038391    -1.872808301834     1.007825032230
         H           -1.635237697243    -0.293215038391    -2.521808301834     1.007825032230
         H           -1.585237697243     3.024784961609     0.114191698166     1.007825032230
         H           -2.074237697243     2.090784961609    -2.083808301834     1.007825032230
         H           -1.511321697243    -2.837315038391    -0.571128301834     1.007825032230

  Running in c1 symmetry.

  Rotational constants: A =      0.06804  B =      0.02632  C =      0.02157 [cm^-1]
  Rotational constants: A =   2039.64040  B =    789.18327  C =    646.66127 [MHz]
  Nuclear repulsion =  409.317532297975617

  Charge       = 0
  Multiplicity = 1
  Electrons    = 68
  Nalpha       = 34
  Nbeta        = 34

  ==> Algorithm <==

  SCF Algorithm Type is PK.
  DIIS enabled.
  MOM disabled.
  Fractional occupation disabled.
  Guess Type is SAD.
  Energy threshold   = 1.00e-06
  Density threshold  = 1.00e-10
  Integral threshold = 0.00e+00

  ==> Primary Basis <==

  Basis Set: CC-PVDZ
    Blend: CC-PVDZ
    Number of shells: 96
    Number of basis function: 196
    Number of Cartesian functions: 205
    Spherical Harmonics?: true
    Max angular momentum: 2

  ==> Pre-Iterations <==

   -------------------------------------------------------
    Irrep   Nso     Nmo     Nalpha   Nbeta   Ndocc  Nsocc
   -------------------------------------------------------
     A        196     196       0       0       0       0
   -------------------------------------------------------
    Total     196     196      34      34      34       0
   -------------------------------------------------------

  ==> Integral Setup <==

  Using integral reordering PK algorithm.
  Sizing the integral batches needed.
  Building batch lookup table.
   Calculation information:
      Number of atoms:                  23
      Number of AO shells:              96
      Number of primitives:            268
      Number of atomic orbitals:       205
      Number of basis functions:       196

      Integral cutoff                 1.00e-12
      Number of threads:                 1

	Batch   1 pq = [       0,    9405] index = [             0,44231715] size =     44231715
	Batch   2 pq = [    9405,   13301] index = [      44231715,88464951] size =     44233236
	Batch   3 pq = [   13301,   16290] index = [      88464951,132690195] size =     44225244
	Batch   4 pq = [   16290,   18810] index = [     132690195,176917455] size =     44227260
	Batch   5 pq = [   18810,   19306] index = [     176917455,186370471] size =      9453016
  Task number: 17
  Buffer size: 11059200
  Buffer per thread: 2
  We computed 9597660 shell quartets total.
  Whereas there are 10841496 unique shell quartets.

  ==> DiskJK: Disk-Based J/K Matrices <==

    J tasked:                  Yes
    K tasked:                  Yes
    wK tasked:                  No
    Memory [MiB]:              375
    Schwarz Cutoff:          1E-12

    OpenMP threads:              1

  Minimum eigenvalue in the overlap matrix is 3.0373711400E-04.
  Using Symmetric Orthogonalization.

  SCF Guess: Superposition of Atomic Densities via on-the-fly atomic UHF.

  ==> Iterations <==

                        Total Energy        Delta E     RMS |[F,P]|

   @RHF iter SAD:  -347.96983070868026   -3.47970e+02   0.00000e+00
   @RHF iter   1:  -348.76063479848244   -7.90804e-01   2.93311e-03 DIIS
   @RHF iter   2:  -348.95676430082051   -1.96130e-01   1.22806e-03 DIIS
   @RHF iter   3:  -348.98820159346042   -3.14373e-02   2.60042e-04 DIIS
   @RHF iter   4:  -348.99071134941050   -2.50976e-03   5.07760e-05 DIIS
   @RHF iter   5:  -348.99078182974193   -7.04803e-05   1.63519e-05 DIIS
   @RHF iter   6:  -348.99078867329263   -6.84355e-06   4.51862e-06 DIIS
   @RHF iter   7:  -348.99078928244916   -6.09157e-07   1.40399e-06 DIIS
   @RHF iter   8:  -348.99078935953435   -7.70852e-08   4.31980e-07 DIIS
   @RHF iter   9:  -348.99078937699244   -1.74581e-08   2.19480e-07 DIIS
   @RHF iter  10:  -348.99078938195339   -4.96095e-09   9.74047e-08 DIIS
   @RHF iter  11:  -348.99078938316808   -1.21469e-09   3.17490e-08 DIIS
   @RHF iter  12:  -348.99078938324840   -8.03198e-11   1.47259e-08 DIIS
   @RHF iter  13:  -348.99078938325835   -9.94760e-12   4.52675e-09 DIIS
   @RHF iter  14:  -348.99078938326005   -1.70530e-12   1.35255e-09 DIIS
   @RHF iter  15:  -348.99078938326056   -5.11591e-13   6.41772e-10 DIIS
   @RHF iter  16:  -348.99078938325982    7.38964e-13   2.75490e-10 DIIS
   @RHF iter  17:  -348.99078938325823    1.59162e-12   9.27048e-11 DIIS
  Energy and wave function converged.

  ==> Post-Iterations <==

    Orbital Energies [Eh]
    ---------------------

    Doubly Occupied:

       1A    -11.237903     2A    -11.235128     3A    -11.230716
       4A    -11.230182     5A    -11.229122     6A    -11.227217
       7A    -11.226390     8A    -11.216707     9A    -11.212082
      10A     -1.155706    11A     -1.049236    12A     -1.019453
      13A     -1.010139    14A     -0.931584    15A     -0.832791
      16A     -0.826748    17A     -0.793150    18A     -0.691669
      19A     -0.632930    20A     -0.629490    21A     -0.599633
      22A     -0.597697    23A     -0.581892    24A     -0.576896
      25A     -0.562184    26A     -0.533730    27A     -0.497890
      28A     -0.489788    29A     -0.487138    30A     -0.483505
      31A     -0.481980    32A     -0.476630    33A     -0.332095
      34A     -0.322292

    Virtual:

      35A      0.135682    36A      0.143841    37A      0.173684
      38A      0.196817    39A      0.198905    40A      0.220218
      41A      0.236300    42A      0.242271    43A      0.254300
      44A      0.258678    45A      0.264665    46A      0.275890
      47A      0.287272    48A      0.291070    49A      0.295459
      50A      0.353241    51A      0.370866    52A      0.379406
      53A      0.402154    54A      0.455410    55A      0.465695
      56A      0.483514    57A      0.490797    58A      0.564521
      59A      0.578862    60A      0.597909    61A      0.604456
      62A      0.614985    63A      0.650661    64A      0.670217
      65A      0.675557    66A      0.683645    67A      0.696503
      68A      0.713402    69A      0.717272    70A      0.738647
      71A      0.745482    72A      0.753156    73A      0.761853
      74A      0.772972    75A      0.781389    76A      0.815946
      77A      0.841814    78A      0.852852    79A      0.864869
      80A      0.870153    81A      0.872668    82A      0.885580
      83A      0.891990    84A      0.899417    85A      0.903615
      86A      0.908287    87A      0.910546    88A      0.924922
      89A      0.927602    90A      0.937810    91A      0.962526
      92A      0.976150    93A      0.985210    94A      1.002459
      95A      1.018639    96A      1.055016    97A      1.123993
      98A      1.131427    99A      1.137165   100A      1.145234
     101A      1.147739   102A      1.164353   103A      1.191030
     104A      1.237424   105A      1.244216   106A      1.248713
     107A      1.255042   108A      1.266688   109A      1.306674
     110A      1.315786   111A      1.328368   112A      1.335793
     113A      1.416353   114A      1.486096   115A      1.495224
     116A      1.509093   117A      1.520589   118A      1.561374
     119A      1.581672   120A      1.606419   121A      1.674904
     122A      1.677677   123A      1.695596   124A      1.708801
     125A      1.740553   126A      1.753989   127A      1.765766
     128A      1.802850   129A      1.816146   130A      1.855668
     131A      1.864298   132A      1.877726   133A      1.887451
     134A      1.896673   135A      1.911591   136A      1.919958
     137A      1.922577   138A      1.932748   139A      1.947899
     140A      1.949681   141A      1.958367   142A      1.964138
     143A      1.969267   144A      1.973360   145A      1.974131
     146A      1.990931   147A      1.995536   148A      2.002509
     149A      2.044973   150A      2.067446   151A      2.071920
     152A      2.102379   153A      2.110398   154A      2.131235
     155A      2.150484   156A      2.159326   157A      2.171452
     158A      2.187465   159A      2.200011   160A      2.262973
     161A      2.280653   162A      2.297027   163A      2.306453
     164A      2.307335   165A      2.311705   166A      2.323469
     167A      2.324912   168A      2.457355   169A      2.475530
     170A      2.477539   171A      2.483007   172A      2.502578
     173A      2.549909   174A      2.570283   175A      2.582641
     176A      2.628213   177A      2.737076   178A      2.765417
     179A      2.768291   180A      2.776238   181A      2.789918
     182A      2.802316   183A      2.814065   184A      2.845810
     185A      2.855769   186A      2.857484   187A      2.878196
     188A      2.956740   189A      2.974874   190A      2.989780
     191A      3.019019   192A      3.040573   193A      3.166245
     194A      3.210818   195A      3.307117   196A      3.986386

    Final Occupation by Irrep:
              A
    DOCC [    34 ]

  @RHF Final Energy:  -348.99078938325823

   => Energetics <=

    Nuclear Repulsion Energy =            409.3175322979756174
    One-Electron Energy =               -1281.3332625452512730
    Two-Electron Energy =                 523.0249408640174806
    Total Energy =                       -348.9907893832581749

Computation Completed

Properties will be evaluated at   0.000000,   0.000000,   0.000000 [a0]

Properties computed using the SCF density matrix

  Nuclear Dipole Moment: [e a0]
     X:    11.4094      Y:    -5.1019      Z:     2.9499

  Electronic Dipole Moment: [e a0]
     X:   -11.3953      Y:     5.0048      Z:    -3.0023

  Dipole Moment: [e a0]
     X:     0.0141      Y:    -0.0971      Z:    -0.0524     Total:     0.1113

  Dipole Moment: [D]
     X:     0.0358      Y:    -0.2469      Z:    -0.1332     Total:     0.2828

*** tstop() called on ds3 at Mon Apr 27 20:45:16 2020
Module time:
	user time   =      65.93 seconds =       1.10 minutes
	system time =      29.39 seconds =       0.49 minutes
	total time  =         91 seconds =       1.52 minutes
Total time:
	user time   =      65.93 seconds =       1.10 minutes
	system time =      29.39 seconds =       0.49 minutes
	total time  =         91 seconds =       1.52 minutes
                                     G D M A

                                 by Anthony Stone

                           version 2.2.06, 22 June 2011

               Distributed Multipoles from Gaussian wavefunctions

Starting at 20:45:17 on 27 Apr 2020

Using SCF density matrix from file ./SSI/SSI-060LEU-152PHE-1-dimer.test.16590.fchk

                         Distributed Multipole Analysis

Standard DMA

Positions and radii in angstrom
Multipole moments in atomic units, ea_0^k for rank k

C          x =  2.944762  y = -0.878215  z =  0.616192 angstrom
           Maximum rank =  0   Radius =  0.650 angstrom
                   Q00  =  -0.243497

C          x =  3.808762  y = -0.269215  z =  1.705192 angstrom
           Maximum rank =  0   Radius =  0.650 angstrom
                   Q00  =  -0.219315

H          x =  2.095762  y = -1.395215  z =  1.064192 angstrom
           Maximum rank =  0   Radius =  0.325 angstrom
                   Q00  =   0.069267

H          x =  2.573762  y = -0.094215  z = -0.045808 angstrom
           Maximum rank =  0   Radius =  0.325 angstrom
                   Q00  =   0.087218

H          x =  3.517762  y = -1.592215  z =  0.032192 angstrom
           Maximum rank =  0   Radius =  0.325 angstrom
                   Q00  =   0.075148

H          x =  4.599762  y =  0.296785  z =  1.214192 angstrom
           Maximum rank =  0   Radius =  0.325 angstrom
                   Q00  =   0.077005

H          x =  4.257441  y = -1.069655  z =  2.311802 angstrom
           Maximum rank =  0   Radius =  0.325 angstrom
                   Q00  =   0.076368

H          x =  3.206933  y =  0.425145  z =  2.309892 angstrom
           Maximum rank =  0   Radius =  0.325 angstrom
                   Q00  =   0.077821

C          x = -0.670238  y = -2.171215  z = -0.813808 angstrom
           Maximum rank =  0   Radius =  0.650 angstrom
                   Q00  =  -0.196573

C          x = -0.689238  y = -0.194215  z =  0.716192 angstrom
           Maximum rank =  0   Radius =  0.650 angstrom
                   Q00  =  -0.086815

C          x = -0.943238  y = -0.731215  z = -0.535808 angstrom
           Maximum rank =  0   Radius =  0.650 angstrom
                   Q00  =  -0.108621

C          x = -0.942238  y =  1.160785  z =  0.956192 angstrom
           Maximum rank =  0   Radius =  0.650 angstrom
                   Q00  =  -0.076598

C          x = -1.431238  y =  0.109785  z = -1.538808 angstrom
           Maximum rank =  0   Radius =  0.650 angstrom
                   Q00  =  -0.006105

C          x = -1.414238  y =  1.972785  z = -0.072808 angstrom
           Maximum rank =  0   Radius =  0.650 angstrom
                   Q00  =  -0.052173

C          x = -1.685238  y =  1.457785  z = -1.296808 angstrom
           Maximum rank =  0   Radius =  0.650 angstrom
                   Q00  =  -0.068031

H          x = -0.308238  y = -0.819215  z =  1.512192 angstrom
           Maximum rank =  0   Radius =  0.325 angstrom
                   Q00  =   0.057400

H          x = -0.747238  y =  1.584785  z =  1.932192 angstrom
           Maximum rank =  0   Radius =  0.325 angstrom
                   Q00  =   0.064760

H          x =  0.210762  y = -2.480215  z = -0.248808 angstrom
           Maximum rank =  0   Radius =  0.325 angstrom
                   Q00  =   0.097924

H          x = -0.430238  y = -2.283215  z = -1.872808 angstrom
           Maximum rank =  0   Radius =  0.325 angstrom
                   Q00  =   0.097388

H          x = -1.635238  y = -0.293215  z = -2.521808 angstrom
           Maximum rank =  0   Radius =  0.325 angstrom
                   Q00  =   0.055084

H          x = -1.585238  y =  3.024785  z =  0.114192 angstrom
           Maximum rank =  0   Radius =  0.325 angstrom
                   Q00  =   0.055812

H          x = -2.074238  y =  2.090785  z = -2.083808 angstrom
           Maximum rank =  0   Radius =  0.325 angstrom
                   Q00  =   0.061996

H          x = -1.511322  y = -2.837315  z = -0.571128 angstrom
           Maximum rank =  0   Radius =  0.325 angstrom
                   Q00  =   0.104536

Total multipoles referred to origin at
           x =   0.000000,  y =    0.000000,  z =    0.000000 angstrom
                   Q00  =  -0.000000

Finished at 20:45:17 on 27 Apr 2020

  DMA results are available in the Python driver through the
	  variable('DMA DISTRIBUTED MULTIPOLES')
  and
	  variable('DMA TOTAL MULTIPOLES')
  commands.

    Psi4 stopped on: Monday, 27 April 2020 08:45PM
    Psi4 wall time for execution: 0:01:32.07

*** Psi4 exiting successfully. Buy a developer a beer!
