                               Psi4 1.3.2 release

  ==> Input File <==

--------------------------------------------------------------------------
import numpy as np
set {scf_type pk
basis cc-pvdz
d_convergence 10
gdma_switch   0
gdma_limit    0
gdma_origin   [ 0.0,  0.0,  0.0 ]
}
molecule test {
    units Angstrom
    -1 1
    --
    -1 1
    C                0.222195497397768     1.573556463496538    -1.310290412501954
    C                0.163195497397768     2.976556463496537    -1.909290412501954
    O                0.045195497397768     1.635556463496538     0.089709587498046
    H               -0.537804502602232     0.931556463496538    -1.759290412501954
    H                1.205195497397768     1.141556463496538    -1.509290412501954
    H                0.761195497397768     3.640556463496537    -1.283290412501954
    H                0.338195497397768     0.766556463496538     0.460709587498046
    H               -0.873064502602232     3.343796463496538    -1.945410412501954
    H                0.617655497397768     2.967136463496537    -2.910980412501954
    C               -0.084804502602232    -2.527443536503462    -0.304290412501954
    C               -0.116804502602232    -1.532443536503462     0.847709587498046
    O               -1.079804502602232    -1.581443536503462     1.645709587498046
    O                0.817195497397768    -0.705443536503462     0.949709587498046
    H                0.862195497397768    -2.449443536503463    -0.835290412501954
    H               -0.879804502602232    -2.281443536503462    -1.012290412501954
    H               -0.231514502602232    -3.560217536503463     0.044789587498046

}
e, wfn = energy('scf', return_wfn=True)
gdma(wfn)
dmavals = variable('DMA DISTRIBUTED MULTIPOLES')
charges = np.array(dmavals)
print(charges)
np.save('SSI-032SER-057GLU-1-dimer.npy', np.array(charges))--------------------------------------------------------------------------

*** tstart() called on ds3
*** at Sun Apr 26 22:21:20 2020

   => Loading Basis Set <=

    Name: CC-PVDZ
    Role: ORBITAL
    Keyword: BASIS
    atoms 1-2, 10-11 entry C          line   138 file /theoryfs2/ds/metcalf/miniconda2/envs/tf2gpu/share/psi4/basis/cc-pvdz.gbs
    atoms 3, 12-13   entry O          line   198 file /theoryfs2/ds/metcalf/miniconda2/envs/tf2gpu/share/psi4/basis/cc-pvdz.gbs
    atoms 4-9, 14-16 entry H          line    22 file /theoryfs2/ds/metcalf/miniconda2/envs/tf2gpu/share/psi4/basis/cc-pvdz.gbs

         ---------------------------------------------------------
                                   SCF
               by Justin Turney, Rob Parrish, Andy Simmonett
                          and Daniel G. A. Smith
                              RHF Reference
                        1 Threads,    500 MiB Core
         ---------------------------------------------------------

  ==> Geometry <==

    Molecular point group: c1
    Full point group: C1

    Geometry (in Angstrom), charge = -1, multiplicity = 1:

       Center              X                  Y                   Z               Mass
    ------------   -----------------  -----------------  -----------------  -----------------
         C            0.222195497398     1.573556463497    -1.310290412502    12.000000000000
         C            0.163195497398     2.976556463497    -1.909290412502    12.000000000000
         O            0.045195497398     1.635556463497     0.089709587498    15.994914619570
         H           -0.537804502602     0.931556463497    -1.759290412502     1.007825032230
         H            1.205195497398     1.141556463497    -1.509290412502     1.007825032230
         H            0.761195497398     3.640556463497    -1.283290412502     1.007825032230
         H            0.338195497398     0.766556463497     0.460709587498     1.007825032230
         H           -0.873064502602     3.343796463497    -1.945410412502     1.007825032230
         H            0.617655497398     2.967136463497    -2.910980412502     1.007825032230
         C           -0.084804502602    -2.527443536503    -0.304290412502    12.000000000000
         C           -0.116804502602    -1.532443536503     0.847709587498    12.000000000000
         O           -1.079804502602    -1.581443536503     1.645709587498    15.994914619570
         O            0.817195497398    -0.705443536503     0.949709587498    15.994914619570
         H            0.862195497398    -2.449443536503    -0.835290412502     1.007825032230
         H           -0.879804502602    -2.281443536503    -1.012290412502     1.007825032230
         H           -0.231514502602    -3.560217536503     0.044789587498     1.007825032230

  Running in c1 symmetry.

  Rotational constants: A =      0.17256  B =      0.03282  C =      0.03061 [cm^-1]
  Rotational constants: A =   5173.25701  B =    983.94038  C =    917.67529 [MHz]
  Nuclear repulsion =  299.943029924639404

  Charge       = -1
  Multiplicity = 1
  Electrons    = 58
  Nalpha       = 29
  Nbeta        = 29

  ==> Algorithm <==

  SCF Algorithm Type is PK.
  DIIS enabled.
  MOM disabled.
  Fractional occupation disabled.
  Guess Type is SAD.
  Energy threshold   = 1.00e-06
  Density threshold  = 1.00e-10
  Integral threshold = 0.00e+00

  ==> Primary Basis <==

  Basis Set: CC-PVDZ
    Blend: CC-PVDZ
    Number of shells: 69
    Number of basis function: 143
    Number of Cartesian functions: 150
    Spherical Harmonics?: true
    Max angular momentum: 2

  ==> Pre-Iterations <==

   -------------------------------------------------------
    Irrep   Nso     Nmo     Nalpha   Nbeta   Ndocc  Nsocc
   -------------------------------------------------------
     A        143     143       0       0       0       0
   -------------------------------------------------------
    Total     143     143      29      29      29       0
   -------------------------------------------------------

  ==> Integral Setup <==

  Using integral reordering PK algorithm.
  Sizing the integral batches needed.
  Building batch lookup table.
   Calculation information:
      Number of atoms:                  16
      Number of AO shells:              69
      Number of primitives:            199
      Number of atomic orbitals:       150
      Number of basis functions:       143

      Integral cutoff                 1.00e-12
      Number of threads:                 1

	Batch   1 pq = [       0,    9405] index = [             0,44231715] size =     44231715
	Batch   2 pq = [    9405,   10296] index = [      44231715,53008956] size =      8777241
  Task number: 5
  Buffer size: 11059200
  Buffer per thread: 2
  We computed 2416700 shell quartets total.
  Whereas there are 2917320 unique shell quartets.

  ==> DiskJK: Disk-Based J/K Matrices <==

    J tasked:                  Yes
    K tasked:                  Yes
    wK tasked:                  No
    Memory [MiB]:              375
    Schwarz Cutoff:          1E-12

    OpenMP threads:              1

  Minimum eigenvalue in the overlap matrix is 5.3617532247E-03.
  Using Symmetric Orthogonalization.

  SCF Guess: Superposition of Atomic Densities via on-the-fly atomic UHF.

  ==> Iterations <==

                        Total Energy        Delta E     RMS |[F,P]|

   @RHF iter SAD:  -379.68626751234046   -3.79686e+02   0.00000e+00
   @RHF iter   1:  -381.08245687473658   -1.39619e+00   5.24198e-03 DIIS
   @RHF iter   2:  -381.28659161449315   -2.04135e-01   2.96459e-03 DIIS
   @RHF iter   3:  -381.35069420906723   -6.41026e-02   4.42633e-04 DIIS
   @RHF iter   4:  -381.35334590004766   -2.65169e-03   1.73305e-04 DIIS
   @RHF iter   5:  -381.35373958573763   -3.93686e-04   3.60298e-05 DIIS
   @RHF iter   6:  -381.35375667217266   -1.70864e-05   1.58850e-05 DIIS
   @RHF iter   7:  -381.35375965267531   -2.98050e-06   3.34392e-06 DIIS
   @RHF iter   8:  -381.35375996235143   -3.09676e-07   1.59928e-06 DIIS
   @RHF iter   9:  -381.35376002181357   -5.94621e-08   6.77635e-07 DIIS
   @RHF iter  10:  -381.35376003546509   -1.36515e-08   2.18091e-07 DIIS
   @RHF iter  11:  -381.35376003686025   -1.39516e-09   7.11204e-08 DIIS
   @RHF iter  12:  -381.35376003697468   -1.14426e-10   1.99264e-08 DIIS
   @RHF iter  13:  -381.35376003698309   -8.41283e-12   4.61986e-09 DIIS
   @RHF iter  14:  -381.35376003698525   -2.16005e-12   1.25007e-09 DIIS
   @RHF iter  15:  -381.35376003698360    1.64846e-12   3.53762e-10 DIIS
   @RHF iter  16:  -381.35376003698434   -7.38964e-13   1.13758e-10 DIIS
   @RHF iter  17:  -381.35376003698423    1.13687e-13   4.06866e-11 DIIS
  Energy and wave function converged.

  ==> Post-Iterations <==

    Orbital Energies [Eh]
    ---------------------

    Doubly Occupied:

       1A    -20.356412     2A    -20.290861     3A    -20.279375
       4A    -11.140759     5A    -11.128288     6A    -11.102333
       7A    -11.065047     8A     -1.181409     9A     -1.164213
      10A     -1.063197    11A     -0.873695    12A     -0.812544
      13A     -0.689982    14A     -0.543242    15A     -0.511690
      16A     -0.499992    17A     -0.434035    18A     -0.427946
      19A     -0.427153    20A     -0.415739    21A     -0.397127
      22A     -0.387833    23A     -0.362923    24A     -0.338383
      25A     -0.308030    26A     -0.263922    27A     -0.210638
      28A     -0.195452    29A     -0.187848

    Virtual:

      30A      0.305904    31A      0.327341    32A      0.355592
      33A      0.372008    34A      0.380677    35A      0.387993
      36A      0.401370    37A      0.425793    38A      0.478555
      39A      0.490034    40A      0.519520    41A      0.558925
      42A      0.599572    43A      0.683729    44A      0.727480
      45A      0.747942    46A      0.750133    47A      0.784797
      48A      0.825223    49A      0.852247    50A      0.878150
      51A      0.905801    52A      0.928298    53A      0.955096
      54A      0.974151    55A      0.992306    56A      1.002235
      57A      1.011523    58A      1.014788    59A      1.022053
      60A      1.034641    61A      1.044143    62A      1.048918
      63A      1.081259    64A      1.098100    65A      1.126398
      66A      1.197592    67A      1.261468    68A      1.277167
      69A      1.307277    70A      1.319226    71A      1.331477
      72A      1.376295    73A      1.511009    74A      1.541029
      75A      1.543923    76A      1.552717    77A      1.571021
      78A      1.590703    79A      1.608388    80A      1.637054
      81A      1.658434    82A      1.701957    83A      1.718406
      84A      1.719972    85A      1.793876    86A      1.818902
      87A      1.828401    88A      1.861107    89A      1.880608
      90A      1.948340    91A      1.990194    92A      2.007112
      93A      2.037421    94A      2.050315    95A      2.053008
      96A      2.078074    97A      2.082150    98A      2.088943
      99A      2.094673   100A      2.113131   101A      2.141341
     102A      2.173279   103A      2.197026   104A      2.254940
     105A      2.266310   106A      2.326453   107A      2.334259
     108A      2.375349   109A      2.403769   110A      2.418806
     111A      2.428932   112A      2.470813   113A      2.548285
     114A      2.619592   115A      2.638448   116A      2.652450
     117A      2.679986   118A      2.716326   119A      2.735046
     120A      2.850581   121A      2.868982   122A      2.901976
     123A      2.912587   124A      2.920306   125A      2.961642
     126A      2.986308   127A      3.016436   128A      3.062085
     129A      3.222086   130A      3.264844   131A      3.308528
     132A      3.497708   133A      3.544007   134A      3.590314
     135A      3.614348   136A      3.652212   137A      3.765331
     138A      3.795628   139A      3.819661   140A      4.051893
     141A      4.066116   142A      4.172976   143A      4.381506

    Final Occupation by Irrep:
              A
    DOCC [    29 ]

  @RHF Final Energy:  -381.35376003698423

   => Energetics <=

    Nuclear Repulsion Energy =            299.9430299246394043
    One-Electron Energy =               -1128.4734425860549436
    Two-Electron Energy =                 447.1766526244313127
    Total Energy =                       -381.3537600369842266

Computation Completed

Properties will be evaluated at   0.000000,   0.000000,   0.000000 [a0]

Properties computed using the SCF density matrix

  Nuclear Dipole Moment: [e a0]
     X:     1.1823      Y:     4.2155      Z:   -10.0652

  Electronic Dipole Moment: [e a0]
     X:    -0.7380      Y:    -3.5717      Z:     7.6585

  Dipole Moment: [e a0]
     X:     0.4443      Y:     0.6439      Z:    -2.4067     Total:     2.5307

  Dipole Moment: [D]
     X:     1.1292      Y:     1.6365      Z:    -6.1173     Total:     6.4323

*** tstop() called on ds3 at Sun Apr 26 22:21:46 2020
Module time:
	user time   =      18.36 seconds =       0.31 minutes
	system time =       8.36 seconds =       0.14 minutes
	total time  =         26 seconds =       0.43 minutes
Total time:
	user time   =      18.36 seconds =       0.31 minutes
	system time =       8.36 seconds =       0.14 minutes
	total time  =         26 seconds =       0.43 minutes
                                     G D M A

                                 by Anthony Stone

                           version 2.2.06, 22 June 2011

               Distributed Multipoles from Gaussian wavefunctions

Starting at 22:21:46 on 26 Apr 2020

Using SCF density matrix from file ./SSI/SSI-032SER-057GLU-1-dimer.test.3619.fchk

                         Distributed Multipole Analysis

Standard DMA

Positions and radii in angstrom
Multipole moments in atomic units, ea_0^k for rank k

C          x =  0.222195  y =  1.573556  z = -1.310290 angstrom
           Maximum rank =  0   Radius =  0.650 angstrom
                   Q00  =   0.149879

C          x =  0.163195  y =  2.976556  z = -1.909290 angstrom
           Maximum rank =  0   Radius =  0.650 angstrom
                   Q00  =  -0.236349

O          x =  0.045195  y =  1.635556  z =  0.089710 angstrom
           Maximum rank =  0   Radius =  0.650 angstrom
                   Q00  =  -0.706992

H          x = -0.537805  y =  0.931556  z = -1.759290 angstrom
           Maximum rank =  0   Radius =  0.325 angstrom
                   Q00  =   0.010781

H          x =  1.205195  y =  1.141556  z = -1.509290 angstrom
           Maximum rank =  0   Radius =  0.325 angstrom
                   Q00  =   0.014734

H          x =  0.761195  y =  3.640556  z = -1.283290 angstrom
           Maximum rank =  0   Radius =  0.325 angstrom
                   Q00  =   0.078786

H          x =  0.338195  y =  0.766556  z =  0.460710 angstrom
           Maximum rank =  0   Radius =  0.325 angstrom
                   Q00  =   0.548574

H          x = -0.873065  y =  3.343796  z = -1.945410 angstrom
           Maximum rank =  0   Radius =  0.325 angstrom
                   Q00  =   0.067463

H          x =  0.617655  y =  2.967136  z = -2.910980 angstrom
           Maximum rank =  0   Radius =  0.325 angstrom
                   Q00  =   0.047174

C          x = -0.084805  y = -2.527444  z = -0.304290 angstrom
           Maximum rank =  0   Radius =  0.650 angstrom
                   Q00  =  -0.287459

C          x = -0.116805  y = -1.532444  z =  0.847710 angstrom
           Maximum rank =  0   Radius =  0.650 angstrom
                   Q00  =   0.945441

O          x = -1.079805  y = -1.581444  z =  1.645710 angstrom
           Maximum rank =  0   Radius =  0.650 angstrom
                   Q00  =  -0.896623

O          x =  0.817195  y = -0.705444  z =  0.949710 angstrom
           Maximum rank =  0   Radius =  0.650 angstrom
                   Q00  =  -0.945965

H          x =  0.862195  y = -2.449444  z = -0.835290 angstrom
           Maximum rank =  0   Radius =  0.325 angstrom
                   Q00  =   0.056148

H          x = -0.879805  y = -2.281444  z = -1.012290 angstrom
           Maximum rank =  0   Radius =  0.325 angstrom
                   Q00  =   0.081538

H          x = -0.231515  y = -3.560218  z =  0.044790 angstrom
           Maximum rank =  0   Radius =  0.325 angstrom
                   Q00  =   0.072870

Total multipoles referred to origin at
           x =   0.000000,  y =    0.000000,  z =    0.000000 angstrom
                   Q00  =  -1.000000

Finished at 22:21:46 on 26 Apr 2020

  DMA results are available in the Python driver through the
	  variable('DMA DISTRIBUTED MULTIPOLES')
  and
	  variable('DMA TOTAL MULTIPOLES')
  commands.

    Psi4 stopped on: Sunday, 26 April 2020 10:21PM
    Psi4 wall time for execution: 0:00:26.53

*** Psi4 exiting successfully. Buy a developer a beer!
