                               Psi4 1.3.2 release

  ==> Input File <==

--------------------------------------------------------------------------
import numpy as np
set {scf_type pk
basis cc-pvdz
d_convergence 10
gdma_switch   0
gdma_limit    0
gdma_origin   [ 0.0,  0.0,  0.0 ]
}
molecule test {
    units Angstrom
    0 1
    --
    0 1
    C               -0.141546298243727    -1.501554006728181    -2.900269020616855
    C                0.053453701756273    -1.368554006728181    -4.442269020616854
    H                0.580453701756273    -0.869554006728181    -2.383269020616855
    H               -1.144546298243727    -1.182554006728181    -2.624269020616855
    H                0.004453701756273    -2.538554006728181    -2.593269020616855
    H               -0.141546298243727    -0.340554006728181    -4.730269020616855
    H                1.074373701756273    -1.626834006728181    -4.760096020616855
    H               -0.684396298243727    -1.998254006728181    -4.960971020616856
    C               -0.371546298243727    -0.241554006728181     0.672730979383145
    C               -1.490546298243727    -0.624554006728181     1.663730979383145
    C                1.060453701756273     0.930445993271819     2.695730979383145
    S                0.406453701756273     1.347445993271819     1.083730979383145
    H                0.385453701756273    -1.026554006728181     0.664730979383145
    H               -0.774546298243727    -0.165554006728181    -0.333269020616855
    H               -2.066546298243727     0.253445993271819     1.928730979383145
    H               -1.021546298243727    -0.998554006728181     2.572730979383145
    H                1.803453701756273     0.141445993271819     2.602730979383145
    H                1.549453701756273     1.810445993271819     3.114730979383145
    H                0.266453701756273     0.623445993271819     3.374730979383145
    H               -2.131356298243727    -1.420144006728181     1.255810979383145

}
e, wfn = energy('scf', return_wfn=True)
gdma(wfn)
dmavals = variable('DMA DISTRIBUTED MULTIPOLES')
charges = np.array(dmavals)
print(charges)
np.save('SSI-016LEU-141MET-1-dimer.npy', np.array(charges))--------------------------------------------------------------------------

*** tstart() called on ds3
*** at Mon Apr 27 13:59:18 2020

   => Loading Basis Set <=

    Name: CC-PVDZ
    Role: ORBITAL
    Keyword: BASIS
    atoms 1-2, 9-11  entry C          line   138 file /theoryfs2/ds/metcalf/miniconda2/envs/tf2gpu/share/psi4/basis/cc-pvdz.gbs
    atoms 3-8, 13-20 entry H          line    22 file /theoryfs2/ds/metcalf/miniconda2/envs/tf2gpu/share/psi4/basis/cc-pvdz.gbs
    atoms 12         entry S          line   598 file /theoryfs2/ds/metcalf/miniconda2/envs/tf2gpu/share/psi4/basis/cc-pvdz.gbs

         ---------------------------------------------------------
                                   SCF
               by Justin Turney, Rob Parrish, Andy Simmonett
                          and Daniel G. A. Smith
                              RHF Reference
                        1 Threads,    500 MiB Core
         ---------------------------------------------------------

  ==> Geometry <==

    Molecular point group: c1
    Full point group: C1

    Geometry (in Angstrom), charge = 0, multiplicity = 1:

       Center              X                  Y                   Z               Mass
    ------------   -----------------  -----------------  -----------------  -----------------
         C           -0.141546298244    -1.501554006728    -2.900269020617    12.000000000000
         C            0.053453701756    -1.368554006728    -4.442269020617    12.000000000000
         H            0.580453701756    -0.869554006728    -2.383269020617     1.007825032230
         H           -1.144546298244    -1.182554006728    -2.624269020617     1.007825032230
         H            0.004453701756    -2.538554006728    -2.593269020617     1.007825032230
         H           -0.141546298244    -0.340554006728    -4.730269020617     1.007825032230
         H            1.074373701756    -1.626834006728    -4.760096020617     1.007825032230
         H           -0.684396298244    -1.998254006728    -4.960971020617     1.007825032230
         C           -0.371546298244    -0.241554006728     0.672730979383    12.000000000000
         C           -1.490546298244    -0.624554006728     1.663730979383    12.000000000000
         C            1.060453701756     0.930445993272     2.695730979383    12.000000000000
         S            0.406453701756     1.347445993272     1.083730979383    31.972071174400
         H            0.385453701756    -1.026554006728     0.664730979383     1.007825032230
         H           -0.774546298244    -0.165554006728    -0.333269020617     1.007825032230
         H           -2.066546298244     0.253445993272     1.928730979383     1.007825032230
         H           -1.021546298244    -0.998554006728     2.572730979383     1.007825032230
         H            1.803453701756     0.141445993272     2.602730979383     1.007825032230
         H            1.549453701756     1.810445993272     3.114730979383     1.007825032230
         H            0.266453701756     0.623445993272     3.374730979383     1.007825032230
         H           -2.131356298244    -1.420144006728     1.255810979383     1.007825032230

  Running in c1 symmetry.

  Rotational constants: A =      0.13471  B =      0.02269  C =      0.02050 [cm^-1]
  Rotational constants: A =   4038.48436  B =    680.13134  C =    614.51917 [MHz]
  Nuclear repulsion =  287.664096944555865

  Charge       = 0
  Multiplicity = 1
  Electrons    = 60
  Nalpha       = 30
  Nbeta        = 30

  ==> Algorithm <==

  SCF Algorithm Type is PK.
  DIIS enabled.
  MOM disabled.
  Fractional occupation disabled.
  Guess Type is SAD.
  Energy threshold   = 1.00e-06
  Density threshold  = 1.00e-10
  Integral threshold = 0.00e+00

  ==> Primary Basis <==

  Basis Set: CC-PVDZ
    Blend: CC-PVDZ
    Number of shells: 80
    Number of basis function: 158
    Number of Cartesian functions: 164
    Spherical Harmonics?: true
    Max angular momentum: 2

  ==> Pre-Iterations <==

   -------------------------------------------------------
    Irrep   Nso     Nmo     Nalpha   Nbeta   Ndocc  Nsocc
   -------------------------------------------------------
     A        158     158       0       0       0       0
   -------------------------------------------------------
    Total     158     158      30      30      30       0
   -------------------------------------------------------

  ==> Integral Setup <==

  Using integral reordering PK algorithm.
  Sizing the integral batches needed.
  Building batch lookup table.
   Calculation information:
      Number of atoms:                  20
      Number of AO shells:              80
      Number of primitives:            230
      Number of atomic orbitals:       164
      Number of basis functions:       158

      Integral cutoff                 1.00e-12
      Number of threads:                 1

	Batch   1 pq = [       0,    9405] index = [             0,44231715] size =     44231715
	Batch   2 pq = [    9405,   12561] index = [      44231715,78895641] size =     34663926
  Task number: 8
  Buffer size: 11059200
  Buffer per thread: 2
  We computed 4043267 shell quartets total.
  Whereas there are 5250420 unique shell quartets.

  ==> DiskJK: Disk-Based J/K Matrices <==

    J tasked:                  Yes
    K tasked:                  Yes
    wK tasked:                  No
    Memory [MiB]:              375
    Schwarz Cutoff:          1E-12

    OpenMP threads:              1

  Minimum eigenvalue in the overlap matrix is 6.4843038744E-03.
  Using Symmetric Orthogonalization.

  SCF Guess: Superposition of Atomic Densities via on-the-fly atomic UHF.

  ==> Iterations <==

                        Total Energy        Delta E     RMS |[F,P]|

   @RHF iter SAD:  -593.85746126127231   -5.93857e+02   0.00000e+00
   @RHF iter   1:  -594.85185266846929   -9.94391e-01   3.14688e-03 DIIS
   @RHF iter   2:  -595.00015979991269   -1.48307e-01   1.27410e-03 DIIS
   @RHF iter   3:  -595.02269297725320   -2.25332e-02   2.99445e-04 DIIS
   @RHF iter   4:  -595.02497849406950   -2.28552e-03   5.56547e-05 DIIS
   @RHF iter   5:  -595.02503994738095   -6.14533e-05   1.60679e-05 DIIS
   @RHF iter   6:  -595.02504492573451   -4.97835e-06   3.48036e-06 DIIS
   @RHF iter   7:  -595.02504522141999   -2.95685e-07   8.23032e-07 DIIS
   @RHF iter   8:  -595.02504524202914   -2.06091e-08   2.85235e-07 DIIS
   @RHF iter   9:  -595.02504524451558   -2.48644e-09   8.87326e-08 DIIS
   @RHF iter  10:  -595.02504524480185   -2.86263e-10   2.33601e-08 DIIS
   @RHF iter  11:  -595.02504524482777   -2.59206e-11   6.50325e-09 DIIS
   @RHF iter  12:  -595.02504524483038   -2.61480e-12   2.54207e-09 DIIS
   @RHF iter  13:  -595.02504524483118   -7.95808e-13   8.48400e-10 DIIS
   @RHF iter  14:  -595.02504524483004    1.13687e-12   2.03156e-10 DIIS
   @RHF iter  15:  -595.02504524483254   -2.50111e-12   5.52791e-11 DIIS
  Energy and wave function converged.

  ==> Post-Iterations <==

    Orbital Energies [Eh]
    ---------------------

    Doubly Occupied:

       1A    -91.932530     2A    -11.255902     3A    -11.252058
       4A    -11.227608     5A    -11.222182     6A    -11.221609
       7A     -8.936526     8A     -6.618544     9A     -6.617011
      10A     -6.614785    11A     -1.079630    12A     -1.012399
      13A     -0.992609    14A     -0.885932    15A     -0.842275
      16A     -0.784353    17A     -0.629255    18A     -0.608443
      19A     -0.596467    20A     -0.595101    21A     -0.582025
      22A     -0.555064    23A     -0.530248    24A     -0.509691
      25A     -0.498467    26A     -0.490585    27A     -0.489379
      28A     -0.474390    29A     -0.421247    30A     -0.330063

    Virtual:

      31A      0.171418    32A      0.180298    33A      0.197407
      34A      0.214479    35A      0.223085    36A      0.244240
      37A      0.247739    38A      0.254024    39A      0.259318
      40A      0.267884    41A      0.273566    42A      0.281195
      43A      0.283490    44A      0.300385    45A      0.315550
      46A      0.322287    47A      0.383592    48A      0.386301
      49A      0.532078    50A      0.562092    51A      0.587032
      52A      0.589827    53A      0.592221    54A      0.596963
      55A      0.628478    56A      0.635112    57A      0.645020
      58A      0.688726    59A      0.702150    60A      0.704218
      61A      0.733894    62A      0.750420    63A      0.798542
      64A      0.811357    65A      0.826000    66A      0.833477
      67A      0.863395    68A      0.868752    69A      0.879054
      70A      0.887372    71A      0.892427    72A      0.893909
      73A      0.895515    74A      0.897206    75A      0.905740
      76A      0.914104    77A      0.916217    78A      0.924225
      79A      0.938625    80A      0.961026    81A      0.973794
      82A      0.979827    83A      1.004144    84A      1.037837
      85A      1.122733    86A      1.139369    87A      1.187188
      88A      1.221226    89A      1.235664    90A      1.250262
      91A      1.304101    92A      1.326991    93A      1.384276
      94A      1.430281    95A      1.455334    96A      1.469564
      97A      1.483161    98A      1.501831    99A      1.568683
     100A      1.609353   101A      1.652185   102A      1.679394
     103A      1.683234   104A      1.692465   105A      1.717626
     106A      1.838823   107A      1.862667   108A      1.869249
     109A      1.876339   110A      1.883791   111A      1.890319
     112A      1.906979   113A      1.914005   114A      1.927750
     115A      1.932879   116A      1.938172   117A      1.942096
     118A      1.952896   119A      1.955704   120A      1.979762
     121A      1.986665   122A      1.997968   123A      2.009668
     124A      2.024938   125A      2.065565   126A      2.080393
     127A      2.083724   128A      2.114080   129A      2.142434
     130A      2.229172   131A      2.252203   132A      2.288820
     133A      2.303227   134A      2.313134   135A      2.319254
     136A      2.420623   137A      2.449723   138A      2.451660
     139A      2.461932   140A      2.476451   141A      2.547077
     142A      2.558190   143A      2.568527   144A      2.580949
     145A      2.757295   146A      2.760118   147A      2.776632
     148A      2.781906   149A      2.788221   150A      2.796674
     151A      2.814510   152A      2.839614   153A      2.841754
     154A      2.853817   155A      2.892330   156A      2.937252
     157A      2.943825   158A      2.993272

    Final Occupation by Irrep:
              A
    DOCC [    30 ]

  @RHF Final Energy:  -595.02504524483254

   => Energetics <=

    Nuclear Repulsion Energy =            287.6640969445558653
    One-Electron Energy =               -1385.7655280797716841
    Two-Electron Energy =                 503.0763858903832215
    Total Energy =                       -595.0250452448325404

Computation Completed

Properties will be evaluated at   0.000000,   0.000000,   0.000000 [a0]

Properties computed using the SCF density matrix

  Nuclear Dipole Moment: [e a0]
     X:    -2.1458      Y:    -8.7188      Z:    -6.4130

  Electronic Dipole Moment: [e a0]
     X:     2.0862      Y:     8.1494      Z:     6.7388

  Dipole Moment: [e a0]
     X:    -0.0596      Y:    -0.5694      Z:     0.3259     Total:     0.6588

  Dipole Moment: [D]
     X:    -0.1514      Y:    -1.4474      Z:     0.8282     Total:     1.6745

*** tstop() called on ds3 at Mon Apr 27 13:59:58 2020
Module time:
	user time   =      29.88 seconds =       0.50 minutes
	system time =      11.07 seconds =       0.18 minutes
	total time  =         40 seconds =       0.67 minutes
Total time:
	user time   =      29.88 seconds =       0.50 minutes
	system time =      11.07 seconds =       0.18 minutes
	total time  =         40 seconds =       0.67 minutes
                                     G D M A

                                 by Anthony Stone

                           version 2.2.06, 22 June 2011

               Distributed Multipoles from Gaussian wavefunctions

Starting at 13:59:58 on 27 Apr 2020

Using SCF density matrix from file ./SSI/SSI-016LEU-141MET-1-dimer.test.8437.fchk

                         Distributed Multipole Analysis

Standard DMA

Positions and radii in angstrom
Multipole moments in atomic units, ea_0^k for rank k

C          x = -0.141546  y = -1.501554  z = -2.900269 angstrom
           Maximum rank =  0   Radius =  0.650 angstrom
                   Q00  =  -0.249508

C          x =  0.053454  y = -1.368554  z = -4.442269 angstrom
           Maximum rank =  0   Radius =  0.650 angstrom
                   Q00  =  -0.245787

H          x =  0.580454  y = -0.869554  z = -2.383269 angstrom
           Maximum rank =  0   Radius =  0.325 angstrom
                   Q00  =   0.084537

H          x = -1.144546  y = -1.182554  z = -2.624269 angstrom
           Maximum rank =  0   Radius =  0.325 angstrom
                   Q00  =   0.079817

H          x =  0.004454  y = -2.538554  z = -2.593269 angstrom
           Maximum rank =  0   Radius =  0.325 angstrom
                   Q00  =   0.082262

H          x = -0.141546  y = -0.340554  z = -4.730269 angstrom
           Maximum rank =  0   Radius =  0.325 angstrom
                   Q00  =   0.082687

H          x =  1.074374  y = -1.626834  z = -4.760096 angstrom
           Maximum rank =  0   Radius =  0.325 angstrom
                   Q00  =   0.085576

H          x = -0.684396  y = -1.998254  z = -4.960971 angstrom
           Maximum rank =  0   Radius =  0.325 angstrom
                   Q00  =   0.079975

C          x = -0.371546  y = -0.241554  z =  0.672731 angstrom
           Maximum rank =  0   Radius =  0.650 angstrom
                   Q00  =  -0.196498

C          x = -1.490546  y = -0.624554  z =  1.663731 angstrom
           Maximum rank =  0   Radius =  0.650 angstrom
                   Q00  =  -0.255173

C          x =  1.060454  y =  0.930446  z =  2.695731 angstrom
           Maximum rank =  0   Radius =  0.650 angstrom
                   Q00  =  -0.364225

S          x =  0.406454  y =  1.347446  z =  1.083731 angstrom
           Maximum rank =  0   Radius =  0.650 angstrom
                   Q00  =   0.109417

H          x =  0.385454  y = -1.026554  z =  0.664731 angstrom
           Maximum rank =  0   Radius =  0.325 angstrom
                   Q00  =   0.059221

H          x = -0.774546  y = -0.165554  z = -0.333269 angstrom
           Maximum rank =  0   Radius =  0.325 angstrom
                   Q00  =   0.095271

H          x = -2.066546  y =  0.253446  z =  1.928731 angstrom
           Maximum rank =  0   Radius =  0.325 angstrom
                   Q00  =   0.091914

H          x = -1.021546  y = -0.998554  z =  2.572731 angstrom
           Maximum rank =  0   Radius =  0.325 angstrom
                   Q00  =   0.077715

H          x =  1.803454  y =  0.141446  z =  2.602731 angstrom
           Maximum rank =  0   Radius =  0.325 angstrom
                   Q00  =   0.083723

H          x =  1.549454  y =  1.810446  z =  3.114731 angstrom
           Maximum rank =  0   Radius =  0.325 angstrom
                   Q00  =   0.119627

H          x =  0.266454  y =  0.623446  z =  3.374731 angstrom
           Maximum rank =  0   Radius =  0.325 angstrom
                   Q00  =   0.087361

H          x = -2.131356  y = -1.420144  z =  1.255811 angstrom
           Maximum rank =  0   Radius =  0.325 angstrom
                   Q00  =   0.092087

Total multipoles referred to origin at
           x =   0.000000,  y =    0.000000,  z =    0.000000 angstrom
                   Q00  =  -0.000000

Finished at 13:59:58 on 27 Apr 2020

  DMA results are available in the Python driver through the
	  variable('DMA DISTRIBUTED MULTIPOLES')
  and
	  variable('DMA TOTAL MULTIPOLES')
  commands.

    Psi4 stopped on: Monday, 27 April 2020 01:59PM
    Psi4 wall time for execution: 0:00:40.07

*** Psi4 exiting successfully. Buy a developer a beer!
