                               Psi4 1.3.2 release

  ==> Input File <==

--------------------------------------------------------------------------
import numpy as np
set {scf_type pk
basis cc-pvdz
d_convergence 10
gdma_switch   0
gdma_limit    0
gdma_origin   [ 0.0,  0.0,  0.0 ]
}
molecule test {
    units Angstrom
    0 1
    --
    0 1
    C               -1.179845045613795    -0.964304169804808    -0.838624987772917
    C               -1.499845045613796    -1.611304169804808    -2.177624987772917
    H               -0.723845045613796     0.013695830195192    -0.993624987772917
    H               -2.102845045613796    -0.819304169804808    -0.276624987772917
    H               -0.510845045613796    -1.603304169804808    -0.261624987772917
    H               -2.111845045613796    -0.927304169804808    -2.764624987772917
    H               -0.569625045613796    -1.839364169804808    -2.718634987772917
    H               -2.067805045613796    -2.540104169804808    -2.020294987772917
    C                1.211154954386205     0.554695830195192     1.667375012227083
    C                1.472154954386204     2.020695830195192     1.344375012227083
    H                2.098154954386205     0.103695830195192     2.112375012227083
    H                0.390154954386204     0.470695830195192     2.382375012227083
    H                0.957154954386204     0.011695830195192     0.758375012227083
    H                1.830154954386204     2.509695830195192     2.251375012227083
    H                2.229634954386205     2.110825830195192     0.551845012227083
    H                0.538454954386204     2.511655830195192     1.032665012227083

}
e, wfn = energy('scf', return_wfn=True)
gdma(wfn)
dmavals = variable('DMA DISTRIBUTED MULTIPOLES')
charges = np.array(dmavals)
print(charges)
np.save('SSI-124LEU-181VAL-1-dimer.npy', np.array(charges))--------------------------------------------------------------------------

*** tstart() called on ds3
*** at Mon Apr 27 16:50:04 2020

   => Loading Basis Set <=

    Name: CC-PVDZ
    Role: ORBITAL
    Keyword: BASIS
    atoms 1-2, 9-10  entry C          line   138 file /theoryfs2/ds/metcalf/miniconda2/envs/tf2gpu/share/psi4/basis/cc-pvdz.gbs
    atoms 3-8, 11-16 entry H          line    22 file /theoryfs2/ds/metcalf/miniconda2/envs/tf2gpu/share/psi4/basis/cc-pvdz.gbs

         ---------------------------------------------------------
                                   SCF
               by Justin Turney, Rob Parrish, Andy Simmonett
                          and Daniel G. A. Smith
                              RHF Reference
                        1 Threads,    500 MiB Core
         ---------------------------------------------------------

  ==> Geometry <==

    Molecular point group: c1
    Full point group: C1

    Geometry (in Angstrom), charge = 0, multiplicity = 1:

       Center              X                  Y                   Z               Mass
    ------------   -----------------  -----------------  -----------------  -----------------
         C           -1.179845045614    -0.964304169805    -0.838624987773    12.000000000000
         C           -1.499845045614    -1.611304169805    -2.177624987773    12.000000000000
         H           -0.723845045614     0.013695830195    -0.993624987773     1.007825032230
         H           -2.102845045614    -0.819304169805    -0.276624987773     1.007825032230
         H           -0.510845045614    -1.603304169805    -0.261624987773     1.007825032230
         H           -2.111845045614    -0.927304169805    -2.764624987773     1.007825032230
         H           -0.569625045614    -1.839364169805    -2.718634987773     1.007825032230
         H           -2.067805045614    -2.540104169805    -2.020294987773     1.007825032230
         C            1.211154954386     0.554695830195     1.667375012227    12.000000000000
         C            1.472154954386     2.020695830195     1.344375012227    12.000000000000
         H            2.098154954386     0.103695830195     2.112375012227     1.007825032230
         H            0.390154954386     0.470695830195     2.382375012227     1.007825032230
         H            0.957154954386     0.011695830195     0.758375012227     1.007825032230
         H            1.830154954386     2.509695830195     2.251375012227     1.007825032230
         H            2.229634954386     2.110825830195     0.551845012227     1.007825032230
         H            0.538454954386     2.511655830195     1.032665012227     1.007825032230

  Running in c1 symmetry.

  Rotational constants: A =      0.55516  B =      0.04448  C =      0.04305 [cm^-1]
  Rotational constants: A =  16643.30616  B =   1333.53745  C =   1290.70241 [MHz]
  Nuclear repulsion =  121.079084051074005

  Charge       = 0
  Multiplicity = 1
  Electrons    = 36
  Nalpha       = 18
  Nbeta        = 18

  ==> Algorithm <==

  SCF Algorithm Type is PK.
  DIIS enabled.
  MOM disabled.
  Fractional occupation disabled.
  Guess Type is SAD.
  Energy threshold   = 1.00e-06
  Density threshold  = 1.00e-10
  Integral threshold = 0.00e+00

  ==> Primary Basis <==

  Basis Set: CC-PVDZ
    Blend: CC-PVDZ
    Number of shells: 60
    Number of basis function: 116
    Number of Cartesian functions: 120
    Spherical Harmonics?: true
    Max angular momentum: 2

  ==> Pre-Iterations <==

   -------------------------------------------------------
    Irrep   Nso     Nmo     Nalpha   Nbeta   Ndocc  Nsocc
   -------------------------------------------------------
     A        116     116       0       0       0       0
   -------------------------------------------------------
    Total     116     116      18      18      18       0
   -------------------------------------------------------

  ==> Integral Setup <==

  Using integral reordering PK algorithm.
  Sizing the integral batches needed.
  Building batch lookup table.
   Calculation information:
      Number of atoms:                  16
      Number of AO shells:              60
      Number of primitives:            148
      Number of atomic orbitals:       120
      Number of basis functions:       116

      Integral cutoff                 1.00e-12
      Number of threads:                 1

	Batch   1 pq = [       0,    6786] index = [             0,23028291] size =     23028291
  Task number: 3
  Buffer size: 11059200
  Buffer per thread: 2
  We computed 1384347 shell quartets total.
  Whereas there are 1675365 unique shell quartets.

  ==> DiskJK: Disk-Based J/K Matrices <==

    J tasked:                  Yes
    K tasked:                  Yes
    wK tasked:                  No
    Memory [MiB]:              375
    Schwarz Cutoff:          1E-12

    OpenMP threads:              1

  Minimum eigenvalue in the overlap matrix is 6.9354104043E-03.
  Using Symmetric Orthogonalization.

  SCF Guess: Superposition of Atomic Densities via on-the-fly atomic UHF.

  ==> Iterations <==

                        Total Energy        Delta E     RMS |[F,P]|

   @RHF iter SAD:  -157.36978732204119   -1.57370e+02   0.00000e+00
   @RHF iter   1:  -158.30649395761202   -9.36707e-01   4.23005e-03 DIIS
   @RHF iter   2:  -158.44070368456156   -1.34210e-01   1.80545e-03 DIIS
   @RHF iter   3:  -158.46434109300094   -2.36374e-02   3.50910e-04 DIIS
   @RHF iter   4:  -158.46618680879794   -1.84572e-03   3.90143e-05 DIIS
   @RHF iter   5:  -158.46621083854760   -2.40297e-05   6.65028e-06 DIIS
   @RHF iter   6:  -158.46621148535309   -6.46805e-07   1.15768e-06 DIIS
   @RHF iter   7:  -158.46621149816838   -1.28153e-08   3.14331e-07 DIIS
   @RHF iter   8:  -158.46621149904183   -8.73456e-10   3.74495e-08 DIIS
   @RHF iter   9:  -158.46621149906346   -2.16289e-11   6.94160e-09 DIIS
   @RHF iter  10:  -158.46621149906431   -8.52651e-13   1.79203e-09 DIIS
   @RHF iter  11:  -158.46621149906443   -1.13687e-13   4.76219e-10 DIIS
   @RHF iter  12:  -158.46621149906440    2.84217e-14   1.48171e-10 DIIS
   @RHF iter  13:  -158.46621149906488   -4.83169e-13   2.45447e-11 DIIS
  Energy and wave function converged.

  ==> Post-Iterations <==

    Orbital Energies [Eh]
    ---------------------

    Doubly Occupied:

       1A    -11.218976     2A    -11.218185     3A    -11.216741
       4A    -11.214046     5A     -1.021217     6A     -1.017741
       7A     -0.838188     8A     -0.832517     9A     -0.603110
      10A     -0.600681    11A     -0.596828    12A     -0.594146
      13A     -0.504865    14A     -0.498426    15A     -0.489453
      16A     -0.486011    17A     -0.483655    18A     -0.477032

    Virtual:

      19A      0.174070    20A      0.194562    21A      0.225710
      22A      0.241347    23A      0.247761    24A      0.258129
      25A      0.261710    26A      0.274287    27A      0.280761
      28A      0.285448    29A      0.299610    30A      0.338099
      31A      0.392719    32A      0.399802    33A      0.571869
      34A      0.598655    35A      0.602817    36A      0.604986
      37A      0.612807    38A      0.628564    39A      0.677021
      40A      0.686858    41A      0.694611    42A      0.769020
      43A      0.846075    44A      0.870617    45A      0.883744
      46A      0.890621    47A      0.893346    48A      0.895839
      49A      0.900962    50A      0.902932    51A      0.915189
      52A      0.916184    53A      0.934369    54A      0.944740
      55A      0.974453    56A      0.989031    57A      1.124584
      58A      1.125498    59A      1.129675    60A      1.166408
      61A      1.231958    62A      1.272252    63A      1.474277
      64A      1.477295    65A      1.482805    66A      1.489039
      67A      1.559587    68A      1.580821    69A      1.678931
      70A      1.681143    71A      1.691951    72A      1.697729
      73A      1.856176    74A      1.858487    75A      1.865746
      76A      1.882850    77A      1.901135    78A      1.922790
      79A      1.938604    80A      1.943410    81A      1.945522
      82A      1.947464    83A      1.950134    84A      1.956195
      85A      1.963842    86A      1.971926    87A      1.977779
      88A      2.016004    89A      2.104791    90A      2.106874
      91A      2.112518    92A      2.128851    93A      2.295978
      94A      2.301861    95A      2.314551    96A      2.316602
      97A      2.447538    98A      2.456485    99A      2.463722
     100A      2.482545   101A      2.565048   102A      2.568254
     103A      2.569917   104A      2.581795   105A      2.758599
     106A      2.763247   107A      2.786519   108A      2.791580
     109A      2.843583   110A      2.848381   111A      2.855883
     112A      2.860810   113A      2.942799   114A      2.949601
     115A      2.959536   116A      2.986155

    Final Occupation by Irrep:
              A
    DOCC [    18 ]

  @RHF Final Energy:  -158.46621149906488

   => Energetics <=

    Nuclear Repulsion Energy =            121.0790840510740054
    One-Electron Energy =                -451.2669542502939066
    Two-Electron Energy =                 171.7216587001550181
    Total Energy =                       -158.4662114990648831

Computation Completed

Properties will be evaluated at   0.000000,   0.000000,   0.000000 [a0]

Properties computed using the SCF density matrix

  Nuclear Dipole Moment: [e a0]
     X:    -0.0404      Y:     0.0024      Z:     0.0502

  Electronic Dipole Moment: [e a0]
     X:     0.0205      Y:    -0.0160      Z:    -0.0518

  Dipole Moment: [e a0]
     X:    -0.0199      Y:    -0.0136      Z:    -0.0015     Total:     0.0242

  Dipole Moment: [D]
     X:    -0.0506      Y:    -0.0346      Z:    -0.0039     Total:     0.0614

*** tstop() called on ds3 at Mon Apr 27 16:50:16 2020
Module time:
	user time   =       7.48 seconds =       0.12 minutes
	system time =       2.82 seconds =       0.05 minutes
	total time  =         12 seconds =       0.20 minutes
Total time:
	user time   =       7.48 seconds =       0.12 minutes
	system time =       2.82 seconds =       0.05 minutes
	total time  =         12 seconds =       0.20 minutes
                                     G D M A

                                 by Anthony Stone

                           version 2.2.06, 22 June 2011

               Distributed Multipoles from Gaussian wavefunctions

Starting at 16:50:16 on 27 Apr 2020

Using SCF density matrix from file ./SSI/SSI-124LEU-181VAL-1-dimer.test.28260.fchk

                         Distributed Multipole Analysis

Standard DMA

Positions and radii in angstrom
Multipole moments in atomic units, ea_0^k for rank k

C          x = -1.179845  y = -0.964304  z = -0.838625 angstrom
           Maximum rank =  0   Radius =  0.650 angstrom
                   Q00  =  -0.230821

C          x = -1.499845  y = -1.611304  z = -2.177625 angstrom
           Maximum rank =  0   Radius =  0.650 angstrom
                   Q00  =  -0.236739

H          x = -0.723845  y =  0.013696  z = -0.993625 angstrom
           Maximum rank =  0   Radius =  0.325 angstrom
                   Q00  =   0.076476

H          x = -2.102845  y = -0.819304  z = -0.276625 angstrom
           Maximum rank =  0   Radius =  0.325 angstrom
                   Q00  =   0.079091

H          x = -0.510845  y = -1.603304  z = -0.261625 angstrom
           Maximum rank =  0   Radius =  0.325 angstrom
                   Q00  =   0.078481

H          x = -2.111845  y = -0.927304  z = -2.764625 angstrom
           Maximum rank =  0   Radius =  0.325 angstrom
                   Q00  =   0.079013

H          x = -0.569625  y = -1.839364  z = -2.718635 angstrom
           Maximum rank =  0   Radius =  0.325 angstrom
                   Q00  =   0.077541

H          x = -2.067805  y = -2.540104  z = -2.020295 angstrom
           Maximum rank =  0   Radius =  0.325 angstrom
                   Q00  =   0.077847

C          x =  1.211155  y =  0.554696  z =  1.667375 angstrom
           Maximum rank =  0   Radius =  0.650 angstrom
                   Q00  =  -0.239599

C          x =  1.472155  y =  2.020696  z =  1.344375 angstrom
           Maximum rank =  0   Radius =  0.650 angstrom
                   Q00  =  -0.233659

H          x =  2.098155  y =  0.103696  z =  2.112375 angstrom
           Maximum rank =  0   Radius =  0.325 angstrom
                   Q00  =   0.076413

H          x =  0.390155  y =  0.470696  z =  2.382375 angstrom
           Maximum rank =  0   Radius =  0.325 angstrom
                   Q00  =   0.077409

H          x =  0.957155  y =  0.011696  z =  0.758375 angstrom
           Maximum rank =  0   Radius =  0.325 angstrom
                   Q00  =   0.085771

H          x =  1.830155  y =  2.509696  z =  2.251375 angstrom
           Maximum rank =  0   Radius =  0.325 angstrom
                   Q00  =   0.077309

H          x =  2.229635  y =  2.110826  z =  0.551845 angstrom
           Maximum rank =  0   Radius =  0.325 angstrom
                   Q00  =   0.078240

H          x =  0.538455  y =  2.511656  z =  1.032665 angstrom
           Maximum rank =  0   Radius =  0.325 angstrom
                   Q00  =   0.077225

Total multipoles referred to origin at
           x =   0.000000,  y =    0.000000,  z =    0.000000 angstrom
                   Q00  =  -0.000000

Finished at 16:50:16 on 27 Apr 2020

  DMA results are available in the Python driver through the
	  variable('DMA DISTRIBUTED MULTIPOLES')
  and
	  variable('DMA TOTAL MULTIPOLES')
  commands.

    Psi4 stopped on: Monday, 27 April 2020 04:50PM
    Psi4 wall time for execution: 0:00:11.94

*** Psi4 exiting successfully. Buy a developer a beer!
