                               Psi4 1.3.2 release

  ==> Input File <==

--------------------------------------------------------------------------
import numpy as np
set {scf_type pk
basis cc-pvdz
d_convergence 10
gdma_switch   0
gdma_limit    0
gdma_origin   [ 0.0,  0.0,  0.0 ]
}
molecule test {
    units Angstrom
    0 1
    --
    0 1
    C               -2.165244434322380    -1.809071786584625    -0.398302549026614
    C                0.321755565677620     0.594928213415375     1.143697450973386
    C               -0.268244434322380    -0.566071786584624     0.665697450973386
    C               -0.354244434322380     1.806928213415375     1.054697450973386
    C               -1.539244434322380    -0.542071786584624     0.104697450973386
    C               -1.623244434322380     1.846928213415375     0.499697450973386
    C               -2.213244434322380     0.676928213415376     0.025697450973386
    H                1.311755565677620     0.561928213415376     1.576697450973386
    H                0.268755565677620    -1.501071786584625     0.731697450973386
    H                0.107755565677620     2.712928213415375     1.417697450973386
    H               -2.155244434322380     2.784928213415376     0.431697450973386
    H               -3.248244434322380    -1.689071786584624    -0.433302549026614
    H               -1.948244434322380    -2.605071786584624     0.311697450973386
    H               -3.200244434322380     0.718928213415375    -0.411302549026614
    H               -1.796394434322380    -2.102571786584625    -1.392182549026614
    C                3.434755565677620    -0.774071786584624    -0.547302549026614
    C                3.540755565677620    -0.755071786584624    -2.074302549026614
    H                4.038755565677620    -1.581071786584625    -0.130302549026614
    H                3.798755565677620     0.170928213415376    -0.145302549026614
    H                2.395755565677620    -0.912071786584624    -0.252302549026614
    H                4.586755565677620    -0.763071786584624    -2.340302549026614
    H                3.088313565677620    -1.650561786584624    -2.525302549026614
    H                3.065463565677620     0.147338213415376    -2.486322549026614

}
e, wfn = energy('scf', return_wfn=True)
gdma(wfn)
dmavals = variable('DMA DISTRIBUTED MULTIPOLES')
charges = np.array(dmavals)
print(charges)
np.save('SSI-061PHE-117VAL-1-dimer.npy', np.array(charges))--------------------------------------------------------------------------

*** tstart() called on ds3
*** at Tue Apr 28 11:54:47 2020

   => Loading Basis Set <=

    Name: CC-PVDZ
    Role: ORBITAL
    Keyword: BASIS
    atoms 1-7, 16-17  entry C          line   138 file /theoryfs2/ds/metcalf/miniconda2/envs/tf2gpu/share/psi4/basis/cc-pvdz.gbs
    atoms 8-15, 18-23 entry H          line    22 file /theoryfs2/ds/metcalf/miniconda2/envs/tf2gpu/share/psi4/basis/cc-pvdz.gbs

         ---------------------------------------------------------
                                   SCF
               by Justin Turney, Rob Parrish, Andy Simmonett
                          and Daniel G. A. Smith
                              RHF Reference
                        1 Threads,    500 MiB Core
         ---------------------------------------------------------

  ==> Geometry <==

    Molecular point group: c1
    Full point group: C1

    Geometry (in Angstrom), charge = 0, multiplicity = 1:

       Center              X                  Y                   Z               Mass
    ------------   -----------------  -----------------  -----------------  -----------------
         C           -2.165244434322    -1.809071786585    -0.398302549027    12.000000000000
         C            0.321755565678     0.594928213415     1.143697450973    12.000000000000
         C           -0.268244434322    -0.566071786585     0.665697450973    12.000000000000
         C           -0.354244434322     1.806928213415     1.054697450973    12.000000000000
         C           -1.539244434322    -0.542071786585     0.104697450973    12.000000000000
         C           -1.623244434322     1.846928213415     0.499697450973    12.000000000000
         C           -2.213244434322     0.676928213415     0.025697450973    12.000000000000
         H            1.311755565678     0.561928213415     1.576697450973     1.007825032230
         H            0.268755565678    -1.501071786585     0.731697450973     1.007825032230
         H            0.107755565678     2.712928213415     1.417697450973     1.007825032230
         H           -2.155244434322     2.784928213415     0.431697450973     1.007825032230
         H           -3.248244434322    -1.689071786585    -0.433302549027     1.007825032230
         H           -1.948244434322    -2.605071786585     0.311697450973     1.007825032230
         H           -3.200244434322     0.718928213415    -0.411302549027     1.007825032230
         H           -1.796394434322    -2.102571786585    -1.392182549027     1.007825032230
         C            3.434755565678    -0.774071786585    -0.547302549027    12.000000000000
         C            3.540755565678    -0.755071786585    -2.074302549027    12.000000000000
         H            4.038755565678    -1.581071786585    -0.130302549027     1.007825032230
         H            3.798755565678     0.170928213415    -0.145302549027     1.007825032230
         H            2.395755565678    -0.912071786585    -0.252302549027     1.007825032230
         H            4.586755565678    -0.763071786585    -2.340302549027     1.007825032230
         H            3.088313565678    -1.650561786585    -2.525302549027     1.007825032230
         H            3.065463565678     0.147338213415    -2.486322549027     1.007825032230

  Running in c1 symmetry.

  Rotational constants: A =      0.06657  B =      0.02435  C =      0.02007 [cm^-1]
  Rotational constants: A =   1995.74455  B =    729.99915  C =    601.77236 [MHz]
  Nuclear repulsion =  404.048502699345306

  Charge       = 0
  Multiplicity = 1
  Electrons    = 68
  Nalpha       = 34
  Nbeta        = 34

  ==> Algorithm <==

  SCF Algorithm Type is PK.
  DIIS enabled.
  MOM disabled.
  Fractional occupation disabled.
  Guess Type is SAD.
  Energy threshold   = 1.00e-06
  Density threshold  = 1.00e-10
  Integral threshold = 0.00e+00

  ==> Primary Basis <==

  Basis Set: CC-PVDZ
    Blend: CC-PVDZ
    Number of shells: 96
    Number of basis function: 196
    Number of Cartesian functions: 205
    Spherical Harmonics?: true
    Max angular momentum: 2

  ==> Pre-Iterations <==

   -------------------------------------------------------
    Irrep   Nso     Nmo     Nalpha   Nbeta   Ndocc  Nsocc
   -------------------------------------------------------
     A        196     196       0       0       0       0
   -------------------------------------------------------
    Total     196     196      34      34      34       0
   -------------------------------------------------------

  ==> Integral Setup <==

  Using integral reordering PK algorithm.
  Sizing the integral batches needed.
  Building batch lookup table.
   Calculation information:
      Number of atoms:                  23
      Number of AO shells:              96
      Number of primitives:            268
      Number of atomic orbitals:       205
      Number of basis functions:       196

      Integral cutoff                 1.00e-12
      Number of threads:                 1

	Batch   1 pq = [       0,    9405] index = [             0,44231715] size =     44231715
	Batch   2 pq = [    9405,   13301] index = [      44231715,88464951] size =     44233236
	Batch   3 pq = [   13301,   16290] index = [      88464951,132690195] size =     44225244
	Batch   4 pq = [   16290,   18810] index = [     132690195,176917455] size =     44227260
	Batch   5 pq = [   18810,   19306] index = [     176917455,186370471] size =      9453016
  Task number: 17
  Buffer size: 11059200
  Buffer per thread: 2
  We computed 9190014 shell quartets total.
  Whereas there are 10841496 unique shell quartets.

  ==> DiskJK: Disk-Based J/K Matrices <==

    J tasked:                  Yes
    K tasked:                  Yes
    wK tasked:                  No
    Memory [MiB]:              375
    Schwarz Cutoff:          1E-12

    OpenMP threads:              1

  Minimum eigenvalue in the overlap matrix is 3.0397734522E-04.
  Using Symmetric Orthogonalization.

  SCF Guess: Superposition of Atomic Densities via on-the-fly atomic UHF.

  ==> Iterations <==

                        Total Energy        Delta E     RMS |[F,P]|

   @RHF iter SAD:  -347.90971086179110   -3.47910e+02   0.00000e+00
   @RHF iter   1:  -348.76651797808745   -8.56807e-01   2.90530e-03 DIIS
   @RHF iter   2:  -348.95985455486004   -1.93337e-01   1.21021e-03 DIIS
   @RHF iter   3:  -348.99044717757164   -3.05926e-02   2.60049e-04 DIIS
   @RHF iter   4:  -348.99293892764126   -2.49175e-03   5.37947e-05 DIIS
   @RHF iter   5:  -348.99301442930278   -7.55017e-05   1.79653e-05 DIIS
   @RHF iter   6:  -348.99302227472953   -7.84543e-06   4.86616e-06 DIIS
   @RHF iter   7:  -348.99302293713572   -6.62406e-07   1.23344e-06 DIIS
   @RHF iter   8:  -348.99302298465199   -4.75163e-08   2.82059e-07 DIIS
   @RHF iter   9:  -348.99302298919372   -4.54173e-09   1.14887e-07 DIIS
   @RHF iter  10:  -348.99302299005575   -8.62030e-10   5.15853e-08 DIIS
   @RHF iter  11:  -348.99302299036492   -3.09171e-10   1.96717e-08 DIIS
   @RHF iter  12:  -348.99302299041517   -5.02496e-11   8.44319e-09 DIIS
   @RHF iter  13:  -348.99302299042103   -5.85487e-12   3.19750e-09 DIIS
   @RHF iter  14:  -348.99302299042478   -3.75167e-12   6.49435e-10 DIIS
   @RHF iter  15:  -348.99302299042256    2.21689e-12   2.04247e-10 DIIS
   @RHF iter  16:  -348.99302299042461   -2.04636e-12   1.01490e-10 DIIS
   @RHF iter  17:  -348.99302299042301    1.59162e-12   5.27532e-11 DIIS
  Energy and wave function converged.

  ==> Post-Iterations <==

    Orbital Energies [Eh]
    ---------------------

    Doubly Occupied:

       1A    -11.239579     2A    -11.234492     3A    -11.234146
       4A    -11.230177     5A    -11.229745     6A    -11.228966
       7A    -11.228604     8A    -11.215852     9A    -11.214489
      10A     -1.154025    11A     -1.045887    12A     -1.016066
      13A     -1.011590    14A     -0.931976    15A     -0.836341
      16A     -0.825115    17A     -0.795641    18A     -0.691652
      19A     -0.632363    20A     -0.629461    21A     -0.598200
      22A     -0.594030    23A     -0.581174    24A     -0.577996
      25A     -0.563246    26A     -0.535737    27A     -0.499006
      28A     -0.489967    29A     -0.485426    30A     -0.483707
      31A     -0.482564    32A     -0.479620    33A     -0.331902
      34A     -0.322313

    Virtual:

      35A      0.135768    36A      0.140684    37A      0.177179
      38A      0.196445    39A      0.200872    40A      0.217850
      41A      0.239420    42A      0.240468    43A      0.253509
      44A      0.260226    45A      0.264310    46A      0.281347
      47A      0.286104    48A      0.290285    49A      0.296009
      50A      0.340619    51A      0.368737    52A      0.386473
      53A      0.401006    54A      0.457044    55A      0.464175
      56A      0.480124    57A      0.498307    58A      0.564479
      59A      0.595889    60A      0.597276    61A      0.601647
      62A      0.624037    63A      0.637566    64A      0.663175
      65A      0.677688    66A      0.690818    67A      0.698197
      68A      0.705991    69A      0.718968    70A      0.741021
      71A      0.744916    72A      0.750137    73A      0.762621
      74A      0.777430    75A      0.780495    76A      0.809583
      77A      0.838085    78A      0.845533    79A      0.859757
      80A      0.873705    81A      0.879642    82A      0.886437
      83A      0.893223    84A      0.895697    85A      0.898152
      86A      0.903757    87A      0.913386    88A      0.923162
      89A      0.926470    90A      0.931278    91A      0.943259
      92A      0.960238    93A      0.992290    94A      1.005779
      95A      1.025536    96A      1.073795    97A      1.113062
      98A      1.127920    99A      1.132007   100A      1.146827
     101A      1.157370   102A      1.169564   103A      1.190099
     104A      1.236071   105A      1.243947   106A      1.248115
     107A      1.256761   108A      1.294126   109A      1.307065
     110A      1.312244   111A      1.321862   112A      1.347528
     113A      1.415315   114A      1.475334   115A      1.482785
     116A      1.507928   117A      1.521793   118A      1.558292
     119A      1.582905   120A      1.612334   121A      1.675625
     122A      1.688392   123A      1.695457   124A      1.700327
     125A      1.740309   126A      1.750571   127A      1.767731
     128A      1.791973   129A      1.811086   130A      1.857693
     131A      1.871533   132A      1.876025   133A      1.885674
     134A      1.896334   135A      1.899253   136A      1.911209
     137A      1.919670   138A      1.925030   139A      1.938991
     140A      1.943725   141A      1.947261   142A      1.952766
     143A      1.957813   144A      1.965663   145A      1.984695
     146A      1.985262   147A      1.989741   148A      2.005186
     149A      2.048792   150A      2.061091   151A      2.077758
     152A      2.101592   153A      2.109124   154A      2.126034
     155A      2.141639   156A      2.157655   157A      2.173320
     158A      2.181300   159A      2.191883   160A      2.256379
     161A      2.281665   162A      2.293915   163A      2.301992
     164A      2.310449   165A      2.318318   166A      2.326262
     167A      2.328680   168A      2.452330   169A      2.467897
     170A      2.472570   171A      2.481016   172A      2.504226
     173A      2.543030   174A      2.562688   175A      2.587603
     176A      2.630548   177A      2.738882   178A      2.756753
     179A      2.769742   180A      2.772859   181A      2.780581
     182A      2.808845   183A      2.819244   184A      2.850749
     185A      2.858880   186A      2.870570   187A      2.873254
     188A      2.951593   189A      2.981100   190A      2.998616
     191A      3.014270   192A      3.031755   193A      3.162235
     194A      3.207440   195A      3.303698   196A      3.977135

    Final Occupation by Irrep:
              A
    DOCC [    34 ]

  @RHF Final Energy:  -348.99302299042301

   => Energetics <=

    Nuclear Repulsion Energy =            404.0485026993453062
    One-Electron Energy =               -1270.7809421724423373
    Two-Electron Energy =                 517.7394164826739598
    Total Energy =                       -348.9930229904230146

Computation Completed

Properties will be evaluated at   0.000000,   0.000000,   0.000000 [a0]

Properties computed using the SCF density matrix

  Nuclear Dipole Moment: [e a0]
     X:     9.6688      Y:    -5.3507      Z:    -5.2940

  Electronic Dipole Moment: [e a0]
     X:    -9.7406      Y:     5.2628      Z:     5.2552

  Dipole Moment: [e a0]
     X:    -0.0718      Y:    -0.0879      Z:    -0.0389     Total:     0.1199

  Dipole Moment: [D]
     X:    -0.1824      Y:    -0.2233      Z:    -0.0987     Total:     0.3048

*** tstop() called on ds3 at Tue Apr 28 11:56:29 2020
Module time:
	user time   =      65.26 seconds =       1.09 minutes
	system time =      30.90 seconds =       0.52 minutes
	total time  =        102 seconds =       1.70 minutes
Total time:
	user time   =      65.26 seconds =       1.09 minutes
	system time =      30.90 seconds =       0.52 minutes
	total time  =        102 seconds =       1.70 minutes
                                     G D M A

                                 by Anthony Stone

                           version 2.2.06, 22 June 2011

               Distributed Multipoles from Gaussian wavefunctions

Starting at 11:56:29 on 28 Apr 2020

Using SCF density matrix from file ./SSI/SSI-061PHE-117VAL-1-dimer.test.19396.fchk

                         Distributed Multipole Analysis

Standard DMA

Positions and radii in angstrom
Multipole moments in atomic units, ea_0^k for rank k

C          x = -2.165244  y = -1.809072  z = -0.398303 angstrom
           Maximum rank =  0   Radius =  0.650 angstrom
                   Q00  =  -0.203108

C          x =  0.321756  y =  0.594928  z =  1.143697 angstrom
           Maximum rank =  0   Radius =  0.650 angstrom
                   Q00  =  -0.076568

C          x = -0.268244  y = -0.566072  z =  0.665697 angstrom
           Maximum rank =  0   Radius =  0.650 angstrom
                   Q00  =  -0.019658

C          x = -0.354244  y =  1.806928  z =  1.054697 angstrom
           Maximum rank =  0   Radius =  0.650 angstrom
                   Q00  =  -0.078046

C          x = -1.539244  y = -0.542072  z =  0.104697 angstrom
           Maximum rank =  0   Radius =  0.650 angstrom
                   Q00  =  -0.098799

C          x = -1.623244  y =  1.846928  z =  0.499697 angstrom
           Maximum rank =  0   Radius =  0.650 angstrom
                   Q00  =  -0.075660

C          x = -2.213244  y =  0.676928  z =  0.025697 angstrom
           Maximum rank =  0   Radius =  0.650 angstrom
                   Q00  =  -0.054555

H          x =  1.311756  y =  0.561928  z =  1.576697 angstrom
           Maximum rank =  0   Radius =  0.325 angstrom
                   Q00  =   0.066913

H          x =  0.268756  y = -1.501072  z =  0.731697 angstrom
           Maximum rank =  0   Radius =  0.325 angstrom
                   Q00  =   0.054543

H          x =  0.107756  y =  2.712928  z =  1.417697 angstrom
           Maximum rank =  0   Radius =  0.325 angstrom
                   Q00  =   0.060488

H          x = -2.155244  y =  2.784928  z =  0.431697 angstrom
           Maximum rank =  0   Radius =  0.325 angstrom
                   Q00  =   0.064388

H          x = -3.248244  y = -1.689072  z = -0.433303 angstrom
           Maximum rank =  0   Radius =  0.325 angstrom
                   Q00  =   0.098320

H          x = -1.948244  y = -2.605072  z =  0.311697 angstrom
           Maximum rank =  0   Radius =  0.325 angstrom
                   Q00  =   0.098818

H          x = -3.200244  y =  0.718928  z = -0.411303 angstrom
           Maximum rank =  0   Radius =  0.325 angstrom
                   Q00  =   0.057316

H          x = -1.796394  y = -2.102572  z = -1.392183 angstrom
           Maximum rank =  0   Radius =  0.325 angstrom
                   Q00  =   0.105015

C          x =  3.434756  y = -0.774072  z = -0.547303 angstrom
           Maximum rank =  0   Radius =  0.650 angstrom
                   Q00  =  -0.241553

C          x =  3.540756  y = -0.755072  z = -2.074303 angstrom
           Maximum rank =  0   Radius =  0.650 angstrom
                   Q00  =  -0.237310

H          x =  4.038756  y = -1.581072  z = -0.130303 angstrom
           Maximum rank =  0   Radius =  0.325 angstrom
                   Q00  =   0.075880

H          x =  3.798756  y =  0.170928  z = -0.145303 angstrom
           Maximum rank =  0   Radius =  0.325 angstrom
                   Q00  =   0.078235

H          x =  2.395756  y = -0.912072  z = -0.252303 angstrom
           Maximum rank =  0   Radius =  0.325 angstrom
                   Q00  =   0.088483

H          x =  4.586756  y = -0.763072  z = -2.340303 angstrom
           Maximum rank =  0   Radius =  0.325 angstrom
                   Q00  =   0.077282

H          x =  3.088314  y = -1.650562  z = -2.525303 angstrom
           Maximum rank =  0   Radius =  0.325 angstrom
                   Q00  =   0.077175

H          x =  3.065464  y =  0.147338  z = -2.486323 angstrom
           Maximum rank =  0   Radius =  0.325 angstrom
                   Q00  =   0.082400

Total multipoles referred to origin at
           x =   0.000000,  y =    0.000000,  z =    0.000000 angstrom
                   Q00  =  -0.000000

Finished at 11:56:29 on 28 Apr 2020

  DMA results are available in the Python driver through the
	  variable('DMA DISTRIBUTED MULTIPOLES')
  and
	  variable('DMA TOTAL MULTIPOLES')
  commands.

    Psi4 stopped on: Tuesday, 28 April 2020 11:56AM
    Psi4 wall time for execution: 0:01:42.18

*** Psi4 exiting successfully. Buy a developer a beer!
