                               Psi4 1.3.2 release

  ==> Input File <==

--------------------------------------------------------------------------
import numpy as np
set {scf_type pk
basis cc-pvdz
d_convergence 10
gdma_switch   0
gdma_limit    0
gdma_origin   [ 0.0,  0.0,  0.0 ]
}
molecule test {
    units Angstrom
    0 1
    --
    0 1
    C               -2.543214305857909     1.547853757774527    -1.662000957937328
    C               -0.246214305857908    -0.588146242225473     0.398999042062672
    C               -0.744214305857908    -0.172146242225473    -0.859000957937328
    C               -1.732214305857908     0.837853757774527    -0.619000957937328
    C               -1.814214305857908     0.973853757774527     0.730999042062672
    C                0.725785694142092    -1.562146242225473     0.518999042062672
    C                1.216785694142092    -2.126146242225473    -0.643000957937328
    C               -0.225214305857908    -0.759146242225473    -2.015000957937328
    C                0.758785694142092    -1.722146242225473    -1.893000957937328
    N               -0.926214305857908     0.124853757774527     1.348999042062672
    H               -0.832214305857908     0.047853757774527     2.356999042062672
    H                1.063785694142092    -1.888146242225473     1.488999042062672
    H               -2.489214305857908     1.650853757774527     1.244999042062672
    H                1.989785694142091    -2.876146242225473    -0.588000957937328
    H               -0.570214305857908    -0.446146242225473    -2.989000957937328
    H               -1.879214305857909     1.926853757774527    -2.441000957937328
    H               -3.038214305857908     2.396853757774527    -1.199000957937328
    H                1.181785694142092    -2.162146242225473    -2.785000957937328
    H               -3.280991305857909     0.867105757774527    -2.111741957937328
    C                2.489785694142092     1.663853757774527     1.308999042062672
    C                2.582785694142092     1.105853757774527     2.732999042062672
    H                3.283785694142092     2.388853757774527     1.129999042062672
    H                2.575785694142092     0.856853757774527     0.581999042062672
    H                1.523785694142092     2.138853757774527     1.140999042062672
    H                1.692785694142092     0.501853757774527     2.921999042062672
    H                2.599285694142091     1.929492757774527     3.461934042062672
    H                3.468375694142092     0.465104757774527     2.856137042062672

}
e, wfn = energy('scf', return_wfn=True)
gdma(wfn)
dmavals = variable('DMA DISTRIBUTED MULTIPOLES')
charges = np.array(dmavals)
print(charges)
np.save('SSI-040TRP-121ILE-1-dimer.npy', np.array(charges))--------------------------------------------------------------------------

*** tstart() called on ds3
*** at Tue Apr 28 16:36:23 2020

   => Loading Basis Set <=

    Name: CC-PVDZ
    Role: ORBITAL
    Keyword: BASIS
    atoms 1-9, 20-21   entry C          line   138 file /theoryfs2/ds/metcalf/miniconda2/envs/tf2gpu/share/psi4/basis/cc-pvdz.gbs
    atoms 10           entry N          line   168 file /theoryfs2/ds/metcalf/miniconda2/envs/tf2gpu/share/psi4/basis/cc-pvdz.gbs
    atoms 11-19, 22-27 entry H          line    22 file /theoryfs2/ds/metcalf/miniconda2/envs/tf2gpu/share/psi4/basis/cc-pvdz.gbs

         ---------------------------------------------------------
                                   SCF
               by Justin Turney, Rob Parrish, Andy Simmonett
                          and Daniel G. A. Smith
                              RHF Reference
                        1 Threads,    500 MiB Core
         ---------------------------------------------------------

  ==> Geometry <==

    Molecular point group: c1
    Full point group: C1

    Geometry (in Angstrom), charge = 0, multiplicity = 1:

       Center              X                  Y                   Z               Mass
    ------------   -----------------  -----------------  -----------------  -----------------
         C           -2.543214305858     1.547853757775    -1.662000957937    12.000000000000
         C           -0.246214305858    -0.588146242225     0.398999042063    12.000000000000
         C           -0.744214305858    -0.172146242225    -0.859000957937    12.000000000000
         C           -1.732214305858     0.837853757775    -0.619000957937    12.000000000000
         C           -1.814214305858     0.973853757775     0.730999042063    12.000000000000
         C            0.725785694142    -1.562146242225     0.518999042063    12.000000000000
         C            1.216785694142    -2.126146242225    -0.643000957937    12.000000000000
         C           -0.225214305858    -0.759146242225    -2.015000957937    12.000000000000
         C            0.758785694142    -1.722146242225    -1.893000957937    12.000000000000
         N           -0.926214305858     0.124853757775     1.348999042063    14.003074004430
         H           -0.832214305858     0.047853757775     2.356999042063     1.007825032230
         H            1.063785694142    -1.888146242225     1.488999042063     1.007825032230
         H           -2.489214305858     1.650853757775     1.244999042063     1.007825032230
         H            1.989785694142    -2.876146242225    -0.588000957937     1.007825032230
         H           -0.570214305858    -0.446146242225    -2.989000957937     1.007825032230
         H           -1.879214305858     1.926853757775    -2.441000957937     1.007825032230
         H           -3.038214305858     2.396853757775    -1.199000957937     1.007825032230
         H            1.181785694142    -2.162146242225    -2.785000957937     1.007825032230
         H           -3.280991305858     0.867105757775    -2.111741957937     1.007825032230
         C            2.489785694142     1.663853757775     1.308999042063    12.000000000000
         C            2.582785694142     1.105853757775     2.732999042063    12.000000000000
         H            3.283785694142     2.388853757775     1.129999042063     1.007825032230
         H            2.575785694142     0.856853757775     0.581999042063     1.007825032230
         H            1.523785694142     2.138853757775     1.140999042063     1.007825032230
         H            1.692785694142     0.501853757775     2.921999042063     1.007825032230
         H            2.599285694142     1.929492757775     3.461934042063     1.007825032230
         H            3.468375694142     0.465104757775     2.856137042063     1.007825032230

  Running in c1 symmetry.

  Rotational constants: A =      0.03495  B =      0.02418  C =      0.01751 [cm^-1]
  Rotational constants: A =   1047.75895  B =    724.80260  C =    525.04618 [MHz]
  Nuclear repulsion =  670.728250611386443

  Charge       = 0
  Multiplicity = 1
  Electrons    = 88
  Nalpha       = 44
  Nbeta        = 44

  ==> Algorithm <==

  SCF Algorithm Type is PK.
  DIIS enabled.
  MOM disabled.
  Fractional occupation disabled.
  Guess Type is SAD.
  Energy threshold   = 1.00e-06
  Density threshold  = 1.00e-10
  Integral threshold = 0.00e+00

  ==> Primary Basis <==

  Basis Set: CC-PVDZ
    Blend: CC-PVDZ
    Number of shells: 117
    Number of basis function: 243
    Number of Cartesian functions: 255
    Spherical Harmonics?: true
    Max angular momentum: 2

  ==> Pre-Iterations <==

   -------------------------------------------------------
    Irrep   Nso     Nmo     Nalpha   Nbeta   Ndocc  Nsocc
   -------------------------------------------------------
     A        243     243       0       0       0       0
   -------------------------------------------------------
    Total     243     243      44      44      44       0
   -------------------------------------------------------

  ==> Integral Setup <==

  Using integral reordering PK algorithm.
  Sizing the integral batches needed.
  Building batch lookup table.
   Calculation information:
      Number of atoms:                  27
      Number of AO shells:             117
      Number of primitives:            339
      Number of atomic orbitals:       255
      Number of basis functions:       243

      Integral cutoff                 1.00e-12
      Number of threads:                 1

	Batch   1 pq = [       0,    9405] index = [             0,44231715] size =     44231715
	Batch   2 pq = [    9405,   13301] index = [      44231715,88464951] size =     44233236
	Batch   3 pq = [   13301,   16290] index = [      88464951,132690195] size =     44225244
	Batch   4 pq = [   16290,   18810] index = [     132690195,176917455] size =     44227260
	Batch   5 pq = [   18810,   21030] index = [     176917455,221140965] size =     44223510
	Batch   6 pq = [   21030,   23037] index = [     221140965,265363203] size =     44222238
	Batch   7 pq = [   23037,   24883] index = [     265363203,309594286] size =     44231083
	Batch   8 pq = [   24883,   26601] index = [     309594286,353819901] size =     44225615
	Batch   9 pq = [   26601,   28214] index = [     353819901,398029005] size =     44209104
	Batch  10 pq = [   28214,   29646] index = [     398029005,439457481] size =     41428476
  Task number: 40
  Buffer size: 11059200
  Buffer per thread: 2
  We computed 24642355 shell quartets total.
  Whereas there are 23829156 unique shell quartets.
     3.41 percent of shell quartets recomputed by reordering.

  ==> DiskJK: Disk-Based J/K Matrices <==

    J tasked:                  Yes
    K tasked:                  Yes
    wK tasked:                  No
    Memory [MiB]:              375
    Schwarz Cutoff:          1E-12

    OpenMP threads:              1

  Minimum eigenvalue in the overlap matrix is 2.3240454190E-04.
  Using Symmetric Orthogonalization.

  SCF Guess: Superposition of Atomic Densities via on-the-fly atomic UHF.

  ==> Iterations <==

                        Total Energy        Delta E     RMS |[F,P]|

   @RHF iter SAD:  -479.11531135362577   -4.79115e+02   0.00000e+00
   @RHF iter   1:  -479.48800114207700   -3.72690e-01   2.62263e-03 DIIS
   @RHF iter   2:  -479.72242527838671   -2.34424e-01   1.17359e-03 DIIS
   @RHF iter   3:  -479.76530124718818   -4.28760e-02   3.03156e-04 DIIS
   @RHF iter   4:  -479.76909986394787   -3.79862e-03   1.39653e-04 DIIS
   @RHF iter   5:  -479.76974745914276   -6.47595e-04   2.00448e-05 DIIS
   @RHF iter   6:  -479.76977620175126   -2.87426e-05   9.39113e-06 DIIS
   @RHF iter   7:  -479.76978212857006   -5.92682e-06   3.77723e-06 DIIS
   @RHF iter   8:  -479.76978375031558   -1.62175e-06   1.49051e-06 DIIS
   @RHF iter   9:  -479.76978406496301   -3.14647e-07   6.44989e-07 DIIS
   @RHF iter  10:  -479.76978412588170   -6.09187e-08   2.91615e-07 DIIS
   @RHF iter  11:  -479.76978414092366   -1.50420e-08   1.13057e-07 DIIS
   @RHF iter  12:  -479.76978414309065   -2.16698e-09   3.69425e-08 DIIS
   @RHF iter  13:  -479.76978414324287   -1.52227e-10   1.04646e-08 DIIS
   @RHF iter  14:  -479.76978414324924   -6.36646e-12   4.98828e-09 DIIS
   @RHF iter  15:  -479.76978414325424   -5.00222e-12   2.03878e-09 DIIS
   @RHF iter  16:  -479.76978414325509   -8.52651e-13   9.84449e-10 DIIS
   @RHF iter  17:  -479.76978414324685    8.24230e-12   4.15336e-10 DIIS
   @RHF iter  18:  -479.76978414324839   -1.53477e-12   1.57460e-10 DIIS
   @RHF iter  19:  -479.76978414325384   -5.45697e-12   5.58877e-11 DIIS
  Energy and wave function converged.

  ==> Post-Iterations <==

    Orbital Energies [Eh]
    ---------------------

    Doubly Occupied:

       1A    -15.601380     2A    -11.263854     3A    -11.262413
       4A    -11.228456     5A    -11.228430     6A    -11.227283
       7A    -11.226844     8A    -11.219077     9A    -11.218571
      10A    -11.218485    11A    -11.216805    12A    -11.208098
      13A     -1.296368    14A     -1.132432    15A     -1.074658
      16A     -1.012145    17A     -0.999985    18A     -0.988820
      19A     -0.932079    20A     -0.841250    21A     -0.832928
      22A     -0.805301    23A     -0.753502    24A     -0.720216
      25A     -0.662883    26A     -0.643459    27A     -0.603780
      28A     -0.600108    29A     -0.593542    30A     -0.590689
      31A     -0.586554    32A     -0.568547    33A     -0.552725
      34A     -0.537649    35A     -0.528497    36A     -0.496390
      37A     -0.495372    38A     -0.481991    39A     -0.480907
      40A     -0.470924    41A     -0.462880    42A     -0.373290
      43A     -0.296961    44A     -0.275998

    Virtual:

      45A      0.126344    46A      0.165311    47A      0.171186
      48A      0.187809    49A      0.198661    50A      0.211712
      51A      0.221596    52A      0.229188    53A      0.232841
      54A      0.248436    55A      0.261778    56A      0.266867
      57A      0.274305    58A      0.278710    59A      0.285040
      60A      0.290645    61A      0.301962    62A      0.327805
      63A      0.376486    64A      0.386723    65A      0.398584
      66A      0.405188    67A      0.432233    68A      0.445587
      69A      0.475042    70A      0.488894    71A      0.495070
      72A      0.510222    73A      0.585334    74A      0.587063
      75A      0.604013    76A      0.608281    77A      0.618545
      78A      0.638417    79A      0.644627    80A      0.667233
      81A      0.671939    82A      0.686985    83A      0.703709
      84A      0.715959    85A      0.723810    86A      0.734716
      87A      0.743627    88A      0.748533    89A      0.758189
      90A      0.763194    91A      0.773134    92A      0.779944
      93A      0.792539    94A      0.801913    95A      0.827457
      96A      0.846877    97A      0.851022    98A      0.861677
      99A      0.872498   100A      0.881651   101A      0.884394
     102A      0.888770   103A      0.896694   104A      0.902516
     105A      0.912451   106A      0.912938   107A      0.923778
     108A      0.945712   109A      0.954892   110A      0.958361
     111A      0.963629   112A      0.973133   113A      0.984058
     114A      1.001755   115A      1.017067   116A      1.026553
     117A      1.066836   118A      1.099562   119A      1.115027
     120A      1.125018   121A      1.126912   122A      1.132978
     123A      1.144628   124A      1.151743   125A      1.161948
     126A      1.179741   127A      1.209366   128A      1.224980
     129A      1.226816   130A      1.245426   131A      1.252407
     132A      1.270142   133A      1.280407   134A      1.295639
     135A      1.311847   136A      1.331658   137A      1.338273
     138A      1.367102   139A      1.378531   140A      1.409173
     141A      1.446190   142A      1.474765   143A      1.483726
     144A      1.515503   145A      1.562188   146A      1.576931
     147A      1.590593   148A      1.608472   149A      1.634150
     150A      1.645752   151A      1.661578   152A      1.683228
     153A      1.683955   154A      1.705431   155A      1.718696
     156A      1.750820   157A      1.770651   158A      1.776072
     159A      1.800207   160A      1.809022   161A      1.825308
     162A      1.836309   163A      1.873486   164A      1.881828
     165A      1.884026   166A      1.894483   167A      1.901571
     168A      1.907402   169A      1.915776   170A      1.928662
     171A      1.937552   172A      1.942961   173A      1.952110
     174A      1.954421   175A      1.961593   176A      1.964834
     177A      1.966532   178A      1.981351   179A      1.998551
     180A      2.011831   181A      2.021828   182A      2.038481
     183A      2.053116   184A      2.082621   185A      2.093046
     186A      2.102942   187A      2.106387   188A      2.112310
     189A      2.118665   190A      2.133076   191A      2.143592
     192A      2.151895   193A      2.169516   194A      2.176803
     195A      2.187597   196A      2.227850   197A      2.248648
     198A      2.287326   199A      2.295335   200A      2.307057
     201A      2.322637   202A      2.331187   203A      2.334077
     204A      2.363187   205A      2.402373   206A      2.426570
     207A      2.453929   208A      2.459487   209A      2.462439
     210A      2.474760   211A      2.549251   212A      2.571266
     213A      2.580929   214A      2.598132   215A      2.619027
     216A      2.650625   217A      2.669188   218A      2.691924
     219A      2.698930   220A      2.766520   221A      2.774081
     222A      2.777075   223A      2.798788   224A      2.804617
     225A      2.810667   226A      2.830637   227A      2.864184
     228A      2.867773   229A      2.870061   230A      2.884453
     231A      2.913187   232A      2.961430   233A      2.966852
     234A      2.984365   235A      3.036232   236A      3.071661
     237A      3.090692   238A      3.138047   239A      3.220131
     240A      3.321702   241A      3.384909   242A      3.751571
     243A      3.978298

    Final Occupation by Irrep:
              A
    DOCC [    44 ]

  @RHF Final Energy:  -479.76978414325384

   => Energetics <=

    Nuclear Repulsion Energy =            670.7282506113864429
    One-Electron Energy =               -1979.3710188581255807
    Two-Electron Energy =                 828.8729841034854644
    Total Energy =                       -479.7697841432537871

Computation Completed

Properties will be evaluated at   0.000000,   0.000000,   0.000000 [a0]

Properties computed using the SCF density matrix

  Nuclear Dipole Moment: [e a0]
     X:     6.8360      Y:     7.3100      Z:     4.7493

  Electronic Dipole Moment: [e a0]
     X:    -7.1075      Y:    -7.0853      Z:    -4.1310

  Dipole Moment: [e a0]
     X:    -0.2715      Y:     0.2247      Z:     0.6184     Total:     0.7117

  Dipole Moment: [D]
     X:    -0.6900      Y:     0.5711      Z:     1.5717     Total:     1.8091

*** tstop() called on ds3 at Tue Apr 28 16:40:46 2020
Module time:
	user time   =     191.37 seconds =       3.19 minutes
	system time =      69.83 seconds =       1.16 minutes
	total time  =        263 seconds =       4.38 minutes
Total time:
	user time   =     191.37 seconds =       3.19 minutes
	system time =      69.83 seconds =       1.16 minutes
	total time  =        263 seconds =       4.38 minutes
                                     G D M A

                                 by Anthony Stone

                           version 2.2.06, 22 June 2011

               Distributed Multipoles from Gaussian wavefunctions

Starting at 16:40:46 on 28 Apr 2020

Using SCF density matrix from file ./SSI/SSI-040TRP-121ILE-1-dimer.test.15276.fchk

                         Distributed Multipole Analysis

Standard DMA

Positions and radii in angstrom
Multipole moments in atomic units, ea_0^k for rank k

C          x = -2.543214  y =  1.547854  z = -1.662001 angstrom
           Maximum rank =  0   Radius =  0.650 angstrom
                   Q00  =  -0.202991

C          x = -0.246214  y = -0.588146  z =  0.398999 angstrom
           Maximum rank =  0   Radius =  0.650 angstrom
                   Q00  =   0.252440

C          x = -0.744214  y = -0.172146  z = -0.859001 angstrom
           Maximum rank =  0   Radius =  0.650 angstrom
                   Q00  =  -0.052032

C          x = -1.732214  y =  0.837854  z = -0.619001 angstrom
           Maximum rank =  0   Radius =  0.650 angstrom
                   Q00  =  -0.126487

C          x = -1.814214  y =  0.973854  z =  0.730999 angstrom
           Maximum rank =  0   Radius =  0.650 angstrom
                   Q00  =   0.069938

C          x =  0.725786  y = -1.562146  z =  0.518999 angstrom
           Maximum rank =  0   Radius =  0.650 angstrom
                   Q00  =  -0.125021

C          x =  1.216786  y = -2.126146  z = -0.643001 angstrom
           Maximum rank =  0   Radius =  0.650 angstrom
                   Q00  =  -0.002069

C          x = -0.225214  y = -0.759146  z = -2.015001 angstrom
           Maximum rank =  0   Radius =  0.650 angstrom
                   Q00  =  -0.097366

C          x =  0.758786  y = -1.722146  z = -1.893001 angstrom
           Maximum rank =  0   Radius =  0.650 angstrom
                   Q00  =  -0.095364

N          x = -0.926214  y =  0.124854  z =  1.348999 angstrom
           Maximum rank =  0   Radius =  0.650 angstrom
                   Q00  =  -0.501869

H          x = -0.832214  y =  0.047854  z =  2.356999 angstrom
           Maximum rank =  0   Radius =  0.325 angstrom
                   Q00  =   0.219967

H          x =  1.063786  y = -1.888146  z =  1.488999 angstrom
           Maximum rank =  0   Radius =  0.325 angstrom
                   Q00  =   0.073369

H          x = -2.489214  y =  1.650854  z =  1.244999 angstrom
           Maximum rank =  0   Radius =  0.325 angstrom
                   Q00  =   0.100652

H          x =  1.989786  y = -2.876146  z = -0.588001 angstrom
           Maximum rank =  0   Radius =  0.325 angstrom
                   Q00  =   0.062495

H          x = -0.570214  y = -0.446146  z = -2.989001 angstrom
           Maximum rank =  0   Radius =  0.325 angstrom
                   Q00  =   0.068258

H          x = -1.879214  y =  1.926854  z = -2.441001 angstrom
           Maximum rank =  0   Radius =  0.325 angstrom
                   Q00  =   0.099672

H          x = -3.038214  y =  2.396854  z = -1.199001 angstrom
           Maximum rank =  0   Radius =  0.325 angstrom
                   Q00  =   0.105129

H          x =  1.181786  y = -2.162146  z = -2.785001 angstrom
           Maximum rank =  0   Radius =  0.325 angstrom
                   Q00  =   0.058223

H          x = -3.280991  y =  0.867106  z = -2.111742 angstrom
           Maximum rank =  0   Radius =  0.325 angstrom
                   Q00  =   0.097828

C          x =  2.489786  y =  1.663854  z =  1.308999 angstrom
           Maximum rank =  0   Radius =  0.650 angstrom
                   Q00  =  -0.228036

C          x =  2.582786  y =  1.105854  z =  2.732999 angstrom
           Maximum rank =  0   Radius =  0.650 angstrom
                   Q00  =  -0.241129

H          x =  3.283786  y =  2.388854  z =  1.129999 angstrom
           Maximum rank =  0   Radius =  0.325 angstrom
                   Q00  =   0.075330

H          x =  2.575786  y =  0.856854  z =  0.581999 angstrom
           Maximum rank =  0   Radius =  0.325 angstrom
                   Q00  =   0.093244

H          x =  1.523786  y =  2.138854  z =  1.140999 angstrom
           Maximum rank =  0   Radius =  0.325 angstrom
                   Q00  =   0.083131

H          x =  1.692786  y =  0.501854  z =  2.921999 angstrom
           Maximum rank =  0   Radius =  0.325 angstrom
                   Q00  =   0.055077

H          x =  2.599286  y =  1.929493  z =  3.461934 angstrom
           Maximum rank =  0   Radius =  0.325 angstrom
                   Q00  =   0.076028

H          x =  3.468376  y =  0.465105  z =  2.856137 angstrom
           Maximum rank =  0   Radius =  0.325 angstrom
                   Q00  =   0.081581

Total multipoles referred to origin at
           x =   0.000000,  y =    0.000000,  z =    0.000000 angstrom
                   Q00  =  -0.000000

Finished at 16:40:46 on 28 Apr 2020

  DMA results are available in the Python driver through the
	  variable('DMA DISTRIBUTED MULTIPOLES')
  and
	  variable('DMA TOTAL MULTIPOLES')
  commands.

    Psi4 stopped on: Tuesday, 28 April 2020 04:40PM
    Psi4 wall time for execution: 0:04:22.68

*** Psi4 exiting successfully. Buy a developer a beer!
