                               Psi4 1.3.2 release

  ==> Input File <==

--------------------------------------------------------------------------
import numpy as np
set {scf_type pk
basis cc-pvdz
d_convergence 10
gdma_switch   0
gdma_limit    0
gdma_origin   [ 0.0,  0.0,  0.0 ]
}
molecule test {
    units Angstrom
    0 1
    --
    0 1
    C               -2.583948631497661     0.393895447516953     2.373082759094876
    C                0.695051368502340    -0.073104552483047     0.515082759094876
    C                1.422051368502339     1.023895447516953     0.898082759094876
    C               -0.596948631497661    -0.273104552483047     0.980082759094876
    C               -1.180948631497660     0.630895447516953     1.856082759094876
    C                0.869051368502339     1.932895447516954     1.775082759094876
    C               -0.438948631497661     1.743895447516953     2.252082759094876
    H                1.153051368502340    -0.802104552483046    -0.131917240905124
    H                2.428051368502339     1.163895447516953     0.526082759094876
    H               -1.139948631497660    -1.155104552483047     0.670082759094876
    H                1.439051368502339     2.796895447516954     2.091082759094876
    H               -2.632948631497661     0.695895447516954     3.420082759094876
    H               -2.781948631497661    -0.679104552483046     2.349082759094876
    H               -0.864948631497661     2.459895447516953     2.941082759094876
    H               -3.376233631497660     0.901785447516954     1.803582759094876
    C                0.913051368502339    -1.613104552483047    -2.607917240905124
    C                1.076051368502339    -2.375104552483046    -3.907917240905124
    O               -0.078948631497661    -0.618104552483047    -2.760917240905124
    H                0.621051368502339    -2.300104552483047    -1.813917240905124
    H                1.860051368502340    -1.179104552483047    -2.341917240905124
    H                1.874051368502340    -3.103104552483047    -3.757917240905124
    H               -0.904948631497661    -0.926104552483046    -2.332917240905124
    H                1.337469368502340    -1.671984552483047    -4.712457240905124
    H                0.163878368502339    -2.954984552483046    -4.112067240905124

}
e, wfn = energy('scf', return_wfn=True)
gdma(wfn)
dmavals = variable('DMA DISTRIBUTED MULTIPOLES')
charges = np.array(dmavals)
print(charges)
np.save('SSI-066PHE-109SER-1-dimer.npy', np.array(charges))--------------------------------------------------------------------------

*** tstart() called on ds3
*** at Mon Apr 27 23:24:29 2020

   => Loading Basis Set <=

    Name: CC-PVDZ
    Role: ORBITAL
    Keyword: BASIS
    atoms 1-7, 16-17  entry C          line   138 file /theoryfs2/ds/metcalf/miniconda2/envs/tf2gpu/share/psi4/basis/cc-pvdz.gbs
    atoms 8-15, 19-24 entry H          line    22 file /theoryfs2/ds/metcalf/miniconda2/envs/tf2gpu/share/psi4/basis/cc-pvdz.gbs
    atoms 18          entry O          line   198 file /theoryfs2/ds/metcalf/miniconda2/envs/tf2gpu/share/psi4/basis/cc-pvdz.gbs

         ---------------------------------------------------------
                                   SCF
               by Justin Turney, Rob Parrish, Andy Simmonett
                          and Daniel G. A. Smith
                              RHF Reference
                        1 Threads,    500 MiB Core
         ---------------------------------------------------------

  ==> Geometry <==

    Molecular point group: c1
    Full point group: C1

    Geometry (in Angstrom), charge = 0, multiplicity = 1:

       Center              X                  Y                   Z               Mass
    ------------   -----------------  -----------------  -----------------  -----------------
         C           -2.583948631498     0.393895447517     2.373082759095    12.000000000000
         C            0.695051368502    -0.073104552483     0.515082759095    12.000000000000
         C            1.422051368502     1.023895447517     0.898082759095    12.000000000000
         C           -0.596948631498    -0.273104552483     0.980082759095    12.000000000000
         C           -1.180948631498     0.630895447517     1.856082759095    12.000000000000
         C            0.869051368502     1.932895447517     1.775082759095    12.000000000000
         C           -0.438948631498     1.743895447517     2.252082759095    12.000000000000
         H            1.153051368502    -0.802104552483    -0.131917240905     1.007825032230
         H            2.428051368502     1.163895447517     0.526082759095     1.007825032230
         H           -1.139948631498    -1.155104552483     0.670082759095     1.007825032230
         H            1.439051368502     2.796895447517     2.091082759095     1.007825032230
         H           -2.632948631498     0.695895447517     3.420082759095     1.007825032230
         H           -2.781948631498    -0.679104552483     2.349082759095     1.007825032230
         H           -0.864948631498     2.459895447517     2.941082759095     1.007825032230
         H           -3.376233631498     0.901785447517     1.803582759095     1.007825032230
         C            0.913051368502    -1.613104552483    -2.607917240905    12.000000000000
         C            1.076051368502    -2.375104552483    -3.907917240905    12.000000000000
         O           -0.078948631498    -0.618104552483    -2.760917240905    15.994914619570
         H            0.621051368502    -2.300104552483    -1.813917240905     1.007825032230
         H            1.860051368502    -1.179104552483    -2.341917240905     1.007825032230
         H            1.874051368502    -3.103104552483    -3.757917240905     1.007825032230
         H           -0.904948631498    -0.926104552483    -2.332917240905     1.007825032230
         H            1.337469368502    -1.671984552483    -4.712457240905     1.007825032230
         H            0.163878368502    -2.954984552483    -4.112067240905     1.007825032230

  Running in c1 symmetry.

  Rotational constants: A =      0.07740  B =      0.01675  C =      0.01458 [cm^-1]
  Rotational constants: A =   2320.35261  B =    502.15651  C =    437.12451 [MHz]
  Nuclear repulsion =  484.510805285832703

  Charge       = 0
  Multiplicity = 1
  Electrons    = 76
  Nalpha       = 38
  Nbeta        = 38

  ==> Algorithm <==

  SCF Algorithm Type is PK.
  DIIS enabled.
  MOM disabled.
  Fractional occupation disabled.
  Guess Type is SAD.
  Energy threshold   = 1.00e-06
  Density threshold  = 1.00e-10
  Integral threshold = 0.00e+00

  ==> Primary Basis <==

  Basis Set: CC-PVDZ
    Blend: CC-PVDZ
    Number of shells: 102
    Number of basis function: 210
    Number of Cartesian functions: 220
    Spherical Harmonics?: true
    Max angular momentum: 2

  ==> Pre-Iterations <==

   -------------------------------------------------------
    Irrep   Nso     Nmo     Nalpha   Nbeta   Ndocc  Nsocc
   -------------------------------------------------------
     A        210     210       0       0       0       0
   -------------------------------------------------------
    Total     210     210      38      38      38       0
   -------------------------------------------------------

  ==> Integral Setup <==

  Using integral reordering PK algorithm.
  Sizing the integral batches needed.
  Building batch lookup table.
   Calculation information:
      Number of atoms:                  24
      Number of AO shells:             102
      Number of primitives:            290
      Number of atomic orbitals:       220
      Number of basis functions:       210

      Integral cutoff                 1.00e-12
      Number of threads:                 1

	Batch   1 pq = [       0,    9405] index = [             0,44231715] size =     44231715
	Batch   2 pq = [    9405,   13301] index = [      44231715,88464951] size =     44233236
	Batch   3 pq = [   13301,   16290] index = [      88464951,132690195] size =     44225244
	Batch   4 pq = [   16290,   18810] index = [     132690195,176917455] size =     44227260
	Batch   5 pq = [   18810,   21030] index = [     176917455,221140965] size =     44223510
	Batch   6 pq = [   21030,   22155] index = [     221140965,245433090] size =     24292125
  Task number: 23
  Buffer size: 11059200
  Buffer per thread: 2
  We computed 10812684 shell quartets total.
  Whereas there are 13799631 unique shell quartets.

  ==> DiskJK: Disk-Based J/K Matrices <==

    J tasked:                  Yes
    K tasked:                  Yes
    wK tasked:                  No
    Memory [MiB]:              375
    Schwarz Cutoff:          1E-12

    OpenMP threads:              1

  Minimum eigenvalue in the overlap matrix is 2.9526509063E-04.
  Using Symmetric Orthogonalization.

  SCF Guess: Superposition of Atomic Densities via on-the-fly atomic UHF.

  ==> Iterations <==

                        Total Energy        Delta E     RMS |[F,P]|

   @RHF iter SAD:  -422.68346947742276   -4.22683e+02   0.00000e+00
   @RHF iter   1:  -423.59142570150703   -9.07956e-01   2.98190e-03 DIIS
   @RHF iter   2:  -423.80388516787531   -2.12459e-01   1.35297e-03 DIIS
   @RHF iter   3:  -423.84123022894801   -3.73451e-02   2.87263e-04 DIIS
   @RHF iter   4:  -423.84410335621897   -2.87313e-03   8.69172e-05 DIIS
   @RHF iter   5:  -423.84428466553948   -1.81309e-04   1.70762e-05 DIIS
   @RHF iter   6:  -423.84429475538508   -1.00898e-05   4.19590e-06 DIIS
   @RHF iter   7:  -423.84429545247406   -6.97089e-07   1.26240e-06 DIIS
   @RHF iter   8:  -423.84429552136697   -6.88929e-08   4.07434e-07 DIIS
   @RHF iter   9:  -423.84429553320160   -1.18346e-08   1.82420e-07 DIIS
   @RHF iter  10:  -423.84429553546272   -2.26112e-09   9.19052e-08 DIIS
   @RHF iter  11:  -423.84429553629462   -8.31903e-10   3.75635e-08 DIIS
   @RHF iter  12:  -423.84429553648226   -1.87640e-10   1.39266e-08 DIIS
   @RHF iter  13:  -423.84429553650079   -1.85310e-11   5.04586e-09 DIIS
   @RHF iter  14:  -423.84429553650358   -2.78533e-12   1.28179e-09 DIIS
   @RHF iter  15:  -423.84429553650170    1.87583e-12   5.15668e-10 DIIS
   @RHF iter  16:  -423.84429553650250   -7.95808e-13   1.74196e-10 DIIS
   @RHF iter  17:  -423.84429553650290   -3.97904e-13   5.93484e-11 DIIS
  Energy and wave function converged.

  ==> Post-Iterations <==

    Orbital Energies [Eh]
    ---------------------

    Doubly Occupied:

       1A    -20.547164     2A    -11.273440     3A    -11.240738
       4A    -11.234315     5A    -11.230979     6A    -11.230523
       7A    -11.229733     8A    -11.228430     9A    -11.225355
      10A    -11.218911    11A     -1.348856    12A     -1.154333
      13A     -1.045893    14A     -1.011295    15A     -1.009245
      16A     -0.932641    17A     -0.837056    18A     -0.825489
      19A     -0.794068    20A     -0.695393    21A     -0.689758
      22A     -0.634380    23A     -0.631408    24A     -0.626564
      25A     -0.581840    26A     -0.577369    27A     -0.570121
      28A     -0.563529    29A     -0.550953    30A     -0.534713
      31A     -0.515829    32A     -0.488965    33A     -0.483968
      34A     -0.479771    35A     -0.475176    36A     -0.430868
      37A     -0.329243    38A     -0.324628

    Virtual:

      39A      0.136620    40A      0.142704    41A      0.161000
      42A      0.192477    43A      0.197264    44A      0.208711
      45A      0.221369    46A      0.245878    47A      0.252919
      48A      0.255205    49A      0.265764    50A      0.270475
      51A      0.281187    52A      0.289336    53A      0.309496
      54A      0.320990    55A      0.362882    56A      0.379348
      57A      0.395923    58A      0.403421    59A      0.458610
      60A      0.469947    61A      0.481513    62A      0.499166
      63A      0.560420    64A      0.597982    65A      0.610476
      66A      0.636310    67A      0.653234    68A      0.657597
      69A      0.684343    70A      0.690088    71A      0.707002
      72A      0.720834    73A      0.731498    74A      0.739933
      75A      0.746591    76A      0.748109    77A      0.756917
      78A      0.760181    79A      0.765234    80A      0.777274
      81A      0.784115    82A      0.823764    83A      0.840051
      84A      0.855951    85A      0.866450    86A      0.875006
      87A      0.879476    88A      0.888229    89A      0.892733
      90A      0.898033    91A      0.900874    92A      0.906082
      93A      0.915305    94A      0.925083    95A      0.934538
      96A      0.943157    97A      0.952447    98A      0.970778
      99A      1.012545   100A      1.029165   101A      1.065023
     102A      1.110938   103A      1.130317   104A      1.138990
     105A      1.155196   106A      1.158568   107A      1.170748
     108A      1.193128   109A      1.207090   110A      1.246263
     111A      1.249209   112A      1.259394   113A      1.264072
     114A      1.282695   115A      1.304219   116A      1.307509
     117A      1.324784   118A      1.331063   119A      1.358179
     120A      1.399694   121A      1.419159   122A      1.482390
     123A      1.507217   124A      1.524139   125A      1.541233
     126A      1.554006   127A      1.601368   128A      1.613102
     129A      1.664503   130A      1.677442   131A      1.679809
     132A      1.701786   133A      1.727261   134A      1.743287
     135A      1.753019   136A      1.768752   137A      1.791155
     138A      1.810605   139A      1.843772   140A      1.859463
     141A      1.876364   142A      1.884762   143A      1.890914
     144A      1.903747   145A      1.909936   146A      1.919739
     147A      1.929961   148A      1.942245   149A      1.945146
     150A      1.953991   151A      1.965094   152A      1.976908
     153A      1.980555   154A      1.996193   155A      2.005967
     156A      2.025279   157A      2.043625   158A      2.060794
     159A      2.066368   160A      2.070160   161A      2.103459
     162A      2.115601   163A      2.147926   164A      2.164850
     165A      2.169371   166A      2.180586   167A      2.186540
     168A      2.207687   169A      2.248680   170A      2.275124
     171A      2.287187   172A      2.299606   173A      2.305983
     174A      2.310743   175A      2.324880   176A      2.352348
     177A      2.406355   178A      2.441472   179A      2.473158
     180A      2.481031   181A      2.504155   182A      2.519104
     183A      2.543311   184A      2.546769   185A      2.549689
     186A      2.627058   187A      2.745401   188A      2.759508
     189A      2.761426   190A      2.763568   191A      2.786157
     192A      2.793714   193A      2.805019   194A      2.847726
     195A      2.854197   196A      2.877365   197A      2.904260
     198A      2.921937   199A      2.990651   200A      3.017925
     201A      3.034506   202A      3.162912   203A      3.208677
     204A      3.312031   205A      3.322166   206A      3.416601
     207A      3.467972   208A      3.641053   209A      3.984826
     210A      4.086088

    Final Occupation by Irrep:
              A
    DOCC [    38 ]

  @RHF Final Energy:  -423.84429553650290

   => Energetics <=

    Nuclear Repulsion Energy =            484.5108052858327028
    One-Electron Energy =               -1535.1043261842351058
    Two-Electron Energy =                 626.7492253618994482
    Total Energy =                       -423.8442955365029547

Computation Completed

Properties will be evaluated at   0.000000,   0.000000,   0.000000 [a0]

Properties computed using the SCF density matrix

  Nuclear Dipole Moment: [e a0]
     X:    -0.7732      Y:    -6.3340      Z:    -5.0775

  Electronic Dipole Moment: [e a0]
     X:     0.5979      Y:     5.7688      Z:     5.4301

  Dipole Moment: [e a0]
     X:    -0.1752      Y:    -0.5652      Z:     0.3526     Total:     0.6889

  Dipole Moment: [D]
     X:    -0.4453      Y:    -1.4367      Z:     0.8963     Total:     1.7510

*** tstop() called on ds3 at Mon Apr 27 23:26:42 2020
Module time:
	user time   =      92.62 seconds =       1.54 minutes
	system time =      45.89 seconds =       0.76 minutes
	total time  =        133 seconds =       2.22 minutes
Total time:
	user time   =      92.62 seconds =       1.54 minutes
	system time =      45.89 seconds =       0.76 minutes
	total time  =        133 seconds =       2.22 minutes
                                     G D M A

                                 by Anthony Stone

                           version 2.2.06, 22 June 2011

               Distributed Multipoles from Gaussian wavefunctions

Starting at 23:26:42 on 27 Apr 2020

Using SCF density matrix from file ./SSI/SSI-066PHE-109SER-1-dimer.test.2678.fchk

                         Distributed Multipole Analysis

Standard DMA

Positions and radii in angstrom
Multipole moments in atomic units, ea_0^k for rank k

C          x = -2.583949  y =  0.393895  z =  2.373083 angstrom
           Maximum rank =  0   Radius =  0.650 angstrom
                   Q00  =  -0.207204

C          x =  0.695051  y = -0.073105  z =  0.515083 angstrom
           Maximum rank =  0   Radius =  0.650 angstrom
                   Q00  =   0.009616

C          x =  1.422051  y =  1.023895  z =  0.898083 angstrom
           Maximum rank =  0   Radius =  0.650 angstrom
                   Q00  =  -0.083055

C          x = -0.596949  y = -0.273105  z =  0.980083 angstrom
           Maximum rank =  0   Radius =  0.650 angstrom
                   Q00  =  -0.049720

C          x = -1.180949  y =  0.630895  z =  1.856083 angstrom
           Maximum rank =  0   Radius =  0.650 angstrom
                   Q00  =  -0.100698

C          x =  0.869051  y =  1.932895  z =  1.775083 angstrom
           Maximum rank =  0   Radius =  0.650 angstrom
                   Q00  =  -0.076782

C          x = -0.438949  y =  1.743895  z =  2.252083 angstrom
           Maximum rank =  0   Radius =  0.650 angstrom
                   Q00  =  -0.077918

H          x =  1.153051  y = -0.802105  z = -0.131917 angstrom
           Maximum rank =  0   Radius =  0.325 angstrom
                   Q00  =   0.060183

H          x =  2.428051  y =  1.163895  z =  0.526083 angstrom
           Maximum rank =  0   Radius =  0.325 angstrom
                   Q00  =   0.057319

H          x = -1.139949  y = -1.155105  z =  0.670083 angstrom
           Maximum rank =  0   Radius =  0.325 angstrom
                   Q00  =   0.042861

H          x =  1.439051  y =  2.796895  z =  2.091083 angstrom
           Maximum rank =  0   Radius =  0.325 angstrom
                   Q00  =   0.064643

H          x = -2.632949  y =  0.695895  z =  3.420083 angstrom
           Maximum rank =  0   Radius =  0.325 angstrom
                   Q00  =   0.100502

H          x = -2.781949  y = -0.679105  z =  2.349083 angstrom
           Maximum rank =  0   Radius =  0.325 angstrom
                   Q00  =   0.094635

H          x = -0.864949  y =  2.459895  z =  2.941083 angstrom
           Maximum rank =  0   Radius =  0.325 angstrom
                   Q00  =   0.057483

H          x = -3.376234  y =  0.901785  z =  1.803583 angstrom
           Maximum rank =  0   Radius =  0.325 angstrom
                   Q00  =   0.106697

C          x =  0.913051  y = -1.613105  z = -2.607917 angstrom
           Maximum rank =  0   Radius =  0.650 angstrom
                   Q00  =   0.059905

C          x =  1.076051  y = -2.375105  z = -3.907917 angstrom
           Maximum rank =  0   Radius =  0.650 angstrom
                   Q00  =  -0.223170

O          x = -0.078949  y = -0.618105  z = -2.760917 angstrom
           Maximum rank =  0   Radius =  0.650 angstrom
                   Q00  =  -0.583803

H          x =  0.621051  y = -2.300105  z = -1.813917 angstrom
           Maximum rank =  0   Radius =  0.325 angstrom
                   Q00  =   0.026548

H          x =  1.860051  y = -1.179105  z = -2.341917 angstrom
           Maximum rank =  0   Radius =  0.325 angstrom
                   Q00  =   0.066685

H          x =  1.874051  y = -3.103105  z = -3.757917 angstrom
           Maximum rank =  0   Radius =  0.325 angstrom
                   Q00  =   0.072040

H          x = -0.904949  y = -0.926105  z = -2.332917 angstrom
           Maximum rank =  0   Radius =  0.325 angstrom
                   Q00  =   0.405720

H          x =  1.337469  y = -1.671985  z = -4.712457 angstrom
           Maximum rank =  0   Radius =  0.325 angstrom
                   Q00  =   0.097775

H          x =  0.163878  y = -2.954985  z = -4.112067 angstrom
           Maximum rank =  0   Radius =  0.325 angstrom
                   Q00  =   0.079738

Total multipoles referred to origin at
           x =   0.000000,  y =    0.000000,  z =    0.000000 angstrom
                   Q00  =  -0.000000

Finished at 23:26:42 on 27 Apr 2020

  DMA results are available in the Python driver through the
	  variable('DMA DISTRIBUTED MULTIPOLES')
  and
	  variable('DMA TOTAL MULTIPOLES')
  commands.

    Psi4 stopped on: Monday, 27 April 2020 11:26PM
    Psi4 wall time for execution: 0:02:12.63

*** Psi4 exiting successfully. Buy a developer a beer!
