                               Psi4 1.3.2 release

  ==> Input File <==

--------------------------------------------------------------------------
import numpy as np
set {scf_type pk
basis cc-pvdz
d_convergence 10
gdma_switch   0
gdma_limit    0
gdma_origin   [ 0.0,  0.0,  0.0 ]
}
molecule test {
    units Angstrom
    0 1
    --
    0 1
    C               -1.557340263570831    -3.179384065870781    -1.970886449488827
    C               -0.909340263570832    -2.090384065870781    -1.136886449488827
    O               -1.106340263570832    -2.048384065870781     0.099113550511173
    O               -0.205340263570832    -1.250384065870781    -1.744886449488827
    H               -0.789340263570832    -3.712384065870781    -2.527886449488827
    H               -2.256340263570832    -2.718384065870781    -2.672886449488827
    H               -2.103640263570831    -3.927984065870781    -1.378336449488827
    C                1.204659736429169     3.655615934129219     1.074113550511173
    C                0.628659736429169     1.241615934129219     0.928113550511173
    N                0.504659736429168     0.082615934129219     1.532113550511173
    N                0.943659736429168     2.322615934129219     1.630113550511173
    N                0.490659736429168     1.274615934129219    -0.379886449488827
    H                0.660659736429168     0.000615934129219     2.522113550511174
    H                0.253659736429168    -0.742384065870781     0.988113550511173
    H                0.965659736429168     2.256615934129219     2.642113550511173
    H                0.635659736429169     2.135615934129219    -0.884886449488827
    H                0.244659736429168     0.425615934129219    -0.885886449488827
    H                0.748659736429168     3.733615934129219     0.086113550511173
    H                2.283659736429168     3.801615934129219     0.984113550511173
    H                0.774489736429168     4.407915934129218     1.751653550511173

}
e, wfn = energy('scf', return_wfn=True)
gdma(wfn)
dmavals = variable('DMA DISTRIBUTED MULTIPOLES')
charges = np.array(dmavals)
print(charges)
np.save('SSI-086ASP-115ARG-1-dimer.npy', np.array(charges))--------------------------------------------------------------------------

*** tstart() called on ds3
*** at Tue Apr 28 11:22:08 2020

   => Loading Basis Set <=

    Name: CC-PVDZ
    Role: ORBITAL
    Keyword: BASIS
    atoms 1-2, 8-9   entry C          line   138 file /theoryfs2/ds/metcalf/miniconda2/envs/tf2gpu/share/psi4/basis/cc-pvdz.gbs
    atoms 3-4        entry O          line   198 file /theoryfs2/ds/metcalf/miniconda2/envs/tf2gpu/share/psi4/basis/cc-pvdz.gbs
    atoms 5-7, 13-20 entry H          line    22 file /theoryfs2/ds/metcalf/miniconda2/envs/tf2gpu/share/psi4/basis/cc-pvdz.gbs
    atoms 10-12      entry N          line   168 file /theoryfs2/ds/metcalf/miniconda2/envs/tf2gpu/share/psi4/basis/cc-pvdz.gbs

         ---------------------------------------------------------
                                   SCF
               by Justin Turney, Rob Parrish, Andy Simmonett
                          and Daniel G. A. Smith
                              RHF Reference
                        1 Threads,    500 MiB Core
         ---------------------------------------------------------

  ==> Geometry <==

    Molecular point group: c1
    Full point group: C1

    Geometry (in Angstrom), charge = 0, multiplicity = 1:

       Center              X                  Y                   Z               Mass
    ------------   -----------------  -----------------  -----------------  -----------------
         C           -1.557340263571    -3.179384065871    -1.970886449489    12.000000000000
         C           -0.909340263571    -2.090384065871    -1.136886449489    12.000000000000
         O           -1.106340263571    -2.048384065871     0.099113550511    15.994914619570
         O           -0.205340263571    -1.250384065871    -1.744886449489    15.994914619570
         H           -0.789340263571    -3.712384065871    -2.527886449489     1.007825032230
         H           -2.256340263571    -2.718384065871    -2.672886449489     1.007825032230
         H           -2.103640263571    -3.927984065871    -1.378336449489     1.007825032230
         C            1.204659736429     3.655615934129     1.074113550511    12.000000000000
         C            0.628659736429     1.241615934129     0.928113550511    12.000000000000
         N            0.504659736429     0.082615934129     1.532113550511    14.003074004430
         N            0.943659736429     2.322615934129     1.630113550511    14.003074004430
         N            0.490659736429     1.274615934129    -0.379886449489    14.003074004430
         H            0.660659736429     0.000615934129     2.522113550511     1.007825032230
         H            0.253659736429    -0.742384065871     0.988113550511     1.007825032230
         H            0.965659736429     2.256615934129     2.642113550511     1.007825032230
         H            0.635659736429     2.135615934129    -0.884886449489     1.007825032230
         H            0.244659736429     0.425615934129    -0.885886449489     1.007825032230
         H            0.748659736429     3.733615934129     0.086113550511     1.007825032230
         H            2.283659736429     3.801615934129     0.984113550511     1.007825032230
         H            0.774489736429     4.407915934129     1.751653550511     1.007825032230

  Running in c1 symmetry.

  Rotational constants: A =      0.15545  B =      0.01867  C =      0.01702 [cm^-1]
  Rotational constants: A =   4660.24796  B =    559.57044  C =    510.32215 [MHz]
  Nuclear repulsion =  453.986881190461020

  Charge       = 0
  Multiplicity = 1
  Electrons    = 72
  Nalpha       = 36
  Nbeta        = 36

  ==> Algorithm <==

  SCF Algorithm Type is PK.
  DIIS enabled.
  MOM disabled.
  Fractional occupation disabled.
  Guess Type is SAD.
  Energy threshold   = 1.00e-06
  Density threshold  = 1.00e-10
  Integral threshold = 0.00e+00

  ==> Primary Basis <==

  Basis Set: CC-PVDZ
    Blend: CC-PVDZ
    Number of shells: 87
    Number of basis function: 181
    Number of Cartesian functions: 190
    Spherical Harmonics?: true
    Max angular momentum: 2

  ==> Pre-Iterations <==

   -------------------------------------------------------
    Irrep   Nso     Nmo     Nalpha   Nbeta   Ndocc  Nsocc
   -------------------------------------------------------
     A        181     181       0       0       0       0
   -------------------------------------------------------
    Total     181     181      36      36      36       0
   -------------------------------------------------------

  ==> Integral Setup <==

  Using integral reordering PK algorithm.
  Sizing the integral batches needed.
  Building batch lookup table.
   Calculation information:
      Number of atoms:                  20
      Number of AO shells:              87
      Number of primitives:            253
      Number of atomic orbitals:       190
      Number of basis functions:       181

      Integral cutoff                 1.00e-12
      Number of threads:                 1

	Batch   1 pq = [       0,    9405] index = [             0,44231715] size =     44231715
	Batch   2 pq = [    9405,   13301] index = [      44231715,88464951] size =     44233236
	Batch   3 pq = [   13301,   16471] index = [      88464951,135655156] size =     47190205
  Task number: 13
  Buffer size: 11059200
  Buffer per thread: 2
  We computed 5360541 shell quartets total.
  Whereas there are 7328706 unique shell quartets.

  ==> DiskJK: Disk-Based J/K Matrices <==

    J tasked:                  Yes
    K tasked:                  Yes
    wK tasked:                  No
    Memory [MiB]:              375
    Schwarz Cutoff:          1E-12

    OpenMP threads:              1

  Minimum eigenvalue in the overlap matrix is 3.8448257753E-03.
  Using Symmetric Orthogonalization.

  SCF Guess: Superposition of Atomic Densities via on-the-fly atomic UHF.

  ==> Iterations <==

                        Total Energy        Delta E     RMS |[F,P]|

   @RHF iter SAD:  -469.70948977197708   -4.69709e+02   0.00000e+00
   @RHF iter   1:  -470.71761236771738   -1.00812e+00   4.21905e-03 DIIS
   @RHF iter   2:  -470.94068730809619   -2.23075e-01   2.19133e-03 DIIS
   @RHF iter   3:  -470.99782618504616   -5.71389e-02   3.87506e-04 DIIS
   @RHF iter   4:  -471.00097779303985   -3.15161e-03   1.31404e-04 DIIS
   @RHF iter   5:  -471.00133466356539   -3.56871e-04   2.33756e-05 DIIS
   @RHF iter   6:  -471.00135122172514   -1.65582e-05   8.45482e-06 DIIS
   @RHF iter   7:  -471.00135270841486   -1.48669e-06   2.60714e-06 DIIS
   @RHF iter   8:  -471.00135291325319   -2.04838e-07   1.09253e-06 DIIS
   @RHF iter   9:  -471.00135294056082   -2.73076e-08   3.12234e-07 DIIS
   @RHF iter  10:  -471.00135294442629   -3.86547e-09   1.04789e-07 DIIS
   @RHF iter  11:  -471.00135294497159   -5.45299e-10   3.60608e-08 DIIS
   @RHF iter  12:  -471.00135294503104   -5.94582e-11   1.65106e-08 DIIS
   @RHF iter  13:  -471.00135294504213   -1.10845e-11   4.86729e-09 DIIS
   @RHF iter  14:  -471.00135294504622   -4.09273e-12   1.31752e-09 DIIS
   @RHF iter  15:  -471.00135294504491    1.30740e-12   4.74900e-10 DIIS
   @RHF iter  16:  -471.00135294504378    1.13687e-12   1.47935e-10 DIIS
   @RHF iter  17:  -471.00135294504867   -4.88853e-12   5.87049e-11 DIIS
  Energy and wave function converged.

  ==> Post-Iterations <==

    Orbital Energies [Eh]
    ---------------------

    Doubly Occupied:

       1A    -20.418871     2A    -20.418034     3A    -15.650809
       4A    -15.614358     5A    -15.613589     6A    -11.431648
       7A    -11.332488     8A    -11.265649     9A    -11.166902
      10A     -1.391440    11A     -1.306379    12A     -1.257167
      13A     -1.222758    14A     -1.192020    15A     -1.016224
      16A     -0.918604    17A     -0.885196    18A     -0.826784
      19A     -0.776348    20A     -0.703580    21A     -0.692760
      22A     -0.686481    23A     -0.658500    24A     -0.637513
      25A     -0.615265    26A     -0.610690    27A     -0.551769
      28A     -0.542116    29A     -0.537686    30A     -0.473557
      31A     -0.451037    32A     -0.446871    33A     -0.442870
      34A     -0.338399    35A     -0.328399    36A     -0.321960

    Virtual:

      37A      0.122784    38A      0.147431    39A      0.172819
      40A      0.186900    41A      0.213990    42A      0.225606
      43A      0.251228    44A      0.263611    45A      0.277478
      46A      0.290527    47A      0.314465    48A      0.338755
      49A      0.351748    50A      0.375589    51A      0.427826
      52A      0.458212    53A      0.475088    54A      0.496114
      55A      0.547714    56A      0.573064    57A      0.591843
      58A      0.610593    59A      0.642927    60A      0.679420
      61A      0.697995    62A      0.706759    63A      0.711901
      64A      0.712516    65A      0.714512    66A      0.761047
      67A      0.784254    68A      0.796799    69A      0.812521
      70A      0.816418    71A      0.842523    72A      0.848450
      73A      0.871618    74A      0.900370    75A      0.915415
      76A      0.921666    77A      0.926329    78A      0.955418
      79A      0.965007    80A      0.973821    81A      0.979419
      82A      1.001310    83A      1.035854    84A      1.042918
      85A      1.090249    86A      1.102550    87A      1.121595
      88A      1.133537    89A      1.201364    90A      1.215920
      91A      1.232027    92A      1.281421    93A      1.284605
      94A      1.300514    95A      1.311046    96A      1.335775
      97A      1.359591    98A      1.367096    99A      1.409116
     100A      1.434534   101A      1.447613   102A      1.502364
     103A      1.509419   104A      1.514711   105A      1.556110
     106A      1.584093   107A      1.595883   108A      1.615199
     109A      1.639993   110A      1.662710   111A      1.683440
     112A      1.719069   113A      1.729673   114A      1.738301
     115A      1.769305   116A      1.815876   117A      1.846146
     118A      1.867191   119A      1.887570   120A      1.888790
     121A      1.897960   122A      1.921146   123A      1.931368
     124A      1.942899   125A      1.966971   126A      1.979992
     127A      1.992961   128A      2.006713   129A      2.050389
     130A      2.072819   131A      2.099780   132A      2.128117
     133A      2.137850   134A      2.161090   135A      2.177036
     136A      2.208438   137A      2.252507   138A      2.274542
     139A      2.301553   140A      2.308830   141A      2.348121
     142A      2.384154   143A      2.433641   144A      2.447134
     145A      2.465106   146A      2.478126   147A      2.512931
     148A      2.533652   149A      2.575571   150A      2.583731
     151A      2.586748   152A      2.634267   153A      2.639178
     154A      2.693117   155A      2.710801   156A      2.721592
     157A      2.763361   158A      2.803576   159A      2.849013
     160A      2.855464   161A      2.882882   162A      2.900671
     163A      2.926868   164A      2.986601   165A      2.999083
     166A      3.038219   167A      3.085819   168A      3.128132
     169A      3.148633   170A      3.199361   171A      3.214132
     172A      3.287586   173A      3.313184   174A      3.479514
     175A      3.640410   176A      3.671324   177A      3.728464
     178A      3.832915   179A      3.918505   180A      3.940109
     181A      4.074735

    Final Occupation by Irrep:
              A
    DOCC [    36 ]

  @RHF Final Energy:  -471.00135294504867

   => Energetics <=

    Nuclear Repulsion Energy =            453.9868811904610197
    One-Electron Energy =               -1544.4870328273743780
    Two-Electron Energy =                 619.4987986918647493
    Total Energy =                       -471.0013529450486658

Computation Completed

Properties will be evaluated at   0.000000,   0.000000,   0.000000 [a0]

Properties computed using the SCF density matrix

  Nuclear Dipole Moment: [e a0]
     X:     1.3172      Y:     5.2800      Z:     0.5693

  Electronic Dipole Moment: [e a0]
     X:     0.4446      Y:    -1.0964      Z:     1.8115

  Dipole Moment: [e a0]
     X:     1.7618      Y:     4.1835      Z:     2.3808     Total:     5.1258

  Dipole Moment: [D]
     X:     4.4780      Y:    10.6335      Z:     6.0515     Total:    13.0286

*** tstop() called on ds3 at Tue Apr 28 11:23:09 2020
Module time:
	user time   =      41.93 seconds =       0.70 minutes
	system time =      22.10 seconds =       0.37 minutes
	total time  =         61 seconds =       1.02 minutes
Total time:
	user time   =      41.93 seconds =       0.70 minutes
	system time =      22.10 seconds =       0.37 minutes
	total time  =         61 seconds =       1.02 minutes
                                     G D M A

                                 by Anthony Stone

                           version 2.2.06, 22 June 2011

               Distributed Multipoles from Gaussian wavefunctions

Starting at 11:23:9 on 28 Apr 2020

Using SCF density matrix from file ./SSI/SSI-086ASP-115ARG-1-dimer.test.22105.fchk

                         Distributed Multipole Analysis

Standard DMA

Positions and radii in angstrom
Multipole moments in atomic units, ea_0^k for rank k

C          x = -1.557340  y = -3.179384  z = -1.970886 angstrom
           Maximum rank =  0   Radius =  0.650 angstrom
                   Q00  =  -0.252596

C          x = -0.909340  y = -2.090384  z = -1.136886 angstrom
           Maximum rank =  0   Radius =  0.650 angstrom
                   Q00  =   0.877713

O          x = -1.106340  y = -2.048384  z =  0.099114 angstrom
           Maximum rank =  0   Radius =  0.650 angstrom
                   Q00  =  -0.901232

O          x = -0.205340  y = -1.250384  z = -1.744886 angstrom
           Maximum rank =  0   Radius =  0.650 angstrom
                   Q00  =  -0.939438

H          x = -0.789340  y = -3.712384  z = -2.527886 angstrom
           Maximum rank =  0   Radius =  0.325 angstrom
                   Q00  =   0.092819

H          x = -2.256340  y = -2.718384  z = -2.672886 angstrom
           Maximum rank =  0   Radius =  0.325 angstrom
                   Q00  =   0.097121

H          x = -2.103640  y = -3.927984  z = -1.378336 angstrom
           Maximum rank =  0   Radius =  0.325 angstrom
                   Q00  =   0.075498

C          x =  1.204660  y =  3.655616  z =  1.074114 angstrom
           Maximum rank =  0   Radius =  0.650 angstrom
                   Q00  =  -0.104574

C          x =  0.628660  y =  1.241616  z =  0.928114 angstrom
           Maximum rank =  0   Radius =  0.650 angstrom
                   Q00  =   1.071307

N          x =  0.504660  y =  0.082616  z =  1.532114 angstrom
           Maximum rank =  0   Radius =  0.650 angstrom
                   Q00  =  -0.574470

N          x =  0.943660  y =  2.322616  z =  1.630114 angstrom
           Maximum rank =  0   Radius =  0.650 angstrom
                   Q00  =  -0.509915

N          x =  0.490660  y =  1.274616  z = -0.379886 angstrom
           Maximum rank =  0   Radius =  0.650 angstrom
                   Q00  =  -0.586476

H          x =  0.660660  y =  0.000616  z =  2.522114 angstrom
           Maximum rank =  0   Radius =  0.325 angstrom
                   Q00  =   0.225420

H          x =  0.253660  y = -0.742384  z =  0.988114 angstrom
           Maximum rank =  0   Radius =  0.325 angstrom
                   Q00  =   0.303952

H          x =  0.965660  y =  2.256616  z =  2.642114 angstrom
           Maximum rank =  0   Radius =  0.325 angstrom
                   Q00  =   0.210232

H          x =  0.635660  y =  2.135616  z = -0.884886 angstrom
           Maximum rank =  0   Radius =  0.325 angstrom
                   Q00  =   0.225709

H          x =  0.244660  y =  0.425616  z = -0.885886 angstrom
           Maximum rank =  0   Radius =  0.325 angstrom
                   Q00  =   0.341444

H          x =  0.748660  y =  3.733616  z =  0.086114 angstrom
           Maximum rank =  0   Radius =  0.325 angstrom
                   Q00  =   0.106813

H          x =  2.283660  y =  3.801616  z =  0.984114 angstrom
           Maximum rank =  0   Radius =  0.325 angstrom
                   Q00  =   0.113048

H          x =  0.774490  y =  4.407916  z =  1.751654 angstrom
           Maximum rank =  0   Radius =  0.325 angstrom
                   Q00  =   0.127626

Total multipoles referred to origin at
           x =   0.000000,  y =    0.000000,  z =    0.000000 angstrom
                   Q00  =  -0.000000

Finished at 11:23:9 on 28 Apr 2020

  DMA results are available in the Python driver through the
	  variable('DMA DISTRIBUTED MULTIPOLES')
  and
	  variable('DMA TOTAL MULTIPOLES')
  commands.

    Psi4 stopped on: Tuesday, 28 April 2020 11:23AM
    Psi4 wall time for execution: 0:01:01.84

*** Psi4 exiting successfully. Buy a developer a beer!
