                               Psi4 1.3.2 release

  ==> Input File <==

--------------------------------------------------------------------------
import numpy as np
set {scf_type pk
basis cc-pvdz
d_convergence 10
gdma_switch   0
gdma_limit    0
gdma_origin   [ 0.0,  0.0,  0.0 ]
}
molecule test {
    units Angstrom
    1 1
    --
    1 1
    C               -2.027440187637564    -1.276574302699488     0.402678578919212
    C                0.175559812362436    -0.349574302699488     1.012678578919212
    N               -1.133440187637564    -0.205574302699488     0.858678578919212
    N                0.750559812362436    -1.504574302699488     0.734678578919212
    N                0.911559812362436     0.654425697300512     1.444678578919212
    H               -1.530440187637564     0.674425697300512     1.130678578919212
    H                0.198559812362436    -2.286574302699488     0.438678578919212
    H                1.772559812362436    -1.564574302699488     0.636678578919212
    H                0.508559812362436     1.561425697300512     1.670678578919212
    H                1.894559812362436     0.508425697300512     1.587678578919212
    H               -1.975440187637564    -2.092574302699488     1.128678578919212
    H               -1.697440187637564    -1.670574302699488    -0.559321421080788
    H               -3.079097187637564    -0.957824302699488     0.353528578919212
    C                1.304559812362436     1.431425697300512    -1.867321421080788
    C               -0.057440187637564     1.245425697300512    -2.524321421080788
    H                1.260559812362436     2.150425697300512    -1.066321421080788
    H                1.626559812362436     0.484425697300512    -1.438321421080788
    H                2.036559812362436     1.758425697300512    -2.606321421080788
    H               -0.794440187637564     1.013425697300512    -1.758321421080788
    H               -0.349633187637564     2.166624697300512    -3.049692421080788
    H               -0.016302187637564     0.412562697300512    -3.241709421080788

}
e, wfn = energy('scf', return_wfn=True)
gdma(wfn)
dmavals = variable('DMA DISTRIBUTED MULTIPOLES')
charges = np.array(dmavals)
print(charges)
np.save('SSI-005ARG-158LEU-2-dimer.npy', np.array(charges))--------------------------------------------------------------------------

*** tstart() called on ds3
*** at Mon Apr 27 12:31:16 2020

   => Loading Basis Set <=

    Name: CC-PVDZ
    Role: ORBITAL
    Keyword: BASIS
    atoms 1-2, 14-15  entry C          line   138 file /theoryfs2/ds/metcalf/miniconda2/envs/tf2gpu/share/psi4/basis/cc-pvdz.gbs
    atoms 3-5         entry N          line   168 file /theoryfs2/ds/metcalf/miniconda2/envs/tf2gpu/share/psi4/basis/cc-pvdz.gbs
    atoms 6-13, 16-21 entry H          line    22 file /theoryfs2/ds/metcalf/miniconda2/envs/tf2gpu/share/psi4/basis/cc-pvdz.gbs

         ---------------------------------------------------------
                                   SCF
               by Justin Turney, Rob Parrish, Andy Simmonett
                          and Daniel G. A. Smith
                              RHF Reference
                        1 Threads,    500 MiB Core
         ---------------------------------------------------------

  ==> Geometry <==

    Molecular point group: c1
    Full point group: C1

    Geometry (in Angstrom), charge = 1, multiplicity = 1:

       Center              X                  Y                   Z               Mass
    ------------   -----------------  -----------------  -----------------  -----------------
         C           -2.027440187638    -1.276574302699     0.402678578919    12.000000000000
         C            0.175559812362    -0.349574302699     1.012678578919    12.000000000000
         N           -1.133440187638    -0.205574302699     0.858678578919    14.003074004430
         N            0.750559812362    -1.504574302699     0.734678578919    14.003074004430
         N            0.911559812362     0.654425697301     1.444678578919    14.003074004430
         H           -1.530440187638     0.674425697301     1.130678578919     1.007825032230
         H            0.198559812362    -2.286574302699     0.438678578919     1.007825032230
         H            1.772559812362    -1.564574302699     0.636678578919     1.007825032230
         H            0.508559812362     1.561425697301     1.670678578919     1.007825032230
         H            1.894559812362     0.508425697301     1.587678578919     1.007825032230
         H           -1.975440187638    -2.092574302699     1.128678578919     1.007825032230
         H           -1.697440187638    -1.670574302699    -0.559321421081     1.007825032230
         H           -3.079097187638    -0.957824302699     0.353528578919     1.007825032230
         C            1.304559812362     1.431425697301    -1.867321421081    12.000000000000
         C           -0.057440187638     1.245425697301    -2.524321421081    12.000000000000
         H            1.260559812362     2.150425697301    -1.066321421081     1.007825032230
         H            1.626559812362     0.484425697301    -1.438321421081     1.007825032230
         H            2.036559812362     1.758425697301    -2.606321421081     1.007825032230
         H           -0.794440187638     1.013425697301    -1.758321421081     1.007825032230
         H           -0.349633187638     2.166624697301    -3.049692421081     1.007825032230
         H           -0.016302187638     0.412562697301    -3.241709421081     1.007825032230

  Running in c1 symmetry.

  Rotational constants: A =      0.08846  B =      0.04663  C =      0.03763 [cm^-1]
  Rotational constants: A =   2651.89919  B =   1398.07370  C =   1128.02719 [MHz]
  Nuclear repulsion =  332.704885205165795

  Charge       = 1
  Multiplicity = 1
  Electrons    = 58
  Nalpha       = 29
  Nbeta        = 29

  ==> Algorithm <==

  SCF Algorithm Type is PK.
  DIIS enabled.
  MOM disabled.
  Fractional occupation disabled.
  Guess Type is SAD.
  Energy threshold   = 1.00e-06
  Density threshold  = 1.00e-10
  Integral threshold = 0.00e+00

  ==> Primary Basis <==

  Basis Set: CC-PVDZ
    Blend: CC-PVDZ
    Number of shells: 84
    Number of basis function: 168
    Number of Cartesian functions: 175
    Spherical Harmonics?: true
    Max angular momentum: 2

  ==> Pre-Iterations <==

   -------------------------------------------------------
    Irrep   Nso     Nmo     Nalpha   Nbeta   Ndocc  Nsocc
   -------------------------------------------------------
     A        168     168       0       0       0       0
   -------------------------------------------------------
    Total     168     168      29      29      29       0
   -------------------------------------------------------

  ==> Integral Setup <==

  Using integral reordering PK algorithm.
  Sizing the integral batches needed.
  Building batch lookup table.
   Calculation information:
      Number of atoms:                  21
      Number of AO shells:              84
      Number of primitives:            224
      Number of atomic orbitals:       175
      Number of basis functions:       168

      Integral cutoff                 1.00e-12
      Number of threads:                 1

	Batch   1 pq = [       0,    9405] index = [             0,44231715] size =     44231715
	Batch   2 pq = [    9405,   13301] index = [      44231715,88464951] size =     44233236
	Batch   3 pq = [   13301,   14196] index = [      88464951,100770306] size =     12305355
  Task number: 10
  Buffer size: 11059200
  Buffer per thread: 2
  We computed 6442414 shell quartets total.
  Whereas there are 6374235 unique shell quartets.
     1.07 percent of shell quartets recomputed by reordering.

  ==> DiskJK: Disk-Based J/K Matrices <==

    J tasked:                  Yes
    K tasked:                  Yes
    wK tasked:                  No
    Memory [MiB]:              375
    Schwarz Cutoff:          1E-12

    OpenMP threads:              1

  Minimum eigenvalue in the overlap matrix is 3.3704099338E-03.
  Using Symmetric Orthogonalization.

  SCF Guess: Superposition of Atomic Densities via on-the-fly atomic UHF.

  ==> Iterations <==

                        Total Energy        Delta E     RMS |[F,P]|

   @RHF iter SAD:  -322.13839981294109   -3.22138e+02   0.00000e+00
   @RHF iter   1:  -322.61402507339909   -4.75625e-01   3.42055e-03 DIIS
   @RHF iter   2:  -322.78650206985196   -1.72477e-01   1.34277e-03 DIIS
   @RHF iter   3:  -322.81180284375648   -2.53008e-02   3.18189e-04 DIIS
   @RHF iter   4:  -322.81421442813973   -2.41158e-03   4.83206e-05 DIIS
   @RHF iter   5:  -322.81427442077029   -5.99926e-05   2.00909e-05 DIIS
   @RHF iter   6:  -322.81428243851860   -8.01775e-06   4.14269e-06 DIIS
   @RHF iter   7:  -322.81428304632931   -6.07811e-07   1.35676e-06 DIIS
   @RHF iter   8:  -322.81428309054519   -4.42159e-08   3.94325e-07 DIIS
   @RHF iter   9:  -322.81428309441986   -3.87467e-09   9.72077e-08 DIIS
   @RHF iter  10:  -322.81428309466969   -2.49827e-10   2.74025e-08 DIIS
   @RHF iter  11:  -322.81428309469169   -2.19984e-11   7.61497e-09 DIIS
   @RHF iter  12:  -322.81428309469152    1.70530e-13   2.31834e-09 DIIS
   @RHF iter  13:  -322.81428309469226   -7.38964e-13   7.54666e-10 DIIS
   @RHF iter  14:  -322.81428309469277   -5.11591e-13   2.07817e-10 DIIS
   @RHF iter  15:  -322.81428309469186    9.09495e-13   7.96410e-11 DIIS
  Energy and wave function converged.

  ==> Post-Iterations <==

    Orbital Energies [Eh]
    ---------------------

    Doubly Occupied:

       1A    -15.791564     2A    -15.788567     3A    -15.787653
       4A    -11.591024     5A    -11.443950     6A    -11.333042
       7A    -11.331541     8A     -1.547427     9A     -1.404275
      10A     -1.391966    11A     -1.142622    12A     -1.136626
      13A     -1.040977    14A     -0.979277    15A     -0.953441
      16A     -0.941471    17A     -0.860255    18A     -0.859155
      19A     -0.825282    20A     -0.797419    21A     -0.743858
      22A     -0.726069    23A     -0.715763    24A     -0.713660
      25A     -0.621973    26A     -0.615228    27A     -0.606236
      28A     -0.599656    29A     -0.582634

    Virtual:

      30A     -0.015459    31A      0.018099    32A      0.023871
      33A      0.030087    34A      0.056910    35A      0.076937
      36A      0.084361    37A      0.114149    38A      0.119844
      39A      0.127167    40A      0.147960    41A      0.152310
      42A      0.163018    43A      0.177906    44A      0.184586
      45A      0.197732    46A      0.280765    47A      0.285578
      48A      0.322761    49A      0.342403    50A      0.426097
      51A      0.457601    52A      0.476013    53A      0.480550
      54A      0.493202    55A      0.507351    56A      0.521915
      57A      0.525543    58A      0.555644    59A      0.561715
      60A      0.567745    61A      0.599446    62A      0.682781
      63A      0.691161    64A      0.701819    65A      0.706362
      66A      0.710294    67A      0.735170    68A      0.740465
      69A      0.745213    70A      0.762209    71A      0.783718
      72A      0.797240    73A      0.797438    74A      0.807399
      75A      0.826566    76A      0.843203    77A      0.854615
      78A      0.904597    79A      0.909005    80A      0.926409
      81A      0.940421    82A      0.950093    83A      0.985283
      84A      1.014544    85A      1.021153    86A      1.067094
      87A      1.095605    88A      1.108896    89A      1.146700
      90A      1.165628    91A      1.177894    92A      1.215610
      93A      1.246849    94A      1.299020    95A      1.362136
      96A      1.377302    97A      1.397617    98A      1.456345
      99A      1.470047   100A      1.504340   101A      1.522365
     102A      1.526083   103A      1.556548   104A      1.583922
     105A      1.607111   106A      1.632174   107A      1.665100
     108A      1.681685   109A      1.716954   110A      1.735198
     111A      1.741432   112A      1.766073   113A      1.772722
     114A      1.781247   115A      1.789780   116A      1.806184
     117A      1.812780   118A      1.833748   119A      1.839671
     120A      1.845288   121A      1.852987   122A      1.858535
     123A      1.871513   124A      1.884619   125A      1.901295
     126A      1.995336   127A      2.003437   128A      2.008116
     129A      2.035559   130A      2.087044   131A      2.096181
     132A      2.130876   133A      2.189233   134A      2.196945
     135A      2.206915   136A      2.237054   137A      2.241234
     138A      2.286627   139A      2.321802   140A      2.331389
     141A      2.344024   142A      2.358038   143A      2.375799
     144A      2.429089   145A      2.450076   146A      2.464955
     147A      2.473609   148A      2.555401   149A      2.588004
     150A      2.597357   151A      2.648387   152A      2.663597
     153A      2.686826   154A      2.689827   155A      2.739332
     156A      2.751736   157A      2.761156   158A      2.798435
     159A      2.823623   160A      2.849301   161A      2.856565
     162A      2.872349   163A      2.893521   164A      3.071441
     165A      3.093572   166A      3.120880   167A      3.562663
     168A      3.643401

    Final Occupation by Irrep:
              A
    DOCC [    29 ]

  @RHF Final Energy:  -322.81428309469186

   => Energetics <=

    Nuclear Repulsion Energy =            332.7048852051657946
    One-Electron Energy =               -1085.2931143770315430
    Two-Electron Energy =                 429.7739460771739459
    Total Energy =                       -322.8142830946918593

Computation Completed

Properties will be evaluated at   0.000000,   0.000000,   0.000000 [a0]

Properties computed using the SCF density matrix

  Nuclear Dipole Moment: [e a0]
     X:    -0.1374      Y:     2.0262      Z:    -6.3587

  Electronic Dipole Moment: [e a0]
     X:     0.1941      Y:    -2.7110      Z:     7.9375

  Dipole Moment: [e a0]
     X:     0.0567      Y:    -0.6848      Z:     1.5788     Total:     1.7218

  Dipole Moment: [D]
     X:     0.1441      Y:    -1.7407      Z:     4.0129     Total:     4.3765

*** tstop() called on ds3 at Mon Apr 27 12:32:11 2020
Module time:
	user time   =      39.35 seconds =       0.66 minutes
	system time =      13.06 seconds =       0.22 minutes
	total time  =         55 seconds =       0.92 minutes
Total time:
	user time   =      39.35 seconds =       0.66 minutes
	system time =      13.06 seconds =       0.22 minutes
	total time  =         55 seconds =       0.92 minutes
                                     G D M A

                                 by Anthony Stone

                           version 2.2.06, 22 June 2011

               Distributed Multipoles from Gaussian wavefunctions

Starting at 12:32:11 on 27 Apr 2020

Using SCF density matrix from file ./SSI/SSI-005ARG-158LEU-2-dimer.test.3432.fchk

                         Distributed Multipole Analysis

Standard DMA

Positions and radii in angstrom
Multipole moments in atomic units, ea_0^k for rank k

C          x = -2.027440  y = -1.276574  z =  0.402679 angstrom
           Maximum rank =  0   Radius =  0.650 angstrom
                   Q00  =  -0.126461

C          x =  0.175560  y = -0.349574  z =  1.012679 angstrom
           Maximum rank =  0   Radius =  0.650 angstrom
                   Q00  =   1.081709

N          x = -1.133440  y = -0.205574  z =  0.858679 angstrom
           Maximum rank =  0   Radius =  0.650 angstrom
                   Q00  =  -0.489780

N          x =  0.750560  y = -1.504574  z =  0.734679 angstrom
           Maximum rank =  0   Radius =  0.650 angstrom
                   Q00  =  -0.589189

N          x =  0.911560  y =  0.654426  z =  1.444679 angstrom
           Maximum rank =  0   Radius =  0.650 angstrom
                   Q00  =  -0.587007

H          x = -1.530440  y =  0.674426  z =  1.130679 angstrom
           Maximum rank =  0   Radius =  0.325 angstrom
                   Q00  =   0.234610

H          x =  0.198560  y = -2.286574  z =  0.438679 angstrom
           Maximum rank =  0   Radius =  0.325 angstrom
                   Q00  =   0.269526

H          x =  1.772560  y = -1.564574  z =  0.636679 angstrom
           Maximum rank =  0   Radius =  0.325 angstrom
                   Q00  =   0.274948

H          x =  0.508560  y =  1.561426  z =  1.670679 angstrom
           Maximum rank =  0   Radius =  0.325 angstrom
                   Q00  =   0.275550

H          x =  1.894560  y =  0.508426  z =  1.587679 angstrom
           Maximum rank =  0   Radius =  0.325 angstrom
                   Q00  =   0.262267

H          x = -1.975440  y = -2.092574  z =  1.128679 angstrom
           Maximum rank =  0   Radius =  0.325 angstrom
                   Q00  =   0.110868

H          x = -1.697440  y = -1.670574  z = -0.559321 angstrom
           Maximum rank =  0   Radius =  0.325 angstrom
                   Q00  =   0.116397

H          x = -3.079097  y = -0.957824  z =  0.353529 angstrom
           Maximum rank =  0   Radius =  0.325 angstrom
                   Q00  =   0.171324

C          x =  1.304560  y =  1.431426  z = -1.867321 angstrom
           Maximum rank =  0   Radius =  0.650 angstrom
                   Q00  =  -0.228444

C          x = -0.057440  y =  1.245426  z = -2.524321 angstrom
           Maximum rank =  0   Radius =  0.650 angstrom
                   Q00  =  -0.233760

H          x =  1.260560  y =  2.150426  z = -1.066321 angstrom
           Maximum rank =  0   Radius =  0.325 angstrom
                   Q00  =   0.066911

H          x =  1.626560  y =  0.484426  z = -1.438321 angstrom
           Maximum rank =  0   Radius =  0.325 angstrom
                   Q00  =   0.034771

H          x =  2.036560  y =  1.758426  z = -2.606321 angstrom
           Maximum rank =  0   Radius =  0.325 angstrom
                   Q00  =   0.113157

H          x = -0.794440  y =  1.013426  z = -1.758321 angstrom
           Maximum rank =  0   Radius =  0.325 angstrom
                   Q00  =   0.044212

H          x = -0.349633  y =  2.166625  z = -3.049692 angstrom
           Maximum rank =  0   Radius =  0.325 angstrom
                   Q00  =   0.106175

H          x = -0.016302  y =  0.412563  z = -3.241709 angstrom
           Maximum rank =  0   Radius =  0.325 angstrom
                   Q00  =   0.092216

Total multipoles referred to origin at
           x =   0.000000,  y =    0.000000,  z =    0.000000 angstrom
                   Q00  =   1.000000

Finished at 12:32:11 on 27 Apr 2020

  DMA results are available in the Python driver through the
	  variable('DMA DISTRIBUTED MULTIPOLES')
  and
	  variable('DMA TOTAL MULTIPOLES')
  commands.

    Psi4 stopped on: Monday, 27 April 2020 12:32PM
    Psi4 wall time for execution: 0:00:54.91

*** Psi4 exiting successfully. Buy a developer a beer!
