                               Psi4 1.3.2 release

  ==> Input File <==

--------------------------------------------------------------------------
import numpy as np
set {scf_type pk
basis cc-pvdz
d_convergence 10
gdma_switch   0
gdma_limit    0
gdma_origin   [ 0.0,  0.0,  0.0 ]
}
molecule test {
    units Angstrom
    1 1
    --
    1 1
    C               -2.023456400415036    -1.419573732633875    -1.757258958246195
    C               -0.918456400415036    -0.493573732633875    -1.295258958246195
    O               -0.914456400415036    -0.040573732633875    -0.154258958246195
    N                0.017543599584964    -0.192573732633875    -2.177258958246195
    H               -1.744456400415036    -1.913573732633875    -2.688258958246195
    H               -2.891456400415036    -0.790573732633875    -1.962258958246195
    H                0.759543599584964     0.433426267366125    -1.911258958246195
    H                0.003543599584964    -0.611573732633875    -3.093258958246195
    H               -2.287106400415036    -2.171843732633875    -0.999253958246195
    C                1.736543599584964     0.815426267366125     1.509741041753805
    C                1.571543599584964    -0.469573732633875     2.312741041753805
    N                0.463543599584964     1.586426267366125     1.433741041753805
    H                2.506543599584964     1.430426267366125     1.988741041753805
    H                2.086543599584964     0.560426267366125     0.502741041753805
    H                0.897543599584964    -1.155573732633875     1.793741041753805
    H                1.146543599584964    -0.224573732633875     3.288741041753805
    H                0.145543599584964     1.873426267366125     2.352741041753805
    H                0.569543599584964     2.424426267366125     0.873741041753805
    H               -0.276456400415036     1.030426267366125     1.010741041753805
    H                2.552843599584964    -0.946073732633875     2.454171041753805

}
e, wfn = energy('scf', return_wfn=True)
gdma(wfn)
dmavals = variable('DMA DISTRIBUTED MULTIPOLES')
charges = np.array(dmavals)
print(charges)
np.save('SSI-008ASN-030LYS-1-dimer.npy', np.array(charges))--------------------------------------------------------------------------

*** tstart() called on ds3
*** at Sun Apr 26 19:28:12 2020

   => Loading Basis Set <=

    Name: CC-PVDZ
    Role: ORBITAL
    Keyword: BASIS
    atoms 1-2, 10-11 entry C          line   138 file /theoryfs2/ds/metcalf/miniconda2/envs/tf2gpu/share/psi4/basis/cc-pvdz.gbs
    atoms 3          entry O          line   198 file /theoryfs2/ds/metcalf/miniconda2/envs/tf2gpu/share/psi4/basis/cc-pvdz.gbs
    atoms 4, 12      entry N          line   168 file /theoryfs2/ds/metcalf/miniconda2/envs/tf2gpu/share/psi4/basis/cc-pvdz.gbs
    atoms 5-9, 13-20 entry H          line    22 file /theoryfs2/ds/metcalf/miniconda2/envs/tf2gpu/share/psi4/basis/cc-pvdz.gbs

         ---------------------------------------------------------
                                   SCF
               by Justin Turney, Rob Parrish, Andy Simmonett
                          and Daniel G. A. Smith
                              RHF Reference
                        1 Threads,    500 MiB Core
         ---------------------------------------------------------

  ==> Geometry <==

    Molecular point group: c1
    Full point group: C1

    Geometry (in Angstrom), charge = 1, multiplicity = 1:

       Center              X                  Y                   Z               Mass
    ------------   -----------------  -----------------  -----------------  -----------------
         C           -2.023456400415    -1.419573732634    -1.757258958246    12.000000000000
         C           -0.918456400415    -0.493573732634    -1.295258958246    12.000000000000
         O           -0.914456400415    -0.040573732634    -0.154258958246    15.994914619570
         N            0.017543599585    -0.192573732634    -2.177258958246    14.003074004430
         H           -1.744456400415    -1.913573732634    -2.688258958246     1.007825032230
         H           -2.891456400415    -0.790573732634    -1.962258958246     1.007825032230
         H            0.759543599585     0.433426267366    -1.911258958246     1.007825032230
         H            0.003543599585    -0.611573732634    -3.093258958246     1.007825032230
         H           -2.287106400415    -2.171843732634    -0.999253958246     1.007825032230
         C            1.736543599585     0.815426267366     1.509741041754    12.000000000000
         C            1.571543599585    -0.469573732634     2.312741041754    12.000000000000
         N            0.463543599585     1.586426267366     1.433741041754    14.003074004430
         H            2.506543599585     1.430426267366     1.988741041754     1.007825032230
         H            2.086543599585     0.560426267366     0.502741041754     1.007825032230
         H            0.897543599585    -1.155573732634     1.793741041754     1.007825032230
         H            1.146543599585    -0.224573732634     3.288741041754     1.007825032230
         H            0.145543599585     1.873426267366     2.352741041754     1.007825032230
         H            0.569543599585     2.424426267366     0.873741041754     1.007825032230
         H           -0.276456400415     1.030426267366     1.010741041754     1.007825032230
         H            2.552843599585    -0.946073732634     2.454171041754     1.007825032230

  Running in c1 symmetry.

  Rotational constants: A =      0.14390  B =      0.03277  C =      0.03207 [cm^-1]
  Rotational constants: A =   4314.04861  B =    982.40045  C =    961.38531 [MHz]
  Nuclear repulsion =  324.411226480916014

  Charge       = 1
  Multiplicity = 1
  Electrons    = 58
  Nalpha       = 29
  Nbeta        = 29

  ==> Algorithm <==

  SCF Algorithm Type is PK.
  DIIS enabled.
  MOM disabled.
  Fractional occupation disabled.
  Guess Type is SAD.
  Energy threshold   = 1.00e-06
  Density threshold  = 1.00e-10
  Integral threshold = 0.00e+00

  ==> Primary Basis <==

  Basis Set: CC-PVDZ
    Blend: CC-PVDZ
    Number of shells: 81
    Number of basis function: 163
    Number of Cartesian functions: 170
    Spherical Harmonics?: true
    Max angular momentum: 2

  ==> Pre-Iterations <==

   -------------------------------------------------------
    Irrep   Nso     Nmo     Nalpha   Nbeta   Ndocc  Nsocc
   -------------------------------------------------------
     A        163     163       0       0       0       0
   -------------------------------------------------------
    Total     163     163      29      29      29       0
   -------------------------------------------------------

  ==> Integral Setup <==

  Using integral reordering PK algorithm.
  Sizing the integral batches needed.
  Building batch lookup table.
   Calculation information:
      Number of atoms:                  20
      Number of AO shells:              81
      Number of primitives:            219
      Number of atomic orbitals:       170
      Number of basis functions:       163

      Integral cutoff                 1.00e-12
      Number of threads:                 1

	Batch   1 pq = [       0,    9405] index = [             0,44231715] size =     44231715
	Batch   2 pq = [    9405,   13366] index = [      44231715,89331661] size =     45099946
  Task number: 9
  Buffer size: 11059200
  Buffer per thread: 2
  We computed 4974500 shell quartets total.
  Whereas there are 5516181 unique shell quartets.

  ==> DiskJK: Disk-Based J/K Matrices <==

    J tasked:                  Yes
    K tasked:                  Yes
    wK tasked:                  No
    Memory [MiB]:              375
    Schwarz Cutoff:          1E-12

    OpenMP threads:              1

  Minimum eigenvalue in the overlap matrix is 4.4340103952E-03.
  Using Symmetric Orthogonalization.

  SCF Guess: Superposition of Atomic Densities via on-the-fly atomic UHF.

  ==> Iterations <==

                        Total Energy        Delta E     RMS |[F,P]|

   @RHF iter SAD:  -341.87067661170971   -3.41871e+02   0.00000e+00
   @RHF iter   1:  -342.44950505455034   -5.78828e-01   3.76732e-03 DIIS
   @RHF iter   2:  -342.62536922603329   -1.75864e-01   1.80350e-03 DIIS
   @RHF iter   3:  -342.65976819957700   -3.43990e-02   4.74632e-04 DIIS
   @RHF iter   4:  -342.66321213796539   -3.44394e-03   1.66737e-04 DIIS
   @RHF iter   5:  -342.66363946484597   -4.27327e-04   2.87631e-05 DIIS
   @RHF iter   6:  -342.66366290070687   -2.34359e-05   1.07380e-05 DIIS
   @RHF iter   7:  -342.66366528197659   -2.38127e-06   3.29627e-06 DIIS
   @RHF iter   8:  -342.66366571481075   -4.32834e-07   1.08726e-06 DIIS
   @RHF iter   9:  -342.66366576200846   -4.71977e-08   3.22155e-07 DIIS
   @RHF iter  10:  -342.66366576604884   -4.04037e-09   1.15010e-07 DIIS
   @RHF iter  11:  -342.66366576649415   -4.45311e-10   2.76038e-08 DIIS
   @RHF iter  12:  -342.66366576652092   -2.67733e-11   6.51684e-09 DIIS
   @RHF iter  13:  -342.66366576651990    1.02318e-12   1.63919e-09 DIIS
   @RHF iter  14:  -342.66366576652024   -3.41061e-13   6.25882e-10 DIIS
   @RHF iter  15:  -342.66366576651887    1.36424e-12   2.05195e-10 DIIS
   @RHF iter  16:  -342.66366576652115   -2.27374e-12   8.90822e-11 DIIS
  Energy and wave function converged.

  ==> Post-Iterations <==

    Orbital Energies [Eh]
    ---------------------

    Doubly Occupied:

       1A    -20.665551     2A    -15.849378     3A    -15.733599
       4A    -11.501640     5A    -11.455110     6A    -11.380832
       7A    -11.362652     8A     -1.533708     9A     -1.477118
      10A     -1.366734    11A     -1.191154    12A     -1.128181
      13A     -1.026103    14A     -0.956451    15A     -0.931677
      16A     -0.923945    17A     -0.871261    18A     -0.831097
      19A     -0.804951    20A     -0.767936    21A     -0.748699
      22A     -0.722983    23A     -0.695925    24A     -0.679934
      25A     -0.675570    26A     -0.660540    27A     -0.656885
      28A     -0.572274    29A     -0.563359

    Virtual:

      30A     -0.012821    31A      0.024688    32A      0.046608
      33A      0.060101    34A      0.066026    35A      0.082373
      36A      0.095738    37A      0.112070    38A      0.134422
      39A      0.143942    40A      0.146927    41A      0.166913
      42A      0.172743    43A      0.182567    44A      0.197946
      45A      0.234367    46A      0.260779    47A      0.345062
      48A      0.405190    49A      0.428874    50A      0.441590
      51A      0.451945    52A      0.459105    53A      0.479999
      54A      0.513422    55A      0.545983    56A      0.566793
      57A      0.588888    58A      0.603192    59A      0.606234
      60A      0.629423    61A      0.653925    62A      0.662860
      63A      0.672799    64A      0.699681    65A      0.721555
      66A      0.732755    67A      0.737792    68A      0.742944
      69A      0.760683    70A      0.772591    71A      0.788958
      72A      0.797253    73A      0.806072    74A      0.840346
      75A      0.859902    76A      0.876253    77A      0.877416
      78A      0.882326    79A      0.930869    80A      0.960495
      81A      0.974563    82A      1.007380    83A      1.053189
      84A      1.169307    85A      1.192935    86A      1.216342
      87A      1.228260    88A      1.243640    89A      1.282100
      90A      1.302801    91A      1.310301    92A      1.320414
      93A      1.347312    94A      1.415443    95A      1.443200
      96A      1.494229    97A      1.506435    98A      1.525111
      99A      1.532214   100A      1.545967   101A      1.626413
     102A      1.650208   103A      1.687735   104A      1.697576
     105A      1.717020   106A      1.730729   107A      1.745315
     108A      1.757428   109A      1.763619   110A      1.774061
     111A      1.790638   112A      1.797485   113A      1.799741
     114A      1.809613   115A      1.818722   116A      1.841819
     117A      1.854542   118A      1.911300   119A      1.913674
     120A      1.934080   121A      1.943768   122A      1.967019
     123A      2.015960   124A      2.039455   125A      2.063091
     126A      2.100456   127A      2.131579   128A      2.141822
     129A      2.167053   130A      2.206919   131A      2.226567
     132A      2.278745   133A      2.314458   134A      2.327790
     135A      2.332557   136A      2.394726   137A      2.412075
     138A      2.425425   139A      2.434690   140A      2.491366
     141A      2.526208   142A      2.574068   143A      2.578391
     144A      2.613906   145A      2.624485   146A      2.644168
     147A      2.655454   148A      2.684841   149A      2.695974
     150A      2.734363   151A      2.800005   152A      2.827346
     153A      2.834326   154A      2.880879   155A      2.937252
     156A      2.971392   157A      3.127531   158A      3.168937
     159A      3.187492   160A      3.356761   161A      3.394920
     162A      3.721940   163A      3.847717

    Final Occupation by Irrep:
              A
    DOCC [    29 ]

  @RHF Final Energy:  -342.66366576652115

   => Energetics <=

    Nuclear Repulsion Energy =            324.4112264809160138
    One-Electron Energy =               -1098.6792910320789360
    Two-Electron Energy =                 431.6043987846418304
    Total Energy =                       -342.6636657665211487

Computation Completed

Properties will be evaluated at   0.000000,   0.000000,   0.000000 [a0]

Properties computed using the SCF density matrix

  Nuclear Dipole Moment: [e a0]
     X:     3.2460      Y:    -0.0616      Z:     3.3867

  Electronic Dipole Moment: [e a0]
     X:    -2.1418      Y:     1.6442      Z:    -2.9396

  Dipole Moment: [e a0]
     X:     1.1042      Y:     1.5826      Z:     0.4471     Total:     1.9808

  Dipole Moment: [D]
     X:     2.8067      Y:     4.0225      Z:     1.1365     Total:     5.0348

*** tstop() called on ds3 at Sun Apr 26 19:28:51 2020
Module time:
	user time   =      28.63 seconds =       0.48 minutes
	system time =      11.47 seconds =       0.19 minutes
	total time  =         39 seconds =       0.65 minutes
Total time:
	user time   =      28.63 seconds =       0.48 minutes
	system time =      11.47 seconds =       0.19 minutes
	total time  =         39 seconds =       0.65 minutes
                                     G D M A

                                 by Anthony Stone

                           version 2.2.06, 22 June 2011

               Distributed Multipoles from Gaussian wavefunctions

Starting at 19:28:51 on 26 Apr 2020

Using SCF density matrix from file ./SSI/SSI-008ASN-030LYS-1-dimer.test.6887.fchk

                         Distributed Multipole Analysis

Standard DMA

Positions and radii in angstrom
Multipole moments in atomic units, ea_0^k for rank k

C          x = -2.023456  y = -1.419574  z = -1.757259 angstrom
           Maximum rank =  0   Radius =  0.650 angstrom
                   Q00  =  -0.256384

C          x = -0.918456  y = -0.493574  z = -1.295259 angstrom
           Maximum rank =  0   Radius =  0.650 angstrom
                   Q00  =   0.817708

O          x = -0.914456  y = -0.040574  z = -0.154259 angstrom
           Maximum rank =  0   Radius =  0.650 angstrom
                   Q00  =  -0.867015

N          x =  0.017544  y = -0.192574  z = -2.177259 angstrom
           Maximum rank =  0   Radius =  0.650 angstrom
                   Q00  =  -0.527437

H          x = -1.744456  y = -1.913574  z = -2.688259 angstrom
           Maximum rank =  0   Radius =  0.325 angstrom
                   Q00  =   0.098991

H          x = -2.891456  y = -0.790574  z = -1.962259 angstrom
           Maximum rank =  0   Radius =  0.325 angstrom
                   Q00  =   0.151852

H          x =  0.759544  y =  0.433426  z = -1.911259 angstrom
           Maximum rank =  0   Radius =  0.325 angstrom
                   Q00  =   0.215323

H          x =  0.003544  y = -0.611574  z = -3.093259 angstrom
           Maximum rank =  0   Radius =  0.325 angstrom
                   Q00  =   0.243419

H          x = -2.287106  y = -2.171844  z = -0.999254 angstrom
           Maximum rank =  0   Radius =  0.325 angstrom
                   Q00  =   0.148916

C          x =  1.736544  y =  0.815426  z =  1.509741 angstrom
           Maximum rank =  0   Radius =  0.650 angstrom
                   Q00  =  -0.028057

C          x =  1.571544  y = -0.469574  z =  2.312741 angstrom
           Maximum rank =  0   Radius =  0.650 angstrom
                   Q00  =  -0.225012

N          x =  0.463544  y =  1.586426  z =  1.433741 angstrom
           Maximum rank =  0   Radius =  0.650 angstrom
                   Q00  =  -0.161413

H          x =  2.506544  y =  1.430426  z =  1.988741 angstrom
           Maximum rank =  0   Radius =  0.325 angstrom
                   Q00  =   0.114742

H          x =  2.086544  y =  0.560426  z =  0.502741 angstrom
           Maximum rank =  0   Radius =  0.325 angstrom
                   Q00  =   0.114652

H          x =  0.897544  y = -1.155574  z =  1.793741 angstrom
           Maximum rank =  0   Radius =  0.325 angstrom
                   Q00  =   0.116820

H          x =  1.146544  y = -0.224574  z =  3.288741 angstrom
           Maximum rank =  0   Radius =  0.325 angstrom
                   Q00  =   0.096870

H          x =  0.145544  y =  1.873426  z =  2.352741 angstrom
           Maximum rank =  0   Radius =  0.325 angstrom
                   Q00  =   0.234480

H          x =  0.569544  y =  2.424426  z =  0.873741 angstrom
           Maximum rank =  0   Radius =  0.325 angstrom
                   Q00  =   0.234798

H          x = -0.276456  y =  1.030426  z =  1.010741 angstrom
           Maximum rank =  0   Radius =  0.325 angstrom
                   Q00  =   0.338325

H          x =  2.552844  y = -0.946074  z =  2.454171 angstrom
           Maximum rank =  0   Radius =  0.325 angstrom
                   Q00  =   0.138421

Total multipoles referred to origin at
           x =   0.000000,  y =    0.000000,  z =    0.000000 angstrom
                   Q00  =   1.000000

Finished at 19:28:51 on 26 Apr 2020

  DMA results are available in the Python driver through the
	  variable('DMA DISTRIBUTED MULTIPOLES')
  and
	  variable('DMA TOTAL MULTIPOLES')
  commands.

    Psi4 stopped on: Sunday, 26 April 2020 07:28PM
    Psi4 wall time for execution: 0:00:39.51

*** Psi4 exiting successfully. Buy a developer a beer!
