                               Psi4 1.3.2 release

  ==> Input File <==

--------------------------------------------------------------------------
import numpy as np
set {scf_type pk
basis cc-pvdz
d_convergence 10
gdma_switch   0
gdma_limit    0
gdma_origin   [ 0.0,  0.0,  0.0 ]
}
molecule test {
    units Angstrom
    0 1
    --
    0 1
    C               -2.595681550994505     0.236069185855428     1.090641186908810
    C               -0.745681550994505    -0.338930814144572    -0.561358813091190
    C               -1.356681550994505     0.507069185855428     0.303641186908810
    C                0.536318449005495     1.483069185855428    -0.587358813091190
    C               -0.541681550994505     1.694069185855428     0.309641186908810
    C                1.498318449005495     2.440069185855428    -0.832358813091190
    C               -0.618681550994505     2.919069185855428     0.976641186908810
    C                1.370318449005495     3.655069185855428    -0.185358813091190
    C                0.322318449005495     3.883069185855428     0.709641186908810
    N                0.379318449005495     0.227069185855428    -1.088358813091190
    H               -1.107681550994505    -1.327930814144572    -0.814358813091190
    H                0.927318449005495    -0.210930814144572    -1.834358813091191
    H               -2.436681550994505     0.588069185855428     2.097641186908810
    H               -2.727681550994505    -0.845930814144572     1.156641186908810
    H                2.310318449005495     2.247069185855428    -1.518358813091190
    H               -1.397681550994505     3.102069185855428     1.698641186908810
    H                2.104318449005495     4.431069185855428    -0.357358813091190
    H                0.272318449005495     4.817069185855428     1.241641186908810
    H               -3.521634550994505     0.665135185855428     0.680141186908810
    C                1.067318449005495    -2.850930814144572     1.006641186908810
    C                0.355318449005495    -3.648930814144572    -0.055358813091190
    O               -0.866681550994505    -3.720930814144572    -0.104358813091190
    N                1.139318449005495    -4.272930814144573    -0.921358813091190
    H                1.424318449005495    -1.943930814144573     0.526641186908810
    H                1.925318449005496    -3.419930814144573     1.354641186908810
    H                0.721318449005495    -4.827930814144572    -1.649358813091190
    H                2.143318449005495    -4.246930814144572    -0.776358813091190
    H                0.453158449005495    -2.573872814144572     1.876151186908809

}
e, wfn = energy('scf', return_wfn=True)
gdma(wfn)
dmavals = variable('DMA DISTRIBUTED MULTIPOLES')
charges = np.array(dmavals)
print(charges)
np.save('SSI-031TRP-168GLN-2-dimer.npy', np.array(charges))--------------------------------------------------------------------------

*** tstart() called on ds3
*** at Tue Apr 28 11:45:55 2020

   => Loading Basis Set <=

    Name: CC-PVDZ
    Role: ORBITAL
    Keyword: BASIS
    atoms 1-9, 20-21   entry C          line   138 file /theoryfs2/ds/metcalf/miniconda2/envs/tf2gpu/share/psi4/basis/cc-pvdz.gbs
    atoms 10, 23       entry N          line   168 file /theoryfs2/ds/metcalf/miniconda2/envs/tf2gpu/share/psi4/basis/cc-pvdz.gbs
    atoms 11-19, 24-28 entry H          line    22 file /theoryfs2/ds/metcalf/miniconda2/envs/tf2gpu/share/psi4/basis/cc-pvdz.gbs
    atoms 22           entry O          line   198 file /theoryfs2/ds/metcalf/miniconda2/envs/tf2gpu/share/psi4/basis/cc-pvdz.gbs

         ---------------------------------------------------------
                                   SCF
               by Justin Turney, Rob Parrish, Andy Simmonett
                          and Daniel G. A. Smith
                              RHF Reference
                        1 Threads,    500 MiB Core
         ---------------------------------------------------------

  ==> Geometry <==

    Molecular point group: c1
    Full point group: C1

    Geometry (in Angstrom), charge = 0, multiplicity = 1:

       Center              X                  Y                   Z               Mass
    ------------   -----------------  -----------------  -----------------  -----------------
         C           -2.595681550995     0.236069185855     1.090641186909    12.000000000000
         C           -0.745681550995    -0.338930814145    -0.561358813091    12.000000000000
         C           -1.356681550995     0.507069185855     0.303641186909    12.000000000000
         C            0.536318449005     1.483069185855    -0.587358813091    12.000000000000
         C           -0.541681550995     1.694069185855     0.309641186909    12.000000000000
         C            1.498318449005     2.440069185855    -0.832358813091    12.000000000000
         C           -0.618681550995     2.919069185855     0.976641186909    12.000000000000
         C            1.370318449005     3.655069185855    -0.185358813091    12.000000000000
         C            0.322318449005     3.883069185855     0.709641186909    12.000000000000
         N            0.379318449005     0.227069185855    -1.088358813091    14.003074004430
         H           -1.107681550995    -1.327930814145    -0.814358813091     1.007825032230
         H            0.927318449005    -0.210930814145    -1.834358813091     1.007825032230
         H           -2.436681550995     0.588069185855     2.097641186909     1.007825032230
         H           -2.727681550995    -0.845930814145     1.156641186909     1.007825032230
         H            2.310318449005     2.247069185855    -1.518358813091     1.007825032230
         H           -1.397681550995     3.102069185855     1.698641186909     1.007825032230
         H            2.104318449005     4.431069185855    -0.357358813091     1.007825032230
         H            0.272318449005     4.817069185855     1.241641186909     1.007825032230
         H           -3.521634550995     0.665135185855     0.680141186909     1.007825032230
         C            1.067318449005    -2.850930814145     1.006641186909    12.000000000000
         C            0.355318449005    -3.648930814145    -0.055358813091    12.000000000000
         O           -0.866681550995    -3.720930814145    -0.104358813091    15.994914619570
         N            1.139318449005    -4.272930814145    -0.921358813091    14.003074004430
         H            1.424318449005    -1.943930814145     0.526641186909     1.007825032230
         H            1.925318449005    -3.419930814145     1.354641186909     1.007825032230
         H            0.721318449005    -4.827930814145    -1.649358813091     1.007825032230
         H            2.143318449005    -4.246930814145    -0.776358813091     1.007825032230
         H            0.453158449005    -2.573872814145     1.876151186909     1.007825032230

  Running in c1 symmetry.

  Rotational constants: A =      0.04388  B =      0.01108  C =      0.00962 [cm^-1]
  Rotational constants: A =   1315.58994  B =    332.12212  C =    288.27300 [MHz]
  Nuclear repulsion =  832.186606276238876

  Charge       = 0
  Multiplicity = 1
  Electrons    = 102
  Nalpha       = 51
  Nbeta        = 51

  ==> Algorithm <==

  SCF Algorithm Type is PK.
  DIIS enabled.
  MOM disabled.
  Fractional occupation disabled.
  Guess Type is SAD.
  Energy threshold   = 1.00e-06
  Density threshold  = 1.00e-10
  Integral threshold = 0.00e+00

  ==> Primary Basis <==

  Basis Set: CC-PVDZ
    Blend: CC-PVDZ
    Number of shells: 126
    Number of basis function: 266
    Number of Cartesian functions: 280
    Spherical Harmonics?: true
    Max angular momentum: 2

  ==> Pre-Iterations <==

   -------------------------------------------------------
    Irrep   Nso     Nmo     Nalpha   Nbeta   Ndocc  Nsocc
   -------------------------------------------------------
     A        266     266       0       0       0       0
   -------------------------------------------------------
    Total     266     266      51      51      51       0
   -------------------------------------------------------

  ==> Integral Setup <==

  Using integral reordering PK algorithm.
  Sizing the integral batches needed.
  Building batch lookup table.
   Calculation information:
      Number of atoms:                  28
      Number of AO shells:             126
      Number of primitives:            378
      Number of atomic orbitals:       280
      Number of basis functions:       266

      Integral cutoff                 1.00e-12
      Number of threads:                 1

	Batch   1 pq = [       0,    9405] index = [             0,44231715] size =     44231715
	Batch   2 pq = [    9405,   13301] index = [      44231715,88464951] size =     44233236
	Batch   3 pq = [   13301,   16290] index = [      88464951,132690195] size =     44225244
	Batch   4 pq = [   16290,   18810] index = [     132690195,176917455] size =     44227260
	Batch   5 pq = [   18810,   21030] index = [     176917455,221140965] size =     44223510
	Batch   6 pq = [   21030,   23037] index = [     221140965,265363203] size =     44222238
	Batch   7 pq = [   23037,   24883] index = [     265363203,309594286] size =     44231083
	Batch   8 pq = [   24883,   26601] index = [     309594286,353819901] size =     44225615
	Batch   9 pq = [   26601,   28214] index = [     353819901,398029005] size =     44209104
	Batch  10 pq = [   28214,   29740] index = [     398029005,442248670] size =     44219665
	Batch  11 pq = [   29740,   31191] index = [     442248670,486454836] size =     44206166
	Batch  12 pq = [   31191,   32578] index = [     486454836,530679331] size =     44224495
	Batch  13 pq = [   32578,   33908] index = [     530679331,574893186] size =     44213855
	Batch  14 pq = [   33908,   35188] index = [     574893186,619115266] size =     44222080
	Batch  15 pq = [   35188,   35511] index = [     619115266,630533316] size =     11418050
  Task number: 58
  Buffer size: 11059200
  Buffer per thread: 2
  We computed 30289464 shell quartets total.
  Whereas there are 32012001 unique shell quartets.

  ==> DiskJK: Disk-Based J/K Matrices <==

    J tasked:                  Yes
    K tasked:                  Yes
    wK tasked:                  No
    Memory [MiB]:              375
    Schwarz Cutoff:          1E-12

    OpenMP threads:              1

  Minimum eigenvalue in the overlap matrix is 2.2759699586E-04.
  Using Symmetric Orthogonalization.

  SCF Guess: Superposition of Atomic Densities via on-the-fly atomic UHF.

  ==> Iterations <==

                        Total Energy        Delta E     RMS |[F,P]|

   @RHF iter SAD:  -607.80350217013324   -6.07804e+02   0.00000e+00
   @RHF iter   1:  -608.17855275405361   -3.75051e-01   2.86310e-03 DIIS
   @RHF iter   2:  -608.45488251191296   -2.76330e-01   1.52457e-03 DIIS
   @RHF iter   3:  -608.52305078111169   -6.81683e-02   3.65584e-04 DIIS
   @RHF iter   4:  -608.52859457563886   -5.54379e-03   1.41319e-04 DIIS
   @RHF iter   5:  -608.52945899916961   -8.64424e-04   2.26360e-05 DIIS
   @RHF iter   6:  -608.52950798632992   -4.89872e-05   1.13999e-05 DIIS
   @RHF iter   7:  -608.52951816379186   -1.01775e-05   4.53969e-06 DIIS
   @RHF iter   8:  -608.52952043208813   -2.26830e-06   1.68580e-06 DIIS
   @RHF iter   9:  -608.52952075519170   -3.23104e-07   7.59165e-07 DIIS
   @RHF iter  10:  -608.52952082215552   -6.69638e-08   2.87982e-07 DIIS
   @RHF iter  11:  -608.52952083793116   -1.57756e-08   1.23286e-07 DIIS
   @RHF iter  12:  -608.52952084070409   -2.77294e-09   6.31589e-08 DIIS
   @RHF iter  13:  -608.52952084132221   -6.18115e-10   2.17345e-08 DIIS
   @RHF iter  14:  -608.52952084141475   -9.25411e-11   7.76082e-09 DIIS
   @RHF iter  15:  -608.52952084142089   -6.13909e-12   2.80171e-09 DIIS
   @RHF iter  16:  -608.52952084142726   -6.36646e-12   1.10993e-09 DIIS
   @RHF iter  17:  -608.52952084142021    7.04858e-12   5.39353e-10 DIIS
   @RHF iter  18:  -608.52952084142305   -2.84217e-12   2.20897e-10 DIIS
   @RHF iter  19:  -608.52952084142191    1.13687e-12   1.12228e-10 DIIS
   @RHF iter  20:  -608.52952084142726   -5.34328e-12   4.86190e-11 DIIS
  Energy and wave function converged.

  ==> Post-Iterations <==

    Orbital Energies [Eh]
    ---------------------

    Doubly Occupied:

       1A    -20.512030     2A    -15.598185     3A    -15.596766
       4A    -11.353300     5A    -11.257303     6A    -11.250331
       7A    -11.241413     8A    -11.225911     9A    -11.223952
      10A    -11.222165    11A    -11.215208    12A    -11.214862
      13A    -11.213493    14A    -11.207530    15A     -1.378240
      16A     -1.296270    17A     -1.226804    18A     -1.128520
      19A     -1.068168    20A     -1.005604    21A     -0.997326
      22A     -0.983279    23A     -0.924647    24A     -0.836226
      25A     -0.804736    26A     -0.800069    27A     -0.749463
      28A     -0.736494    29A     -0.716047    30A     -0.660841
      31A     -0.657931    32A     -0.639024    33A     -0.620990
      34A     -0.599431    35A     -0.590458    36A     -0.585619
      37A     -0.578637    38A     -0.560065    39A     -0.557655
      40A     -0.546415    41A     -0.532954    42A     -0.526876
      43A     -0.520265    44A     -0.486863    45A     -0.467443
      46A     -0.459486    47A     -0.416826    48A     -0.413236
      49A     -0.369248    50A     -0.292678    51A     -0.269825

    Virtual:

      52A      0.132576    53A      0.154737    54A      0.175250
      55A      0.181840    56A      0.194649    57A      0.199857
      58A      0.209196    59A      0.215997    60A      0.232183
      61A      0.233468    62A      0.240281    63A      0.256287
      64A      0.263720    65A      0.271077    66A      0.283165
      67A      0.299814    68A      0.302784    69A      0.320916
      70A      0.381433    71A      0.386857    72A      0.394565
      73A      0.414405    74A      0.425696    75A      0.455416
      76A      0.475715    77A      0.480997    78A      0.488087
      79A      0.504270    80A      0.517901    81A      0.548599
      82A      0.585194    83A      0.615843    84A      0.622180
      85A      0.631521    86A      0.642926    87A      0.665222
      88A      0.689763    89A      0.692794    90A      0.696356
      91A      0.710006    92A      0.722693    93A      0.727781
      94A      0.729796    95A      0.738432    96A      0.742090
      97A      0.745252    98A      0.747841    99A      0.758762
     100A      0.765277   101A      0.770223   102A      0.786376
     103A      0.796213   104A      0.807668   105A      0.822020
     106A      0.841326   107A      0.848306   108A      0.871268
     109A      0.878170   110A      0.888700   111A      0.892180
     112A      0.896100   113A      0.903840   114A      0.907326
     115A      0.914197   116A      0.924914   117A      0.940335
     118A      0.954159   119A      0.962735   120A      0.968018
     121A      0.975424   122A      0.989942   123A      0.996882
     124A      1.009897   125A      1.021284   126A      1.051295
     127A      1.063097   128A      1.065260   129A      1.096626
     130A      1.118427   131A      1.128278   132A      1.141333
     133A      1.141592   134A      1.148819   135A      1.165856
     136A      1.174684   137A      1.176681   138A      1.217644
     139A      1.232165   140A      1.241861   141A      1.256885
     142A      1.270173   143A      1.284836   144A      1.299723
     145A      1.307997   146A      1.313411   147A      1.336134
     148A      1.342227   149A      1.351016   150A      1.364300
     151A      1.383383   152A      1.392732   153A      1.400869
     154A      1.418049   155A      1.443183   156A      1.463941
     157A      1.488527   158A      1.509112   159A      1.536739
     160A      1.558700   161A      1.582573   162A      1.612117
     163A      1.634861   164A      1.644938   165A      1.656705
     166A      1.663671   167A      1.679977   168A      1.701167
     169A      1.705966   170A      1.742406   171A      1.748500
     172A      1.766769   173A      1.783336   174A      1.792275
     175A      1.814221   176A      1.820306   177A      1.831904
     178A      1.845690   179A      1.865018   180A      1.886534
     181A      1.893010   182A      1.898100   183A      1.905479
     184A      1.908542   185A      1.922524   186A      1.932826
     187A      1.936848   188A      1.948986   189A      1.955193
     190A      1.958473   191A      1.973357   192A      1.979540
     193A      2.003840   194A      2.009100   195A      2.022720
     196A      2.040098   197A      2.048322   198A      2.063882
     199A      2.077511   200A      2.087389   201A      2.093788
     202A      2.111748   203A      2.124601   204A      2.127593
     205A      2.136222   206A      2.155124   207A      2.164838
     208A      2.167903   209A      2.175539   210A      2.195823
     211A      2.237625   212A      2.243053   213A      2.268926
     214A      2.285937   215A      2.311688   216A      2.324994
     217A      2.337402   218A      2.342304   219A      2.362921
     220A      2.406326   221A      2.428502   222A      2.447352
     223A      2.463857   224A      2.470597   225A      2.474634
     226A      2.493784   227A      2.542464   228A      2.560871
     229A      2.565646   230A      2.600613   231A      2.608053
     232A      2.619245   233A      2.653059   234A      2.673519
     235A      2.700234   236A      2.709088   237A      2.724157
     238A      2.768392   239A      2.782705   240A      2.788660
     241A      2.795199   242A      2.816592   243A      2.824822
     244A      2.859397   245A      2.890415   246A      2.902248
     247A      2.904370   248A      2.938643   249A      2.982773
     250A      2.983600   251A      3.037435   252A      3.087083
     253A      3.089853   254A      3.097389   255A      3.136309
     256A      3.144808   257A      3.228171   258A      3.290216
     259A      3.324693   260A      3.399907   261A      3.512901
     262A      3.537991   263A      3.756156   264A      3.862439
     265A      3.907757   266A      3.981964

    Final Occupation by Irrep:
              A
    DOCC [    51 ]

  @RHF Final Energy:  -608.52952084142726

   => Energetics <=

    Nuclear Repulsion Energy =            832.1866062762388765
    One-Electron Energy =               -2478.7580422857190570
    Two-Electron Energy =                1038.0419151680530376
    Total Energy =                       -608.5295208414272565

Computation Completed

Properties will be evaluated at   0.000000,   0.000000,   0.000000 [a0]

Properties computed using the SCF density matrix

  Nuclear Dipole Moment: [e a0]
     X:     1.0136      Y:    -3.3312      Z:     3.4571

  Electronic Dipole Moment: [e a0]
     X:     0.7276      Y:     2.3841      Z:    -4.0626

  Dipole Moment: [e a0]
     X:     1.7412      Y:    -0.9471      Z:    -0.6055     Total:     2.0726

  Dipole Moment: [D]
     X:     4.4258      Y:    -2.4073      Z:    -1.5391     Total:     5.2680

*** tstop() called on ds3 at Tue Apr 28 11:52:16 2020
Module time:
	user time   =     268.83 seconds =       4.48 minutes
	system time =     108.29 seconds =       1.80 minutes
	total time  =        381 seconds =       6.35 minutes
Total time:
	user time   =     268.83 seconds =       4.48 minutes
	system time =     108.29 seconds =       1.80 minutes
	total time  =        381 seconds =       6.35 minutes
                                     G D M A

                                 by Anthony Stone

                           version 2.2.06, 22 June 2011

               Distributed Multipoles from Gaussian wavefunctions

Starting at 11:52:16 on 28 Apr 2020

Using SCF density matrix from file ./SSI/SSI-031TRP-168GLN-2-dimer.test.32223.fchk

                         Distributed Multipole Analysis

Standard DMA

Positions and radii in angstrom
Multipole moments in atomic units, ea_0^k for rank k

C          x = -2.595682  y =  0.236069  z =  1.090641 angstrom
           Maximum rank =  0   Radius =  0.650 angstrom
                   Q00  =  -0.214805

C          x = -0.745682  y = -0.338931  z = -0.561359 angstrom
           Maximum rank =  0   Radius =  0.650 angstrom
                   Q00  =   0.061244

C          x = -1.356682  y =  0.507069  z =  0.303641 angstrom
           Maximum rank =  0   Radius =  0.650 angstrom
                   Q00  =  -0.122301

C          x =  0.536318  y =  1.483069  z = -0.587359 angstrom
           Maximum rank =  0   Radius =  0.650 angstrom
                   Q00  =   0.269038

C          x = -0.541682  y =  1.694069  z =  0.309641 angstrom
           Maximum rank =  0   Radius =  0.650 angstrom
                   Q00  =  -0.065093

C          x =  1.498318  y =  2.440069  z = -0.832359 angstrom
           Maximum rank =  0   Radius =  0.650 angstrom
                   Q00  =  -0.121006

C          x = -0.618682  y =  2.919069  z =  0.976641 angstrom
           Maximum rank =  0   Radius =  0.650 angstrom
                   Q00  =  -0.092055

C          x =  1.370318  y =  3.655069  z = -0.185359 angstrom
           Maximum rank =  0   Radius =  0.650 angstrom
                   Q00  =  -0.072979

C          x =  0.322318  y =  3.883069  z =  0.709641 angstrom
           Maximum rank =  0   Radius =  0.650 angstrom
                   Q00  =  -0.055568

N          x =  0.379318  y =  0.227069  z = -1.088359 angstrom
           Maximum rank =  0   Radius =  0.650 angstrom
                   Q00  =  -0.479793

H          x = -1.107682  y = -1.327931  z = -0.814359 angstrom
           Maximum rank =  0   Radius =  0.325 angstrom
                   Q00  =   0.114398

H          x =  0.927318  y = -0.210931  z = -1.834359 angstrom
           Maximum rank =  0   Radius =  0.325 angstrom
                   Q00  =   0.213306

H          x = -2.436682  y =  0.588069  z =  2.097641 angstrom
           Maximum rank =  0   Radius =  0.325 angstrom
                   Q00  =   0.099102

H          x = -2.727682  y = -0.845931  z =  1.156641 angstrom
           Maximum rank =  0   Radius =  0.325 angstrom
                   Q00  =   0.115147

H          x =  2.310318  y =  2.247069  z = -1.518359 angstrom
           Maximum rank =  0   Radius =  0.325 angstrom
                   Q00  =   0.069413

H          x = -1.397682  y =  3.102069  z =  1.698641 angstrom
           Maximum rank =  0   Radius =  0.325 angstrom
                   Q00  =   0.066701

H          x =  2.104318  y =  4.431069  z = -0.357359 angstrom
           Maximum rank =  0   Radius =  0.325 angstrom
                   Q00  =   0.061462

H          x =  0.272318  y =  4.817069  z =  1.241641 angstrom
           Maximum rank =  0   Radius =  0.325 angstrom
                   Q00  =   0.055543

H          x = -3.521635  y =  0.665135  z =  0.680141 angstrom
           Maximum rank =  0   Radius =  0.325 angstrom
                   Q00  =   0.098534

C          x =  1.067318  y = -2.850931  z =  1.006641 angstrom
           Maximum rank =  0   Radius =  0.650 angstrom
                   Q00  =  -0.257142

C          x =  0.355318  y = -3.648931  z = -0.055359 angstrom
           Maximum rank =  0   Radius =  0.650 angstrom
                   Q00  =   0.813478

O          x = -0.866682  y = -3.720931  z = -0.104359 angstrom
           Maximum rank =  0   Radius =  0.650 angstrom
                   Q00  =  -0.790339

N          x =  1.139318  y = -4.272931  z = -0.921359 angstrom
           Maximum rank =  0   Radius =  0.650 angstrom
                   Q00  =  -0.535472

H          x =  1.424318  y = -1.943931  z =  0.526641 angstrom
           Maximum rank =  0   Radius =  0.325 angstrom
                   Q00  =   0.115546

H          x =  1.925318  y = -3.419931  z =  1.354641 angstrom
           Maximum rank =  0   Radius =  0.325 angstrom
                   Q00  =   0.086168

H          x =  0.721318  y = -4.827931  z = -1.649359 angstrom
           Maximum rank =  0   Radius =  0.325 angstrom
                   Q00  =   0.224255

H          x =  2.143318  y = -4.246931  z = -0.776359 angstrom
           Maximum rank =  0   Radius =  0.325 angstrom
                   Q00  =   0.206752

H          x =  0.453158  y = -2.573873  z =  1.876151 angstrom
           Maximum rank =  0   Radius =  0.325 angstrom
                   Q00  =   0.136465

Total multipoles referred to origin at
           x =   0.000000,  y =    0.000000,  z =    0.000000 angstrom
                   Q00  =  -0.000000

Finished at 11:52:16 on 28 Apr 2020

  DMA results are available in the Python driver through the
	  variable('DMA DISTRIBUTED MULTIPOLES')
  and
	  variable('DMA TOTAL MULTIPOLES')
  commands.

    Psi4 stopped on: Tuesday, 28 April 2020 11:52AM
    Psi4 wall time for execution: 0:06:21.59

*** Psi4 exiting successfully. Buy a developer a beer!
