                               Psi4 1.3.2 release

  ==> Input File <==

--------------------------------------------------------------------------
import numpy as np
set {scf_type pk
basis cc-pvdz
d_convergence 10
gdma_switch   0
gdma_limit    0
gdma_origin   [ 0.0,  0.0,  0.0 ]
}
molecule test {
    units Angstrom
    0 1
    --
    0 1
    C                0.006494649098706     1.705125359033116     2.054306338474709
    C                1.806494649098706     0.462125359033116     0.893306338474709
    N                0.571494649098706     0.924125359033116     0.955306338474709
    N                2.189494649098706    -0.227874640966884    -0.159693661525291
    N                2.664494649098706     0.688125359033116     1.871306338474709
    H               -0.072505350901294     0.657125359033116     0.212306338474709
    H               -0.414505350901294     2.610125359033116     1.612306338474709
    H                0.744494649098706     2.020125359033116     2.793306338474709
    H                1.530494649098706    -0.383874640966884    -0.908693661525291
    H                3.140494649098706    -0.538874640966884    -0.262693661525291
    H                2.366494649098706     1.188125359033116     2.689306338474708
    H                3.620494649098706     0.377125359033116     1.807306338474709
    H               -0.812656350901294     1.156125359033116     2.541736338474709
    C               -2.769505350901293    -1.892874640966884    -0.983693661525291
    C               -1.770505350901294    -0.834874640966884    -1.430693661525291
    O               -1.442505350901294     0.066125359033116    -0.630693661525291
    O               -1.324505350901294    -0.897874640966884    -2.597693661525291
    H               -2.791505350901294    -2.710874640966884    -1.706693661525291
    H               -3.763505350901294    -1.439874640966884    -0.960693661525291
    H               -2.546725350901294    -2.296034640966884     0.015226338474709

}
e, wfn = energy('scf', return_wfn=True)
gdma(wfn)
dmavals = variable('DMA DISTRIBUTED MULTIPOLES')
charges = np.array(dmavals)
print(charges)
np.save('SSI-015ARG-020ASP-1-dimer.npy', np.array(charges))--------------------------------------------------------------------------

*** tstart() called on ds3
*** at Mon Apr 27 16:06:42 2020

   => Loading Basis Set <=

    Name: CC-PVDZ
    Role: ORBITAL
    Keyword: BASIS
    atoms 1-2, 14-15  entry C          line   138 file /theoryfs2/ds/metcalf/miniconda2/envs/tf2gpu/share/psi4/basis/cc-pvdz.gbs
    atoms 3-5         entry N          line   168 file /theoryfs2/ds/metcalf/miniconda2/envs/tf2gpu/share/psi4/basis/cc-pvdz.gbs
    atoms 6-13, 18-20 entry H          line    22 file /theoryfs2/ds/metcalf/miniconda2/envs/tf2gpu/share/psi4/basis/cc-pvdz.gbs
    atoms 16-17       entry O          line   198 file /theoryfs2/ds/metcalf/miniconda2/envs/tf2gpu/share/psi4/basis/cc-pvdz.gbs

         ---------------------------------------------------------
                                   SCF
               by Justin Turney, Rob Parrish, Andy Simmonett
                          and Daniel G. A. Smith
                              RHF Reference
                        1 Threads,    500 MiB Core
         ---------------------------------------------------------

  ==> Geometry <==

    Molecular point group: c1
    Full point group: C1

    Geometry (in Angstrom), charge = 0, multiplicity = 1:

       Center              X                  Y                   Z               Mass
    ------------   -----------------  -----------------  -----------------  -----------------
         C            0.006494649099     1.705125359033     2.054306338475    12.000000000000
         C            1.806494649099     0.462125359033     0.893306338475    12.000000000000
         N            0.571494649099     0.924125359033     0.955306338475    14.003074004430
         N            2.189494649099    -0.227874640967    -0.159693661525    14.003074004430
         N            2.664494649099     0.688125359033     1.871306338475    14.003074004430
         H           -0.072505350901     0.657125359033     0.212306338475     1.007825032230
         H           -0.414505350901     2.610125359033     1.612306338475     1.007825032230
         H            0.744494649099     2.020125359033     2.793306338475     1.007825032230
         H            1.530494649099    -0.383874640967    -0.908693661525     1.007825032230
         H            3.140494649099    -0.538874640967    -0.262693661525     1.007825032230
         H            2.366494649099     1.188125359033     2.689306338475     1.007825032230
         H            3.620494649099     0.377125359033     1.807306338475     1.007825032230
         H           -0.812656350901     1.156125359033     2.541736338475     1.007825032230
         C           -2.769505350901    -1.892874640967    -0.983693661525    12.000000000000
         C           -1.770505350901    -0.834874640967    -1.430693661525    12.000000000000
         O           -1.442505350901     0.066125359033    -0.630693661525    15.994914619570
         O           -1.324505350901    -0.897874640967    -2.597693661525    15.994914619570
         H           -2.791505350901    -2.710874640967    -1.706693661525     1.007825032230
         H           -3.763505350901    -1.439874640967    -0.960693661525     1.007825032230
         H           -2.546725350901    -2.296034640967     0.015226338475     1.007825032230

  Running in c1 symmetry.

  Rotational constants: A =      0.08939  B =      0.02199  C =      0.01912 [cm^-1]
  Rotational constants: A =   2679.86294  B =    659.11416  C =    573.31224 [MHz]
  Nuclear repulsion =  455.220730278156395

  Charge       = 0
  Multiplicity = 1
  Electrons    = 72
  Nalpha       = 36
  Nbeta        = 36

  ==> Algorithm <==

  SCF Algorithm Type is PK.
  DIIS enabled.
  MOM disabled.
  Fractional occupation disabled.
  Guess Type is SAD.
  Energy threshold   = 1.00e-06
  Density threshold  = 1.00e-10
  Integral threshold = 0.00e+00

  ==> Primary Basis <==

  Basis Set: CC-PVDZ
    Blend: CC-PVDZ
    Number of shells: 87
    Number of basis function: 181
    Number of Cartesian functions: 190
    Spherical Harmonics?: true
    Max angular momentum: 2

  ==> Pre-Iterations <==

   -------------------------------------------------------
    Irrep   Nso     Nmo     Nalpha   Nbeta   Ndocc  Nsocc
   -------------------------------------------------------
     A        181     181       0       0       0       0
   -------------------------------------------------------
    Total     181     181      36      36      36       0
   -------------------------------------------------------

  ==> Integral Setup <==

  Using integral reordering PK algorithm.
  Sizing the integral batches needed.
  Building batch lookup table.
   Calculation information:
      Number of atoms:                  20
      Number of AO shells:              87
      Number of primitives:            253
      Number of atomic orbitals:       190
      Number of basis functions:       181

      Integral cutoff                 1.00e-12
      Number of threads:                 1

	Batch   1 pq = [       0,    9405] index = [             0,44231715] size =     44231715
	Batch   2 pq = [    9405,   13301] index = [      44231715,88464951] size =     44233236
	Batch   3 pq = [   13301,   16471] index = [      88464951,135655156] size =     47190205
  Task number: 13
  Buffer size: 11059200
  Buffer per thread: 2
  We computed 5917240 shell quartets total.
  Whereas there are 7328706 unique shell quartets.

  ==> DiskJK: Disk-Based J/K Matrices <==

    J tasked:                  Yes
    K tasked:                  Yes
    wK tasked:                  No
    Memory [MiB]:              375
    Schwarz Cutoff:          1E-12

    OpenMP threads:              1

  Minimum eigenvalue in the overlap matrix is 3.7967067258E-03.
  Using Symmetric Orthogonalization.

  SCF Guess: Superposition of Atomic Densities via on-the-fly atomic UHF.

  ==> Iterations <==

                        Total Energy        Delta E     RMS |[F,P]|

   @RHF iter SAD:  -469.73856870272937   -4.69739e+02   0.00000e+00
   @RHF iter   1:  -470.68826298591631   -9.49694e-01   4.25486e-03 DIIS
   @RHF iter   2:  -470.91501816226616   -2.26755e-01   2.23343e-03 DIIS
   @RHF iter   3:  -470.97411744982440   -5.90993e-02   3.98452e-04 DIIS
   @RHF iter   4:  -470.97738240906375   -3.26496e-03   1.45431e-04 DIIS
   @RHF iter   5:  -470.97779565707810   -4.13248e-04   2.90902e-05 DIIS
   @RHF iter   6:  -470.97781849940048   -2.28423e-05   1.52357e-05 DIIS
   @RHF iter   7:  -470.97782319431781   -4.69492e-06   3.80526e-06 DIIS
   @RHF iter   8:  -470.97782389729656   -7.02979e-07   1.73983e-06 DIIS
   @RHF iter   9:  -470.97782401698561   -1.19689e-07   6.17522e-07 DIIS
   @RHF iter  10:  -470.97782403770219   -2.07166e-08   2.04304e-07 DIIS
   @RHF iter  11:  -470.97782403963095   -1.92875e-09   4.54150e-08 DIIS
   @RHF iter  12:  -470.97782403971883   -8.78799e-11   1.46042e-08 DIIS
   @RHF iter  13:  -470.97782403972337   -4.54747e-12   5.15323e-09 DIIS
   @RHF iter  14:  -470.97782403972792   -4.54747e-12   1.44094e-09 DIIS
   @RHF iter  15:  -470.97782403972695    9.66338e-13   7.16588e-10 DIIS
   @RHF iter  16:  -470.97782403972707   -1.13687e-13   2.42725e-10 DIIS
   @RHF iter  17:  -470.97782403972428    2.78533e-12   8.71096e-11 DIIS
  Energy and wave function converged.

  ==> Post-Iterations <==

    Orbital Energies [Eh]
    ---------------------

    Doubly Occupied:

       1A    -20.410908     2A    -20.392400     3A    -15.661590
       4A    -15.646405     5A    -15.619813     6A    -11.446414
       7A    -11.309140     8A    -11.253164     9A    -11.162213
      10A     -1.406563    11A     -1.294345    12A     -1.260558
      13A     -1.253209    14A     -1.177824    15A     -1.004707
      16A     -0.911970    17A     -0.900224    18A     -0.840998
      19A     -0.807126    20A     -0.724940    21A     -0.720992
      22A     -0.683208    23A     -0.656222    24A     -0.627117
      25A     -0.610159    26A     -0.592384    27A     -0.542261
      28A     -0.529492    29A     -0.527383    30A     -0.490260
      31A     -0.469020    32A     -0.439567    33A     -0.429845
      34A     -0.328803    35A     -0.307678    36A     -0.305642

    Virtual:

      37A      0.110363    38A      0.144413    39A      0.169971
      40A      0.184361    41A      0.201843    42A      0.224955
      43A      0.243307    44A      0.259092    45A      0.269622
      46A      0.286328    47A      0.315293    48A      0.319145
      49A      0.357213    50A      0.401913    51A      0.410624
      52A      0.458793    53A      0.470361    54A      0.477591
      55A      0.550099    56A      0.563336    57A      0.591318
      58A      0.618938    59A      0.655074    60A      0.661894
      61A      0.680198    62A      0.686926    63A      0.700410
      64A      0.703667    65A      0.712627    66A      0.760218
      67A      0.799043    68A      0.812084    69A      0.814958
      70A      0.836698    71A      0.847010    72A      0.849946
      73A      0.884390    74A      0.893420    75A      0.905543
      76A      0.921678    77A      0.924947    78A      0.930667
      79A      0.951181    80A      0.960893    81A      0.967665
      82A      1.008366    83A      1.022776    84A      1.044276
      85A      1.077613    86A      1.093061    87A      1.100268
      88A      1.147837    89A      1.196986    90A      1.226511
      91A      1.238076    92A      1.254116    93A      1.270701
      94A      1.298508    95A      1.313492    96A      1.323169
      97A      1.355079    98A      1.370700    99A      1.428386
     100A      1.446899   101A      1.462392   102A      1.464141
     103A      1.474952   104A      1.525262   105A      1.554097
     106A      1.588356   107A      1.602729   108A      1.630050
     109A      1.640022   110A      1.658982   111A      1.691746
     112A      1.721741   113A      1.736757   114A      1.757776
     115A      1.788069   116A      1.790630   117A      1.835370
     118A      1.840185   119A      1.863923   120A      1.877443
     121A      1.889569   122A      1.919802   123A      1.937485
     124A      1.947627   125A      1.968067   126A      1.971766
     127A      1.982579   128A      2.005806   129A      2.046657
     130A      2.058097   131A      2.094155   132A      2.135356
     133A      2.145903   134A      2.149910   135A      2.205043
     136A      2.230215   137A      2.253220   138A      2.289067
     139A      2.309449   140A      2.311777   141A      2.359004
     142A      2.389947   143A      2.416184   144A      2.432920
     145A      2.442324   146A      2.474646   147A      2.500139
     148A      2.540908   149A      2.550386   150A      2.581406
     151A      2.601418   152A      2.627264   153A      2.655937
     154A      2.695497   155A      2.709122   156A      2.719063
     157A      2.780226   158A      2.804973   159A      2.847015
     160A      2.873509   161A      2.885741   162A      2.894022
     163A      2.918373   164A      2.956589   165A      2.980305
     166A      3.080987   167A      3.107940   168A      3.123832
     169A      3.142669   170A      3.213092   171A      3.220664
     172A      3.247034   173A      3.325697   174A      3.513462
     175A      3.645511   176A      3.686038   177A      3.769745
     178A      3.815808   179A      3.936919   180A      3.967269
     181A      4.077502

    Final Occupation by Irrep:
              A
    DOCC [    36 ]

  @RHF Final Energy:  -470.97782403972428

   => Energetics <=

    Nuclear Repulsion Energy =            455.2207302781563953
    One-Electron Energy =               -1546.9080136465504438
    Two-Electron Energy =                 620.7094593286697091
    Total Energy =                       -470.9778240397242826

Computation Completed

Properties will be evaluated at   0.000000,   0.000000,   0.000000 [a0]

Properties computed using the SCF density matrix

  Nuclear Dipole Moment: [e a0]
     X:     0.9094      Y:     0.5912      Z:     7.3197

  Electronic Dipole Moment: [e a0]
     X:     3.5916      Y:     0.5769      Z:    -3.2404

  Dipole Moment: [e a0]
     X:     4.5010      Y:     1.1681      Z:     4.0793     Total:     6.1858

  Dipole Moment: [D]
     X:    11.4404      Y:     2.9690      Z:    10.3686     Total:    15.7228

*** tstop() called on ds3 at Mon Apr 27 16:07:54 2020
Module time:
	user time   =      44.08 seconds =       0.73 minutes
	system time =      20.65 seconds =       0.34 minutes
	total time  =         72 seconds =       1.20 minutes
Total time:
	user time   =      44.08 seconds =       0.73 minutes
	system time =      20.65 seconds =       0.34 minutes
	total time  =         72 seconds =       1.20 minutes
                                     G D M A

                                 by Anthony Stone

                           version 2.2.06, 22 June 2011

               Distributed Multipoles from Gaussian wavefunctions

Starting at 16:7:54 on 27 Apr 2020

Using SCF density matrix from file ./SSI/SSI-015ARG-020ASP-1-dimer.test.23163.fchk

                         Distributed Multipole Analysis

Standard DMA

Positions and radii in angstrom
Multipole moments in atomic units, ea_0^k for rank k

C          x =  0.006495  y =  1.705125  z =  2.054306 angstrom
           Maximum rank =  0   Radius =  0.650 angstrom
                   Q00  =  -0.097664

C          x =  1.806495  y =  0.462125  z =  0.893306 angstrom
           Maximum rank =  0   Radius =  0.650 angstrom
                   Q00  =   1.057769

N          x =  0.571495  y =  0.924125  z =  0.955306 angstrom
           Maximum rank =  0   Radius =  0.650 angstrom
                   Q00  =  -0.513968

N          x =  2.189495  y = -0.227875  z = -0.159694 angstrom
           Maximum rank =  0   Radius =  0.650 angstrom
                   Q00  =  -0.588515

N          x =  2.664495  y =  0.688125  z =  1.871306 angstrom
           Maximum rank =  0   Radius =  0.650 angstrom
                   Q00  =  -0.579625

H          x = -0.072505  y =  0.657125  z =  0.212306 angstrom
           Maximum rank =  0   Radius =  0.325 angstrom
                   Q00  =   0.348723

H          x = -0.414505  y =  2.610125  z =  1.612306 angstrom
           Maximum rank =  0   Radius =  0.325 angstrom
                   Q00  =   0.134898

H          x =  0.744495  y =  2.020125  z =  2.793306 angstrom
           Maximum rank =  0   Radius =  0.325 angstrom
                   Q00  =   0.068500

H          x =  1.530495  y = -0.383875  z = -0.908694 angstrom
           Maximum rank =  0   Radius =  0.325 angstrom
                   Q00  =   0.286800

H          x =  3.140495  y = -0.538875  z = -0.262694 angstrom
           Maximum rank =  0   Radius =  0.325 angstrom
                   Q00  =   0.236641

H          x =  2.366495  y =  1.188125  z =  2.689306 angstrom
           Maximum rank =  0   Radius =  0.325 angstrom
                   Q00  =   0.247022

H          x =  3.620495  y =  0.377125  z =  1.807306 angstrom
           Maximum rank =  0   Radius =  0.325 angstrom
                   Q00  =   0.239780

H          x = -0.812656  y =  1.156125  z =  2.541736 angstrom
           Maximum rank =  0   Radius =  0.325 angstrom
                   Q00  =   0.133326

C          x = -2.769505  y = -1.892875  z = -0.983694 angstrom
           Maximum rank =  0   Radius =  0.650 angstrom
                   Q00  =  -0.279461

C          x = -1.770505  y = -0.834875  z = -1.430694 angstrom
           Maximum rank =  0   Radius =  0.650 angstrom
                   Q00  =   0.941605

O          x = -1.442505  y =  0.066125  z = -0.630694 angstrom
           Maximum rank =  0   Radius =  0.650 angstrom
                   Q00  =  -0.991123

O          x = -1.324505  y = -0.897875  z = -2.597694 angstrom
           Maximum rank =  0   Radius =  0.650 angstrom
                   Q00  =  -0.893691

H          x = -2.791505  y = -2.710875  z = -1.706694 angstrom
           Maximum rank =  0   Radius =  0.325 angstrom
                   Q00  =   0.082427

H          x = -3.763505  y = -1.439875  z = -0.960694 angstrom
           Maximum rank =  0   Radius =  0.325 angstrom
                   Q00  =   0.101323

H          x = -2.546725  y = -2.296035  z =  0.015226 angstrom
           Maximum rank =  0   Radius =  0.325 angstrom
                   Q00  =   0.065232

Total multipoles referred to origin at
           x =   0.000000,  y =    0.000000,  z =    0.000000 angstrom
                   Q00  =  -0.000000

Finished at 16:7:54 on 27 Apr 2020

  DMA results are available in the Python driver through the
	  variable('DMA DISTRIBUTED MULTIPOLES')
  and
	  variable('DMA TOTAL MULTIPOLES')
  commands.

    Psi4 stopped on: Monday, 27 April 2020 04:07PM
    Psi4 wall time for execution: 0:01:11.48

*** Psi4 exiting successfully. Buy a developer a beer!
