                               Psi4 1.3.2 release

  ==> Input File <==

--------------------------------------------------------------------------
import numpy as np
set {scf_type pk
basis cc-pvdz
d_convergence 10
gdma_switch   0
gdma_limit    0
gdma_origin   [ 0.0,  0.0,  0.0 ]
}
molecule test {
    units Angstrom
    0 1
    --
    0 1
    C                2.402876064664747    -1.036650786704940     0.066840884353774
    C                1.018876064664747    -0.723650786704940    -0.471159115646226
    O                0.647876064664747     0.471349213295060    -0.477159115646226
    O                0.304876064664747    -1.647650786704940    -0.908159115646226
    H                2.412876064664747    -1.084650786704940     1.132840884353775
    H                3.063876064664747    -0.223650786704940    -0.225159115646226
    H                2.813356064664748    -1.967130786704940    -0.352345115646226
    C               -2.502123935335253     1.905349213295060     0.547840884353775
    N               -1.592123935335253     0.857349213295060     1.072840884353775
    H               -2.068123935335253    -0.016650786704940     1.282840884353775
    H               -0.862123935335252     0.633349213295060     0.393840884353774
    H               -1.127123935335253     1.159349213295060     1.921840884353775
    H               -3.091123935335252     1.505349213295060    -0.284159115646226
    H               -1.911123935335253     2.745349213295060     0.170840884353774
    H               -3.179683935335253     2.278078213295061     1.330137884353774

}
e, wfn = energy('scf', return_wfn=True)
gdma(wfn)
dmavals = variable('DMA DISTRIBUTED MULTIPOLES')
charges = np.array(dmavals)
print(charges)
np.save('SSI-110GLU-129LYS-1-dimer.npy', np.array(charges))--------------------------------------------------------------------------

*** tstart() called on ds3
*** at Tue Apr 28 21:42:15 2020

   => Loading Basis Set <=

    Name: CC-PVDZ
    Role: ORBITAL
    Keyword: BASIS
    atoms 1-2, 8     entry C          line   138 file /theoryfs2/ds/metcalf/miniconda2/envs/tf2gpu/share/psi4/basis/cc-pvdz.gbs
    atoms 3-4        entry O          line   198 file /theoryfs2/ds/metcalf/miniconda2/envs/tf2gpu/share/psi4/basis/cc-pvdz.gbs
    atoms 5-7, 10-15 entry H          line    22 file /theoryfs2/ds/metcalf/miniconda2/envs/tf2gpu/share/psi4/basis/cc-pvdz.gbs
    atoms 9          entry N          line   168 file /theoryfs2/ds/metcalf/miniconda2/envs/tf2gpu/share/psi4/basis/cc-pvdz.gbs

         ---------------------------------------------------------
                                   SCF
               by Justin Turney, Rob Parrish, Andy Simmonett
                          and Daniel G. A. Smith
                              RHF Reference
                        1 Threads,    500 MiB Core
         ---------------------------------------------------------

  ==> Geometry <==

    Molecular point group: c1
    Full point group: C1

    Geometry (in Angstrom), charge = 0, multiplicity = 1:

       Center              X                  Y                   Z               Mass
    ------------   -----------------  -----------------  -----------------  -----------------
         C            2.402876064665    -1.036650786705     0.066840884354    12.000000000000
         C            1.018876064665    -0.723650786705    -0.471159115646    12.000000000000
         O            0.647876064665     0.471349213295    -0.477159115646    15.994914619570
         O            0.304876064665    -1.647650786705    -0.908159115646    15.994914619570
         H            2.412876064665    -1.084650786705     1.132840884354     1.007825032230
         H            3.063876064665    -0.223650786705    -0.225159115646     1.007825032230
         H            2.813356064665    -1.967130786705    -0.352345115646     1.007825032230
         C           -2.502123935335     1.905349213295     0.547840884354    12.000000000000
         N           -1.592123935335     0.857349213295     1.072840884354    14.003074004430
         H           -2.068123935335    -0.016650786705     1.282840884354     1.007825032230
         H           -0.862123935335     0.633349213295     0.393840884354     1.007825032230
         H           -1.127123935335     1.159349213295     1.921840884354     1.007825032230
         H           -3.091123935335     1.505349213295    -0.284159115646     1.007825032230
         H           -1.911123935335     2.745349213295     0.170840884354     1.007825032230
         H           -3.179683935335     2.278078213295     1.330137884354     1.007825032230

  Running in c1 symmetry.

  Rotational constants: A =      0.24339  B =      0.04239  C =      0.04006 [cm^-1]
  Rotational constants: A =   7296.57712  B =   1270.71611  C =   1200.91674 [MHz]
  Nuclear repulsion =  239.841796260526365

  Charge       = 0
  Multiplicity = 1
  Electrons    = 50
  Nalpha       = 25
  Nbeta        = 25

  ==> Algorithm <==

  SCF Algorithm Type is PK.
  DIIS enabled.
  MOM disabled.
  Fractional occupation disabled.
  Guess Type is SAD.
  Energy threshold   = 1.00e-06
  Density threshold  = 1.00e-10
  Integral threshold = 0.00e+00

  ==> Primary Basis <==

  Basis Set: CC-PVDZ
    Blend: CC-PVDZ
    Number of shells: 63
    Number of basis function: 129
    Number of Cartesian functions: 135
    Spherical Harmonics?: true
    Max angular momentum: 2

  ==> Pre-Iterations <==

   -------------------------------------------------------
    Irrep   Nso     Nmo     Nalpha   Nbeta   Ndocc  Nsocc
   -------------------------------------------------------
     A        129     129       0       0       0       0
   -------------------------------------------------------
    Total     129     129      25      25      25       0
   -------------------------------------------------------

  ==> Integral Setup <==

  Using integral reordering PK algorithm.
  Sizing the integral batches needed.
  Building batch lookup table.
   Calculation information:
      Number of atoms:                  15
      Number of AO shells:              63
      Number of primitives:            177
      Number of atomic orbitals:       135
      Number of basis functions:       129

      Integral cutoff                 1.00e-12
      Number of threads:                 1

	Batch   1 pq = [       0,    8385] index = [             0,35158305] size =     35158305
  Task number: 4
  Buffer size: 11059200
  Buffer per thread: 2
  We computed 1699481 shell quartets total.
  Whereas there are 2033136 unique shell quartets.

  ==> DiskJK: Disk-Based J/K Matrices <==

    J tasked:                  Yes
    K tasked:                  Yes
    wK tasked:                  No
    Memory [MiB]:              375
    Schwarz Cutoff:          1E-12

    OpenMP threads:              1

  Minimum eigenvalue in the overlap matrix is 5.3524626604E-03.
  Using Symmetric Orthogonalization.

  SCF Guess: Superposition of Atomic Densities via on-the-fly atomic UHF.

  ==> Iterations <==

                        Total Energy        Delta E     RMS |[F,P]|

   @RHF iter SAD:  -321.78043044603658   -3.21780e+02   0.00000e+00
   @RHF iter   1:  -322.78656370247120   -1.00613e+00   5.22644e-03 DIIS
   @RHF iter   2:  -322.95612244542190   -1.69559e-01   2.89900e-03 DIIS
   @RHF iter   3:  -323.00532654637578   -4.92041e-02   4.80418e-04 DIIS
   @RHF iter   4:  -323.00786959691686   -2.54305e-03   1.68986e-04 DIIS
   @RHF iter   5:  -323.00817857512851   -3.08978e-04   3.69647e-05 DIIS
   @RHF iter   6:  -323.00819616693042   -1.75918e-05   1.97533e-05 DIIS
   @RHF iter   7:  -323.00820003647448   -3.86954e-06   4.62410e-06 DIIS
   @RHF iter   8:  -323.00820069029874   -6.53824e-07   2.04360e-06 DIIS
   @RHF iter   9:  -323.00820080930208   -1.19003e-07   5.37748e-07 DIIS
   @RHF iter  10:  -323.00820081637914   -7.07706e-09   1.70684e-07 DIIS
   @RHF iter  11:  -323.00820081683901   -4.59863e-10   4.01655e-08 DIIS
   @RHF iter  12:  -323.00820081687118   -3.21734e-11   1.11112e-08 DIIS
   @RHF iter  13:  -323.00820081687465   -3.46745e-12   4.54221e-09 DIIS
   @RHF iter  14:  -323.00820081687499   -3.41061e-13   2.06127e-09 DIIS
   @RHF iter  15:  -323.00820081687573   -7.38964e-13   8.43432e-10 DIIS
   @RHF iter  16:  -323.00820081687704   -1.30740e-12   3.51184e-10 DIIS
   @RHF iter  17:  -323.00820081687618    8.52651e-13   1.14968e-10 DIIS
   @RHF iter  18:  -323.00820081687590    2.84217e-13   4.51796e-11 DIIS
  Energy and wave function converged.

  ==> Post-Iterations <==

    Orbital Energies [Eh]
    ---------------------

    Doubly Occupied:

       1A    -20.430526     2A    -20.410956     3A    -15.726341
       4A    -11.348144     5A    -11.268283     6A    -11.171567
       7A     -1.353375     8A     -1.313838     9A     -1.196906
      10A     -1.017500    11A     -0.929157    12A     -0.811787
      13A     -0.803781    14A     -0.709526    15A     -0.650915
      16A     -0.622947    17A     -0.619100    18A     -0.561256
      19A     -0.546964    20A     -0.546294    21A     -0.480911
      22A     -0.457760    23A     -0.348011    24A     -0.325250
      25A     -0.324945

    Virtual:

      26A      0.102049    27A      0.156791    28A      0.165056
      29A      0.200575    30A      0.218720    31A      0.241695
      32A      0.272081    33A      0.278552    34A      0.310019
      35A      0.337802    36A      0.373039    37A      0.451498
      38A      0.511155    39A      0.516110    40A      0.549225
      41A      0.574155    42A      0.623194    43A      0.667958
      44A      0.694278    45A      0.711788    46A      0.741163
      47A      0.775797    48A      0.795301    49A      0.803464
      50A      0.824530    51A      0.833984    52A      0.867612
      53A      0.898212    54A      0.908400    55A      0.921758
      56A      0.932868    57A      0.962259    58A      0.976259
      59A      0.990238    60A      1.011522    61A      1.068085
      62A      1.078489    63A      1.088647    64A      1.184553
      65A      1.213293    66A      1.219954    67A      1.332488
      68A      1.386759    69A      1.420229    70A      1.429077
      71A      1.438858    72A      1.456917    73A      1.475246
      74A      1.518885    75A      1.590811    76A      1.599368
      77A      1.609868    78A      1.692674    79A      1.706456
      80A      1.732730    81A      1.777719    82A      1.818116
      83A      1.827073    84A      1.860942    85A      1.874343
      86A      1.899496    87A      1.923245    88A      1.963639
      89A      1.971970    90A      2.022553    91A      2.075205
      92A      2.077393    93A      2.101180    94A      2.102416
      95A      2.105001    96A      2.121603    97A      2.168387
      98A      2.246830    99A      2.279919   100A      2.295300
     101A      2.327513   102A      2.388300   103A      2.395239
     104A      2.454279   105A      2.533476   106A      2.581218
     107A      2.601138   108A      2.622059   109A      2.646846
     110A      2.658472   111A      2.675770   112A      2.808542
     113A      2.850038   114A      2.873683   115A      2.885563
     116A      2.892077   117A      2.911017   118A      3.100824
     119A      3.122487   120A      3.156931   121A      3.204692
     122A      3.258374   123A      3.415843   124A      3.493075
     125A      3.631042   126A      3.678233   127A      3.926184
     128A      3.928833   129A      4.048989

    Final Occupation by Irrep:
              A
    DOCC [    25 ]

  @RHF Final Energy:  -323.00820081687590

   => Energetics <=

    Nuclear Repulsion Energy =            239.8417962605263654
    One-Electron Energy =                -917.7479170194765175
    Two-Electron Energy =                 354.8979199420742248
    Total Energy =                       -323.0082008168758989

Computation Completed

Properties will be evaluated at   0.000000,   0.000000,   0.000000 [a0]

Properties computed using the SCF density matrix

  Nuclear Dipole Moment: [e a0]
     X:    -3.6930      Y:     4.7068      Z:     5.0251

  Electronic Dipole Moment: [e a0]
     X:     0.7477      Y:    -2.3941      Z:    -2.2005

  Dipole Moment: [e a0]
     X:    -2.9453      Y:     2.3126      Z:     2.8246     Total:     4.6906

  Dipole Moment: [D]
     X:    -7.4862      Y:     5.8781      Z:     7.1793     Total:    11.9222

*** tstop() called on ds3 at Tue Apr 28 21:42:33 2020
Module time:
	user time   =      12.75 seconds =       0.21 minutes
	system time =       5.63 seconds =       0.09 minutes
	total time  =         18 seconds =       0.30 minutes
Total time:
	user time   =      12.75 seconds =       0.21 minutes
	system time =       5.63 seconds =       0.09 minutes
	total time  =         18 seconds =       0.30 minutes
                                     G D M A

                                 by Anthony Stone

                           version 2.2.06, 22 June 2011

               Distributed Multipoles from Gaussian wavefunctions

Starting at 21:42:33 on 28 Apr 2020

Using SCF density matrix from file ./SSI/SSI-110GLU-129LYS-1-dimer.test.26640.fchk

                         Distributed Multipole Analysis

Standard DMA

Positions and radii in angstrom
Multipole moments in atomic units, ea_0^k for rank k

C          x =  2.402876  y = -1.036651  z =  0.066841 angstrom
           Maximum rank =  0   Radius =  0.650 angstrom
                   Q00  =  -0.281171

C          x =  1.018876  y = -0.723651  z = -0.471159 angstrom
           Maximum rank =  0   Radius =  0.650 angstrom
                   Q00  =   0.915320

O          x =  0.647876  y =  0.471349  z = -0.477159 angstrom
           Maximum rank =  0   Radius =  0.650 angstrom
                   Q00  =  -0.982336

O          x =  0.304876  y = -1.647651  z = -0.908159 angstrom
           Maximum rank =  0   Radius =  0.650 angstrom
                   Q00  =  -0.880909

H          x =  2.412876  y = -1.084651  z =  1.132841 angstrom
           Maximum rank =  0   Radius =  0.325 angstrom
                   Q00  =   0.087677

H          x =  3.063876  y = -0.223651  z = -0.225159 angstrom
           Maximum rank =  0   Radius =  0.325 angstrom
                   Q00  =   0.083531

H          x =  2.813356  y = -1.967131  z = -0.352345 angstrom
           Maximum rank =  0   Radius =  0.325 angstrom
                   Q00  =   0.090749

C          x = -2.502124  y =  1.905349  z =  0.547841 angstrom
           Maximum rank =  0   Radius =  0.650 angstrom
                   Q00  =  -0.140936

N          x = -1.592124  y =  0.857349  z =  1.072841 angstrom
           Maximum rank =  0   Radius =  0.650 angstrom
                   Q00  =  -0.121058

H          x = -2.068124  y = -0.016651  z =  1.282841 angstrom
           Maximum rank =  0   Radius =  0.325 angstrom
                   Q00  =   0.231596

H          x = -0.862124  y =  0.633349  z =  0.393841 angstrom
           Maximum rank =  0   Radius =  0.325 angstrom
                   Q00  =   0.343693

H          x = -1.127124  y =  1.159349  z =  1.921841 angstrom
           Maximum rank =  0   Radius =  0.325 angstrom
                   Q00  =   0.224315

H          x = -3.091124  y =  1.505349  z = -0.284159 angstrom
           Maximum rank =  0   Radius =  0.325 angstrom
                   Q00  =   0.151577

H          x = -1.911124  y =  2.745349  z =  0.170841 angstrom
           Maximum rank =  0   Radius =  0.325 angstrom
                   Q00  =   0.155174

H          x = -3.179684  y =  2.278078  z =  1.330138 angstrom
           Maximum rank =  0   Radius =  0.325 angstrom
                   Q00  =   0.122777

Total multipoles referred to origin at
           x =   0.000000,  y =    0.000000,  z =    0.000000 angstrom
                   Q00  =  -0.000000

Finished at 21:42:33 on 28 Apr 2020

  DMA results are available in the Python driver through the
	  variable('DMA DISTRIBUTED MULTIPOLES')
  and
	  variable('DMA TOTAL MULTIPOLES')
  commands.

    Psi4 stopped on: Tuesday, 28 April 2020 09:42PM
    Psi4 wall time for execution: 0:00:18.16

*** Psi4 exiting successfully. Buy a developer a beer!
