                               Psi4 1.3.2 release

  ==> Input File <==

--------------------------------------------------------------------------
import numpy as np
set {scf_type pk
basis cc-pvdz
d_convergence 10
gdma_switch   0
gdma_limit    0
gdma_origin   [ 0.0,  0.0,  0.0 ]
}
molecule test {
    units Angstrom
    -1 1
    --
    -1 1
    C               -0.422922695879757    -2.705141631147725     2.722626576762194
    C               -1.746922695879757     0.003858368852275     0.355626576762195
    C               -2.453922695879756     0.809858368852275     1.261626576762194
    C               -1.059922695879757    -1.132141631147725     0.852626576762195
    C               -1.107922695879757    -1.462141631147726     2.211626576762194
    C               -2.494922695879756     0.467858368852275     2.608626576762194
    C               -1.834922695879757    -0.648141631147725     3.090626576762194
    H               -1.713922695879757     0.254858368852275    -0.696373423237805
    H               -2.974922695879756     1.689858368852275     0.909626576762195
    H               -0.505922695879757    -1.758141631147725     0.165626576762195
    H               -3.054922695879756     1.090858368852275     3.293626576762194
    H               -0.062922695879757    -2.519141631147725     3.734626576762194
    H                0.441077304120243    -2.903141631147725     2.094626576762194
    H               -1.894922695879756    -0.897141631147725     4.142626576762194
    H               -1.087561695879756    -3.581481631147725     2.739186576762194
    C                1.318077304120243     0.864858368852275    -1.542373423237806
    C                2.380077304120244     1.273858368852274    -0.485373423237805
    C                1.904077304120243     0.779858368852275    -2.926373423237806
    O                2.668077304120244     1.709858368852274    -3.294373423237805
    O                1.571077304120243    -0.217141631147725    -3.629373423237805
    H                0.888077304120243    -0.097141631147725    -1.253373423237806
    H                0.514077304120243     1.600858368852274    -1.572373423237805
    H                2.814077304120244     2.216858368852275    -0.819373423237805
    H                3.174343304120244     0.522388368852275    -0.365253423237805
    H                1.901475304120243     1.496198368852274     0.479776576762195

}
e, wfn = energy('scf', return_wfn=True)
gdma(wfn)
dmavals = variable('DMA DISTRIBUTED MULTIPOLES')
charges = np.array(dmavals)
print(charges)
np.save('SSI-032PHE-058ASP-1-dimer.npy', np.array(charges))--------------------------------------------------------------------------

*** tstart() called on ds3
*** at Mon Apr 27 07:29:53 2020

   => Loading Basis Set <=

    Name: CC-PVDZ
    Role: ORBITAL
    Keyword: BASIS
    atoms 1-7, 16-18  entry C          line   138 file /theoryfs2/ds/metcalf/miniconda2/envs/tf2gpu/share/psi4/basis/cc-pvdz.gbs
    atoms 8-15, 21-25 entry H          line    22 file /theoryfs2/ds/metcalf/miniconda2/envs/tf2gpu/share/psi4/basis/cc-pvdz.gbs
    atoms 19-20       entry O          line   198 file /theoryfs2/ds/metcalf/miniconda2/envs/tf2gpu/share/psi4/basis/cc-pvdz.gbs

         ---------------------------------------------------------
                                   SCF
               by Justin Turney, Rob Parrish, Andy Simmonett
                          and Daniel G. A. Smith
                              RHF Reference
                        1 Threads,    500 MiB Core
         ---------------------------------------------------------

  ==> Geometry <==

    Molecular point group: c1
    Full point group: C1

    Geometry (in Angstrom), charge = -1, multiplicity = 1:

       Center              X                  Y                   Z               Mass
    ------------   -----------------  -----------------  -----------------  -----------------
         C           -0.422922695880    -2.705141631148     2.722626576762    12.000000000000
         C           -1.746922695880     0.003858368852     0.355626576762    12.000000000000
         C           -2.453922695880     0.809858368852     1.261626576762    12.000000000000
         C           -1.059922695880    -1.132141631148     0.852626576762    12.000000000000
         C           -1.107922695880    -1.462141631148     2.211626576762    12.000000000000
         C           -2.494922695880     0.467858368852     2.608626576762    12.000000000000
         C           -1.834922695880    -0.648141631148     3.090626576762    12.000000000000
         H           -1.713922695880     0.254858368852    -0.696373423238     1.007825032230
         H           -2.974922695880     1.689858368852     0.909626576762     1.007825032230
         H           -0.505922695880    -1.758141631148     0.165626576762     1.007825032230
         H           -3.054922695880     1.090858368852     3.293626576762     1.007825032230
         H           -0.062922695880    -2.519141631148     3.734626576762     1.007825032230
         H            0.441077304120    -2.903141631148     2.094626576762     1.007825032230
         H           -1.894922695880    -0.897141631148     4.142626576762     1.007825032230
         H           -1.087561695880    -3.581481631148     2.739186576762     1.007825032230
         C            1.318077304120     0.864858368852    -1.542373423238    12.000000000000
         C            2.380077304120     1.273858368852    -0.485373423238    12.000000000000
         C            1.904077304120     0.779858368852    -2.926373423238    12.000000000000
         O            2.668077304120     1.709858368852    -3.294373423238    15.994914619570
         O            1.571077304120    -0.217141631148    -3.629373423238    15.994914619570
         H            0.888077304120    -0.097141631148    -1.253373423238     1.007825032230
         H            0.514077304120     1.600858368852    -1.572373423238     1.007825032230
         H            2.814077304120     2.216858368852    -0.819373423238     1.007825032230
         H            3.174343304120     0.522388368852    -0.365253423238     1.007825032230
         H            1.901475304120     1.496198368852     0.479776576762     1.007825032230

  Running in c1 symmetry.

  Rotational constants: A =      0.05297  B =      0.01046  C =      0.00991 [cm^-1]
  Rotational constants: A =   1587.96546  B =    313.70988  C =    296.99027 [MHz]
  Nuclear repulsion =  616.187401509802953

  Charge       = -1
  Multiplicity = 1
  Electrons    = 90
  Nalpha       = 45
  Nbeta        = 45

  ==> Algorithm <==

  SCF Algorithm Type is PK.
  DIIS enabled.
  MOM disabled.
  Fractional occupation disabled.
  Guess Type is SAD.
  Energy threshold   = 1.00e-06
  Density threshold  = 1.00e-10
  Integral threshold = 0.00e+00

  ==> Primary Basis <==

  Basis Set: CC-PVDZ
    Blend: CC-PVDZ
    Number of shells: 111
    Number of basis function: 233
    Number of Cartesian functions: 245
    Spherical Harmonics?: true
    Max angular momentum: 2

  ==> Pre-Iterations <==

   -------------------------------------------------------
    Irrep   Nso     Nmo     Nalpha   Nbeta   Ndocc  Nsocc
   -------------------------------------------------------
     A        233     233       0       0       0       0
   -------------------------------------------------------
    Total     233     233      45      45      45       0
   -------------------------------------------------------

  ==> Integral Setup <==

  Using integral reordering PK algorithm.
  Sizing the integral batches needed.
  Building batch lookup table.
   Calculation information:
      Number of atoms:                  25
      Number of AO shells:             111
      Number of primitives:            329
      Number of atomic orbitals:       245
      Number of basis functions:       233

      Integral cutoff                 1.00e-12
      Number of threads:                 1

	Batch   1 pq = [       0,    9405] index = [             0,44231715] size =     44231715
	Batch   2 pq = [    9405,   13301] index = [      44231715,88464951] size =     44233236
	Batch   3 pq = [   13301,   16290] index = [      88464951,132690195] size =     44225244
	Batch   4 pq = [   16290,   18810] index = [     132690195,176917455] size =     44227260
	Batch   5 pq = [   18810,   21030] index = [     176917455,221140965] size =     44223510
	Batch   6 pq = [   21030,   23037] index = [     221140965,265363203] size =     44222238
	Batch   7 pq = [   23037,   24883] index = [     265363203,309594286] size =     44231083
	Batch   8 pq = [   24883,   26601] index = [     309594286,353819901] size =     44225615
	Batch   9 pq = [   26601,   27261] index = [     353819901,371594691] size =     17774790
  Task number: 34
  Buffer size: 11059200
  Buffer per thread: 2
  We computed 16078685 shell quartets total.
  Whereas there are 19322436 unique shell quartets.

  ==> DiskJK: Disk-Based J/K Matrices <==

    J tasked:                  Yes
    K tasked:                  Yes
    wK tasked:                  No
    Memory [MiB]:              375
    Schwarz Cutoff:          1E-12

    OpenMP threads:              1

  Minimum eigenvalue in the overlap matrix is 3.2603234835E-04.
  Using Symmetric Orthogonalization.

  SCF Guess: Superposition of Atomic Densities via on-the-fly atomic UHF.

  ==> Iterations <==

                        Total Energy        Delta E     RMS |[F,P]|

   @RHF iter SAD:  -534.23908066769002   -5.34239e+02   0.00000e+00
   @RHF iter   1:  -535.68571989458610   -1.44664e+00   3.42126e-03 DIIS
   @RHF iter   2:  -535.96199879797018   -2.76279e-01   1.82692e-03 DIIS
   @RHF iter   3:  -536.03189685608515   -6.98981e-02   3.22858e-04 DIIS
   @RHF iter   4:  -536.03573634749910   -3.83949e-03   1.20841e-04 DIIS
   @RHF iter   5:  -536.03623452620900   -4.98179e-04   1.82194e-05 DIIS
   @RHF iter   6:  -536.03625097513395   -1.64489e-05   5.04826e-06 DIIS
   @RHF iter   7:  -536.03625226299448   -1.28786e-06   1.71312e-06 DIIS
   @RHF iter   8:  -536.03625242319174   -1.60197e-07   5.97173e-07 DIIS
   @RHF iter   9:  -536.03625245238902   -2.91973e-08   3.01876e-07 DIIS
   @RHF iter  10:  -536.03625246185891   -9.46989e-09   1.11199e-07 DIIS
   @RHF iter  11:  -536.03625246442527   -2.56637e-09   4.68572e-08 DIIS
   @RHF iter  12:  -536.03625246479749   -3.72211e-10   2.10273e-08 DIIS
   @RHF iter  13:  -536.03625246485160   -5.41149e-11   7.16366e-09 DIIS
   @RHF iter  14:  -536.03625246485387   -2.27374e-12   2.53854e-09 DIIS
   @RHF iter  15:  -536.03625246485171    2.16005e-12   7.47183e-10 DIIS
   @RHF iter  16:  -536.03625246485126    4.54747e-13   3.36188e-10 DIIS
   @RHF iter  17:  -536.03625246485285   -1.59162e-12   1.32720e-10 DIIS
   @RHF iter  18:  -536.03625246485103    1.81899e-12   5.23604e-11 DIIS
  Energy and wave function converged.

  ==> Post-Iterations <==

    Orbital Energies [Eh]
    ---------------------

    Doubly Occupied:

       1A    -20.259904     2A    -20.257139     3A    -11.163835
       4A    -11.157935     5A    -11.156799     6A    -11.156294
       7A    -11.154493     8A    -11.152984     9A    -11.150603
      10A    -11.112068    11A    -11.071581    12A    -11.051098
      13A     -1.139372    14A     -1.069482    15A     -1.031808
      16A     -0.965241    17A     -0.928468    18A     -0.862509
      19A     -0.854221    20A     -0.743965    21A     -0.714645
      22A     -0.702722    23A     -0.609999    24A     -0.551160
      25A     -0.550325    26A     -0.507465    27A     -0.504125
      28A     -0.498497    29A     -0.483726    30A     -0.460759
      31A     -0.452194    32A     -0.424478    33A     -0.406651
      34A     -0.405517    35A     -0.400475    36A     -0.382604
      37A     -0.365744    38A     -0.355667    39A     -0.315638
      40A     -0.293498    41A     -0.249143    42A     -0.242626
      43A     -0.177012    44A     -0.171662    45A     -0.158919

    Virtual:

      46A      0.213614    47A      0.218949    48A      0.257498
      49A      0.275569    50A      0.298575    51A      0.318185
      52A      0.326574    53A      0.338359    54A      0.343071
      55A      0.355067    56A      0.365706    57A      0.398791
      58A      0.410932    59A      0.424418    60A      0.431622
      61A      0.443929    62A      0.463760    63A      0.497472
      64A      0.531323    65A      0.541685    66A      0.550789
      67A      0.559963    68A      0.576061    69A      0.602627
      70A      0.645235    71A      0.675352    72A      0.688316
      73A      0.717033    74A      0.723885    75A      0.751584
      76A      0.758372    77A      0.762756    78A      0.776329
      79A      0.793828    80A      0.797030    81A      0.816439
      82A      0.819456    83A      0.824230    84A      0.836623
      85A      0.843662    86A      0.852652    87A      0.860794
      88A      0.886159    89A      0.922535    90A      0.929513
      91A      0.939021    92A      0.945838    93A      0.950398
      94A      0.970174    95A      0.975938    96A      0.978806
      97A      0.991633    98A      1.002503    99A      1.010452
     100A      1.013471   101A      1.027587   102A      1.038689
     103A      1.047258   104A      1.053056   105A      1.057937
     106A      1.064260   107A      1.076805   108A      1.092480
     109A      1.103646   110A      1.114825   111A      1.145007
     112A      1.165892   113A      1.201900   114A      1.211266
     115A      1.222077   116A      1.239441   117A      1.251492
     118A      1.272038   119A      1.300064   120A      1.312229
     121A      1.320893   122A      1.324097   123A      1.329498
     124A      1.341340   125A      1.373827   126A      1.385094
     127A      1.389808   128A      1.393334   129A      1.402084
     130A      1.482760   131A      1.493855   132A      1.529177
     133A      1.554492   134A      1.582627   135A      1.596520
     136A      1.601098   137A      1.619760   138A      1.636955
     139A      1.655858   140A      1.670798   141A      1.681226
     142A      1.704568   143A      1.751170   144A      1.768435
     145A      1.776316   146A      1.812002   147A      1.821159
     148A      1.837747   149A      1.844682   150A      1.864167
     151A      1.881155   152A      1.888779   153A      1.932009
     154A      1.940402   155A      1.963504   156A      1.975954
     157A      1.986233   158A      1.990721   159A      2.000068
     160A      2.016084   161A      2.019547   162A      2.037247
     163A      2.044067   164A      2.053496   165A      2.064752
     166A      2.068627   167A      2.075622   168A      2.099090
     169A      2.108675   170A      2.124637   171A      2.136660
     172A      2.142517   173A      2.148680   174A      2.156316
     175A      2.179324   176A      2.185847   177A      2.215148
     178A      2.219803   179A      2.227741   180A      2.246911
     181A      2.250717   182A      2.261924   183A      2.284563
     184A      2.342045   185A      2.355013   186A      2.361174
     187A      2.368044   188A      2.371873   189A      2.387682
     190A      2.395724   191A      2.409044   192A      2.466781
     193A      2.487862   194A      2.538326   195A      2.542193
     196A      2.553612   197A      2.566557   198A      2.609035
     199A      2.613645   200A      2.664210   201A      2.694221
     202A      2.711365   203A      2.753353   204A      2.797140
     205A      2.819329   206A      2.824842   207A      2.844636
     208A      2.857532   209A      2.887229   210A      2.910141
     211A      2.917778   212A      2.944240   213A      2.983931
     214A      3.022109   215A      3.044377   216A      3.044680
     217A      3.080110   218A      3.093738   219A      3.140310
     220A      3.218911   221A      3.252605   222A      3.268833
     223A      3.285230   224A      3.303482   225A      3.361682
     226A      3.363531   227A      3.612776   228A      3.800267
     229A      3.832266   230A      4.023034   231A      4.027160
     232A      4.086446   233A      4.179621

    Final Occupation by Irrep:
              A
    DOCC [    45 ]

  @RHF Final Energy:  -536.03625246485103

   => Energetics <=

    Nuclear Repulsion Energy =            616.1874015098029531
    One-Electron Energy =               -1964.7972134801343600
    Two-Electron Energy =                 812.5735595054804890
    Total Energy =                       -536.0362524648510316

Computation Completed

Properties will be evaluated at   0.000000,   0.000000,   0.000000 [a0]

Properties computed using the SCF density matrix

  Nuclear Dipole Moment: [e a0]
     X:    -1.4439      Y:    -2.6968      Z:    12.0160

  Electronic Dipole Moment: [e a0]
     X:    -2.4548      Y:     1.2594      Z:    -5.8555

  Dipole Moment: [e a0]
     X:    -3.8987      Y:    -1.4374      Z:     6.1605     Total:     7.4309

  Dipole Moment: [D]
     X:    -9.9095      Y:    -3.6534      Z:    15.6584     Total:    18.8874

*** tstop() called on ds3 at Mon Apr 27 07:33:52 2020
Module time:
	user time   =     128.17 seconds =       2.14 minutes
	system time =      58.48 seconds =       0.97 minutes
	total time  =        239 seconds =       3.98 minutes
Total time:
	user time   =     128.17 seconds =       2.14 minutes
	system time =      58.48 seconds =       0.97 minutes
	total time  =        239 seconds =       3.98 minutes
                                     G D M A

                                 by Anthony Stone

                           version 2.2.06, 22 June 2011

               Distributed Multipoles from Gaussian wavefunctions

Starting at 7:33:52 on 27 Apr 2020

Using SCF density matrix from file ./SSI/SSI-032PHE-058ASP-1-dimer.test.20703.fchk

                         Distributed Multipole Analysis

Standard DMA

Positions and radii in angstrom
Multipole moments in atomic units, ea_0^k for rank k

C          x = -0.422923  y = -2.705142  z =  2.722627 angstrom
           Maximum rank =  0   Radius =  0.650 angstrom
                   Q00  =  -0.200055

C          x = -1.746923  y =  0.003858  z =  0.355627 angstrom
           Maximum rank =  0   Radius =  0.650 angstrom
                   Q00  =  -0.058241

C          x = -2.453923  y =  0.809858  z =  1.261627 angstrom
           Maximum rank =  0   Radius =  0.650 angstrom
                   Q00  =  -0.103539

C          x = -1.059923  y = -1.132142  z =  0.852627 angstrom
           Maximum rank =  0   Radius =  0.650 angstrom
                   Q00  =  -0.064588

C          x = -1.107923  y = -1.462142  z =  2.211627 angstrom
           Maximum rank =  0   Radius =  0.650 angstrom
                   Q00  =  -0.108117

C          x = -2.494923  y =  0.467858  z =  2.608627 angstrom
           Maximum rank =  0   Radius =  0.650 angstrom
                   Q00  =   0.025383

C          x = -1.834923  y = -0.648142  z =  3.090627 angstrom
           Maximum rank =  0   Radius =  0.650 angstrom
                   Q00  =  -0.094157

H          x = -1.713923  y =  0.254858  z = -0.696373 angstrom
           Maximum rank =  0   Radius =  0.325 angstrom
                   Q00  =   0.097006

H          x = -2.974923  y =  1.689858  z =  0.909627 angstrom
           Maximum rank =  0   Radius =  0.325 angstrom
                   Q00  =   0.055231

H          x = -0.505923  y = -1.758142  z =  0.165627 angstrom
           Maximum rank =  0   Radius =  0.325 angstrom
                   Q00  =   0.075996

H          x = -3.054923  y =  1.090858  z =  3.293627 angstrom
           Maximum rank =  0   Radius =  0.325 angstrom
                   Q00  =   0.045642

H          x = -0.062923  y = -2.519142  z =  3.734627 angstrom
           Maximum rank =  0   Radius =  0.325 angstrom
                   Q00  =   0.087941

H          x =  0.441077  y = -2.903142  z =  2.094627 angstrom
           Maximum rank =  0   Radius =  0.325 angstrom
                   Q00  =   0.108689

H          x = -1.894923  y = -0.897142  z =  4.142627 angstrom
           Maximum rank =  0   Radius =  0.325 angstrom
                   Q00  =   0.041836

H          x = -1.087562  y = -3.581482  z =  2.739187 angstrom
           Maximum rank =  0   Radius =  0.325 angstrom
                   Q00  =   0.093822

C          x =  1.318077  y =  0.864858  z = -1.542373 angstrom
           Maximum rank =  0   Radius =  0.650 angstrom
                   Q00  =  -0.117621

C          x =  2.380077  y =  1.273858  z = -0.485373 angstrom
           Maximum rank =  0   Radius =  0.650 angstrom
                   Q00  =  -0.219416

C          x =  1.904077  y =  0.779858  z = -2.926373 angstrom
           Maximum rank =  0   Radius =  0.650 angstrom
                   Q00  =   0.994463

O          x =  2.668077  y =  1.709858  z = -3.294373 angstrom
           Maximum rank =  0   Radius =  0.650 angstrom
                   Q00  =  -0.949254

O          x =  1.571077  y = -0.217142  z = -3.629373 angstrom
           Maximum rank =  0   Radius =  0.650 angstrom
                   Q00  =  -0.944378

H          x =  0.888077  y = -0.097142  z = -1.253373 angstrom
           Maximum rank =  0   Radius =  0.325 angstrom
                   Q00  =   0.005769

H          x =  0.514077  y =  1.600858  z = -1.572373 angstrom
           Maximum rank =  0   Radius =  0.325 angstrom
                   Q00  =   0.046399

H          x =  2.814077  y =  2.216858  z = -0.819373 angstrom
           Maximum rank =  0   Radius =  0.325 angstrom
                   Q00  =   0.090308

H          x =  3.174343  y =  0.522388  z = -0.365253 angstrom
           Maximum rank =  0   Radius =  0.325 angstrom
                   Q00  =   0.065457

H          x =  1.901475  y =  1.496198  z =  0.479777 angstrom
           Maximum rank =  0   Radius =  0.325 angstrom
                   Q00  =   0.025424

Total multipoles referred to origin at
           x =   0.000000,  y =    0.000000,  z =    0.000000 angstrom
                   Q00  =  -1.000000

Finished at 7:33:52 on 27 Apr 2020

  DMA results are available in the Python driver through the
	  variable('DMA DISTRIBUTED MULTIPOLES')
  and
	  variable('DMA TOTAL MULTIPOLES')
  commands.

    Psi4 stopped on: Monday, 27 April 2020 07:33AM
    Psi4 wall time for execution: 0:03:58.90

*** Psi4 exiting successfully. Buy a developer a beer!
