                               Psi4 1.3.2 release

  ==> Input File <==

--------------------------------------------------------------------------
import numpy as np
set {scf_type pk
basis cc-pvdz
d_convergence 10
gdma_switch   0
gdma_limit    0
gdma_origin   [ 0.0,  0.0,  0.0 ]
}
molecule test {
    units Angstrom
    0 1
    --
    0 1
    C                1.409334448016807     2.652027038157859    -1.596930628758688
    C               -0.238665551983193    -0.580972961842141    -0.558930628758688
    C               -0.317665551983193     0.808027038157859    -0.826930628758688
    C                0.996334448016807     1.247027038157859    -1.224930628758688
    C                1.786334448016807     0.141027038157859    -1.188930628758688
    C               -1.337665551983193    -1.325972961842141    -0.156930628758688
    C               -2.542665551983193    -0.670972961842141    -0.011930628758688
    C               -1.552665551983193     1.451027038157859    -0.671930628758688
    C               -2.652665551983193     0.705027038157859    -0.261930628758688
    N                1.057334448016807    -0.952972961842141    -0.789930628758688
    H                1.423334448016807    -1.898972961842141    -0.695930628758688
    H               -1.253665551983193    -2.388972961842141     0.005069371241312
    H                2.838334448016807     0.135027038157859    -1.423930628758688
    H               -3.417665551983193    -1.227972961842141     0.298069371241312
    H               -1.642665551983193     2.511027038157859    -0.863930628758688
    H                0.548334448016807     3.177027038157860    -2.009930628758688
    H                2.166334448016807     2.593027038157860    -2.376930628758688
    H               -3.611665551983193     1.192027038157859    -0.136930628758688
    H                1.802054448016807     3.229255038157859    -0.746880628758688
    C                0.664334448016807    -1.211972961842141     3.089069371241312
    C                1.981334448016807    -1.929972961842141     3.368069371241312
    H               -0.150665551983193    -1.703972961842141     3.615069371241312
    H                0.729334448016807    -0.182972961842141     3.440069371241312
    H                0.461334448016807    -1.201972961842141     2.022069371241312
    H                2.139334448016807    -1.923972961842141     4.439069371241312
    H                1.934684448016807    -2.966249761842141     3.002069371241312
    H                2.826014448016807    -1.393298961842141     2.911459371241312

}
e, wfn = energy('scf', return_wfn=True)
gdma(wfn)
dmavals = variable('DMA DISTRIBUTED MULTIPOLES')
charges = np.array(dmavals)
print(charges)
np.save('SSI-080TRP-088LEU-1-dimer.npy', np.array(charges))--------------------------------------------------------------------------

*** tstart() called on ds3
*** at Mon Apr 27 20:40:29 2020

   => Loading Basis Set <=

    Name: CC-PVDZ
    Role: ORBITAL
    Keyword: BASIS
    atoms 1-9, 20-21   entry C          line   138 file /theoryfs2/ds/metcalf/miniconda2/envs/tf2gpu/share/psi4/basis/cc-pvdz.gbs
    atoms 10           entry N          line   168 file /theoryfs2/ds/metcalf/miniconda2/envs/tf2gpu/share/psi4/basis/cc-pvdz.gbs
    atoms 11-19, 22-27 entry H          line    22 file /theoryfs2/ds/metcalf/miniconda2/envs/tf2gpu/share/psi4/basis/cc-pvdz.gbs

         ---------------------------------------------------------
                                   SCF
               by Justin Turney, Rob Parrish, Andy Simmonett
                          and Daniel G. A. Smith
                              RHF Reference
                        1 Threads,    500 MiB Core
         ---------------------------------------------------------

  ==> Geometry <==

    Molecular point group: c1
    Full point group: C1

    Geometry (in Angstrom), charge = 0, multiplicity = 1:

       Center              X                  Y                   Z               Mass
    ------------   -----------------  -----------------  -----------------  -----------------
         C            1.409334448017     2.652027038158    -1.596930628759    12.000000000000
         C           -0.238665551983    -0.580972961842    -0.558930628759    12.000000000000
         C           -0.317665551983     0.808027038158    -0.826930628759    12.000000000000
         C            0.996334448017     1.247027038158    -1.224930628759    12.000000000000
         C            1.786334448017     0.141027038158    -1.188930628759    12.000000000000
         C           -1.337665551983    -1.325972961842    -0.156930628759    12.000000000000
         C           -2.542665551983    -0.670972961842    -0.011930628759    12.000000000000
         C           -1.552665551983     1.451027038158    -0.671930628759    12.000000000000
         C           -2.652665551983     0.705027038158    -0.261930628759    12.000000000000
         N            1.057334448017    -0.952972961842    -0.789930628759    14.003074004430
         H            1.423334448017    -1.898972961842    -0.695930628759     1.007825032230
         H           -1.253665551983    -2.388972961842     0.005069371241     1.007825032230
         H            2.838334448017     0.135027038158    -1.423930628759     1.007825032230
         H           -3.417665551983    -1.227972961842     0.298069371241     1.007825032230
         H           -1.642665551983     2.511027038158    -0.863930628759     1.007825032230
         H            0.548334448017     3.177027038158    -2.009930628759     1.007825032230
         H            2.166334448017     2.593027038158    -2.376930628759     1.007825032230
         H           -3.611665551983     1.192027038158    -0.136930628759     1.007825032230
         H            1.802054448017     3.229255038158    -0.746880628759     1.007825032230
         C            0.664334448017    -1.211972961842     3.089069371241    12.000000000000
         C            1.981334448017    -1.929972961842     3.368069371241    12.000000000000
         H           -0.150665551983    -1.703972961842     3.615069371241     1.007825032230
         H            0.729334448017    -0.182972961842     3.440069371241     1.007825032230
         H            0.461334448017    -1.201972961842     2.022069371241     1.007825032230
         H            2.139334448017    -1.923972961842     4.439069371241     1.007825032230
         H            1.934684448017    -2.966249761842     3.002069371241     1.007825032230
         H            2.826014448017    -1.393298961842     2.911459371241     1.007825032230

  Running in c1 symmetry.

  Rotational constants: A =      0.03263  B =      0.02233  C =      0.01613 [cm^-1]
  Rotational constants: A =    978.32703  B =    669.42591  C =    483.60961 [MHz]
  Nuclear repulsion =  660.152571245604690

  Charge       = 0
  Multiplicity = 1
  Electrons    = 88
  Nalpha       = 44
  Nbeta        = 44

  ==> Algorithm <==

  SCF Algorithm Type is PK.
  DIIS enabled.
  MOM disabled.
  Fractional occupation disabled.
  Guess Type is SAD.
  Energy threshold   = 1.00e-06
  Density threshold  = 1.00e-10
  Integral threshold = 0.00e+00

  ==> Primary Basis <==

  Basis Set: CC-PVDZ
    Blend: CC-PVDZ
    Number of shells: 117
    Number of basis function: 243
    Number of Cartesian functions: 255
    Spherical Harmonics?: true
    Max angular momentum: 2

  ==> Pre-Iterations <==

   -------------------------------------------------------
    Irrep   Nso     Nmo     Nalpha   Nbeta   Ndocc  Nsocc
   -------------------------------------------------------
     A        243     243       0       0       0       0
   -------------------------------------------------------
    Total     243     243      44      44      44       0
   -------------------------------------------------------

  ==> Integral Setup <==

  Using integral reordering PK algorithm.
  Sizing the integral batches needed.
  Building batch lookup table.
   Calculation information:
      Number of atoms:                  27
      Number of AO shells:             117
      Number of primitives:            339
      Number of atomic orbitals:       255
      Number of basis functions:       243

      Integral cutoff                 1.00e-12
      Number of threads:                 1

	Batch   1 pq = [       0,    9405] index = [             0,44231715] size =     44231715
	Batch   2 pq = [    9405,   13301] index = [      44231715,88464951] size =     44233236
	Batch   3 pq = [   13301,   16290] index = [      88464951,132690195] size =     44225244
	Batch   4 pq = [   16290,   18810] index = [     132690195,176917455] size =     44227260
	Batch   5 pq = [   18810,   21030] index = [     176917455,221140965] size =     44223510
	Batch   6 pq = [   21030,   23037] index = [     221140965,265363203] size =     44222238
	Batch   7 pq = [   23037,   24883] index = [     265363203,309594286] size =     44231083
	Batch   8 pq = [   24883,   26601] index = [     309594286,353819901] size =     44225615
	Batch   9 pq = [   26601,   28214] index = [     353819901,398029005] size =     44209104
	Batch  10 pq = [   28214,   29646] index = [     398029005,439457481] size =     41428476
  Task number: 40
  Buffer size: 11059200
  Buffer per thread: 2
  We computed 22979350 shell quartets total.
  Whereas there are 23829156 unique shell quartets.

  ==> DiskJK: Disk-Based J/K Matrices <==

    J tasked:                  Yes
    K tasked:                  Yes
    wK tasked:                  No
    Memory [MiB]:              375
    Schwarz Cutoff:          1E-12

    OpenMP threads:              1

  Minimum eigenvalue in the overlap matrix is 2.3294424194E-04.
  Using Symmetric Orthogonalization.

  SCF Guess: Superposition of Atomic Densities via on-the-fly atomic UHF.

  ==> Iterations <==

                        Total Energy        Delta E     RMS |[F,P]|

   @RHF iter SAD:  -479.04722916804309   -4.79047e+02   0.00000e+00
   @RHF iter   1:  -479.48955890140530   -4.42330e-01   2.60614e-03 DIIS
   @RHF iter   2:  -479.72225369127312   -2.32695e-01   1.15003e-03 DIIS
   @RHF iter   3:  -479.76355913662513   -4.13054e-02   3.00425e-04 DIIS
   @RHF iter   4:  -479.76729765723741   -3.73852e-03   1.39238e-04 DIIS
   @RHF iter   5:  -479.76794391001766   -6.46253e-04   1.99389e-05 DIIS
   @RHF iter   6:  -479.76797260638159   -2.86964e-05   9.07324e-06 DIIS
   @RHF iter   7:  -479.76797822122836   -5.61485e-06   3.68650e-06 DIIS
   @RHF iter   8:  -479.76797973321334   -1.51198e-06   1.43011e-06 DIIS
   @RHF iter   9:  -479.76798002293532   -2.89722e-07   6.33486e-07 DIIS
   @RHF iter  10:  -479.76798007997320   -5.70379e-08   2.91072e-07 DIIS
   @RHF iter  11:  -479.76798009490676   -1.49336e-08   1.14074e-07 DIIS
   @RHF iter  12:  -479.76798009720568   -2.29892e-09   3.62670e-08 DIIS
   @RHF iter  13:  -479.76798009736689   -1.61208e-10   9.06681e-09 DIIS
   @RHF iter  14:  -479.76798009737797   -1.10845e-11   3.32020e-09 DIIS
   @RHF iter  15:  -479.76798009737820   -2.27374e-13   1.54979e-09 DIIS
   @RHF iter  16:  -479.76798009737468    3.52429e-12   8.07844e-10 DIIS
   @RHF iter  17:  -479.76798009737877   -4.09273e-12   3.05906e-10 DIIS
   @RHF iter  18:  -479.76798009737598    2.78533e-12   1.46935e-10 DIIS
   @RHF iter  19:  -479.76798009738042   -4.43379e-12   4.54237e-11 DIIS
  Energy and wave function converged.

  ==> Post-Iterations <==

    Orbital Energies [Eh]
    ---------------------

    Doubly Occupied:

       1A    -15.602512     2A    -11.263064     3A    -11.262244
       4A    -11.230247     5A    -11.229300     6A    -11.228146
       7A    -11.227998     8A    -11.220767     9A    -11.220322
      10A    -11.218596    11A    -11.215487    12A    -11.207095
      13A     -1.296282    14A     -1.128737    15A     -1.072109
      16A     -1.014641    17A     -0.997108    18A     -0.987328
      19A     -0.932015    20A     -0.839687    21A     -0.831701
      22A     -0.803159    23A     -0.753636    24A     -0.719972
      25A     -0.662568    26A     -0.642236    27A     -0.602895
      28A     -0.600078    29A     -0.594064    30A     -0.590127
      31A     -0.587321    32A     -0.567856    33A     -0.553209
      34A     -0.536825    35A     -0.526996    36A     -0.495159
      37A     -0.494420    38A     -0.481988    39A     -0.479705
      40A     -0.470911    41A     -0.461690    42A     -0.372700
      43A     -0.294915    44A     -0.275920

    Virtual:

      45A      0.126441    46A      0.164408    47A      0.170843
      48A      0.188841    49A      0.201625    50A      0.208345
      51A      0.219974    52A      0.228832    53A      0.230665
      54A      0.248395    55A      0.259897    56A      0.262282
      57A      0.266273    58A      0.273732    59A      0.289065
      60A      0.293419    61A      0.305960    62A      0.323944
      63A      0.373971    64A      0.383747    65A      0.396705
      66A      0.407456    67A      0.426887    68A      0.445620
      69A      0.469532    70A      0.480809    71A      0.510987
      72A      0.524492    73A      0.582948    74A      0.599688
      75A      0.600018    76A      0.609028    77A      0.621680
      78A      0.637734    79A      0.642646    80A      0.667930
      81A      0.674432    82A      0.681393    83A      0.696221
      84A      0.716805    85A      0.719751    86A      0.726079
      87A      0.734176    88A      0.741235    89A      0.753516
      90A      0.761352    91A      0.768102    92A      0.775164
      93A      0.790335    94A      0.793949    95A      0.820193
      96A      0.852830    97A      0.862187    98A      0.868219
      99A      0.875313   100A      0.880278   101A      0.888144
     102A      0.892772   103A      0.895584   104A      0.900970
     105A      0.901718   106A      0.910502   107A      0.918053
     108A      0.925599   109A      0.946439   110A      0.948946
     111A      0.956910   112A      0.960960   113A      0.975781
     114A      0.992939   115A      1.014124   116A      1.019000
     117A      1.058970   118A      1.090538   119A      1.114893
     120A      1.131188   121A      1.133819   122A      1.139826
     123A      1.145596   124A      1.150406   125A      1.154468
     126A      1.180283   127A      1.215593   128A      1.220793
     129A      1.233618   130A      1.238291   131A      1.249793
     132A      1.278052   133A      1.286995   134A      1.298559
     135A      1.328693   136A      1.331419   137A      1.357274
     138A      1.363890   139A      1.379350   140A      1.423564
     141A      1.448364   142A      1.479413   143A      1.492591
     144A      1.517710   145A      1.548586   146A      1.569130
     147A      1.594679   148A      1.607734   149A      1.628963
     150A      1.636201   151A      1.651145   152A      1.682960
     153A      1.691562   154A      1.698568   155A      1.700373
     156A      1.745338   157A      1.764970   158A      1.772134
     159A      1.785730   160A      1.812529   161A      1.829114
     162A      1.836019   163A      1.871112   164A      1.873913
     165A      1.883386   166A      1.893841   167A      1.899236
     168A      1.906564   169A      1.913802   170A      1.918871
     171A      1.938511   172A      1.939882   173A      1.948394
     174A      1.953836   175A      1.956167   176A      1.960167
     177A      1.973020   178A      1.979784   179A      1.987250
     180A      2.005708   181A      2.011228   182A      2.033669
     183A      2.043067   184A      2.070832   185A      2.080300
     186A      2.090857   187A      2.099704   188A      2.107253
     189A      2.117291   190A      2.123133   191A      2.137445
     192A      2.146933   193A      2.166442   194A      2.173577
     195A      2.179814   196A      2.231772   197A      2.266377
     198A      2.279751   199A      2.301319   200A      2.304377
     201A      2.311330   202A      2.318383   203A      2.340563
     204A      2.370006   205A      2.401015   206A      2.403403
     207A      2.452106   208A      2.462552   209A      2.472101
     210A      2.480732   211A      2.548081   212A      2.566669
     213A      2.582796   214A      2.598963   215A      2.610405
     216A      2.634368   217A      2.670609   218A      2.685912
     219A      2.718170   220A      2.766974   221A      2.769196
     222A      2.773746   223A      2.784784   224A      2.804026
     225A      2.821035   226A      2.831379   227A      2.850004
     228A      2.860229   229A      2.875131   230A      2.879789
     231A      2.923565   232A      2.954729   233A      2.976327
     234A      3.012295   235A      3.026147   236A      3.062944
     237A      3.077935   238A      3.131025   239A      3.209998
     240A      3.300722   241A      3.378539   242A      3.746598
     243A      3.958834

    Final Occupation by Irrep:
              A
    DOCC [    44 ]

  @RHF Final Energy:  -479.76798009738042

   => Energetics <=

    Nuclear Repulsion Energy =            660.1525712456046904
    One-Electron Energy =               -1958.2536363189130952
    Two-Electron Energy =                 818.3330849759278180
    Total Energy =                       -479.7679800973804731

Computation Completed

Properties will be evaluated at   0.000000,   0.000000,   0.000000 [a0]

Properties computed using the SCF density matrix

  Nuclear Dipole Moment: [e a0]
     X:     6.3649      Y:    -1.9200      Z:    10.7630

  Electronic Dipole Moment: [e a0]
     X:    -5.7734      Y:     1.5141      Z:   -10.8673

  Dipole Moment: [e a0]
     X:     0.5915      Y:    -0.4058      Z:    -0.1043     Total:     0.7249

  Dipole Moment: [D]
     X:     1.5035      Y:    -1.0315      Z:    -0.2651     Total:     1.8425

*** tstop() called on ds3 at Mon Apr 27 20:44:35 2020
Module time:
	user time   =     179.83 seconds =       3.00 minutes
	system time =      74.58 seconds =       1.24 minutes
	total time  =        246 seconds =       4.10 minutes
Total time:
	user time   =     179.83 seconds =       3.00 minutes
	system time =      74.58 seconds =       1.24 minutes
	total time  =        246 seconds =       4.10 minutes
                                     G D M A

                                 by Anthony Stone

                           version 2.2.06, 22 June 2011

               Distributed Multipoles from Gaussian wavefunctions

Starting at 20:44:35 on 27 Apr 2020

Using SCF density matrix from file ./SSI/SSI-080TRP-088LEU-1-dimer.test.15919.fchk

                         Distributed Multipole Analysis

Standard DMA

Positions and radii in angstrom
Multipole moments in atomic units, ea_0^k for rank k

C          x =  1.409334  y =  2.652027  z = -1.596931 angstrom
           Maximum rank =  0   Radius =  0.650 angstrom
                   Q00  =  -0.214955

C          x = -0.238666  y = -0.580973  z = -0.558931 angstrom
           Maximum rank =  0   Radius =  0.650 angstrom
                   Q00  =   0.295439

C          x = -0.317666  y =  0.808027  z = -0.826931 angstrom
           Maximum rank =  0   Radius =  0.650 angstrom
                   Q00  =  -0.047887

C          x =  0.996334  y =  1.247027  z = -1.224931 angstrom
           Maximum rank =  0   Radius =  0.650 angstrom
                   Q00  =  -0.129900

C          x =  1.786334  y =  0.141027  z = -1.188931 angstrom
           Maximum rank =  0   Radius =  0.650 angstrom
                   Q00  =   0.078098

C          x = -1.337666  y = -1.325973  z = -0.156931 angstrom
           Maximum rank =  0   Radius =  0.650 angstrom
                   Q00  =  -0.117264

C          x = -2.542666  y = -0.670973  z = -0.011931 angstrom
           Maximum rank =  0   Radius =  0.650 angstrom
                   Q00  =  -0.067704

C          x = -1.552666  y =  1.451027  z = -0.671931 angstrom
           Maximum rank =  0   Radius =  0.650 angstrom
                   Q00  =  -0.097520

C          x = -2.652666  y =  0.705027  z = -0.261931 angstrom
           Maximum rank =  0   Radius =  0.650 angstrom
                   Q00  =  -0.087436

N          x =  1.057334  y = -0.952973  z = -0.789931 angstrom
           Maximum rank =  0   Radius =  0.650 angstrom
                   Q00  =  -0.498210

H          x =  1.423334  y = -1.898973  z = -0.695931 angstrom
           Maximum rank =  0   Radius =  0.325 angstrom
                   Q00  =   0.219397

H          x = -1.253666  y = -2.388973  z =  0.005069 angstrom
           Maximum rank =  0   Radius =  0.325 angstrom
                   Q00  =   0.070864

H          x =  2.838334  y =  0.135027  z = -1.423931 angstrom
           Maximum rank =  0   Radius =  0.325 angstrom
                   Q00  =   0.099043

H          x = -3.417666  y = -1.227973  z =  0.298069 angstrom
           Maximum rank =  0   Radius =  0.325 angstrom
                   Q00  =   0.064420

H          x = -1.642666  y =  2.511027  z = -0.863931 angstrom
           Maximum rank =  0   Radius =  0.325 angstrom
                   Q00  =   0.069692

H          x =  0.548334  y =  3.177027  z = -2.009931 angstrom
           Maximum rank =  0   Radius =  0.325 angstrom
                   Q00  =   0.105548

H          x =  2.166334  y =  2.593027  z = -2.376931 angstrom
           Maximum rank =  0   Radius =  0.325 angstrom
                   Q00  =   0.104417

H          x = -3.611666  y =  1.192027  z = -0.136931 angstrom
           Maximum rank =  0   Radius =  0.325 angstrom
                   Q00  =   0.060174

H          x =  1.802054  y =  3.229255  z = -0.746881 angstrom
           Maximum rank =  0   Radius =  0.325 angstrom
                   Q00  =   0.101167

C          x =  0.664334  y = -1.211973  z =  3.089069 angstrom
           Maximum rank =  0   Radius =  0.650 angstrom
                   Q00  =  -0.227899

C          x =  1.981334  y = -1.929973  z =  3.368069 angstrom
           Maximum rank =  0   Radius =  0.650 angstrom
                   Q00  =  -0.241089

H          x = -0.150666  y = -1.703973  z =  3.615069 angstrom
           Maximum rank =  0   Radius =  0.325 angstrom
                   Q00  =   0.074515

H          x =  0.729334  y = -0.182973  z =  3.440069 angstrom
           Maximum rank =  0   Radius =  0.325 angstrom
                   Q00  =   0.079933

H          x =  0.461334  y = -1.201973  z =  2.022069 angstrom
           Maximum rank =  0   Radius =  0.325 angstrom
                   Q00  =   0.082976

H          x =  2.139334  y = -1.923973  z =  4.439069 angstrom
           Maximum rank =  0   Radius =  0.325 angstrom
                   Q00  =   0.078602

H          x =  1.934684  y = -2.966250  z =  3.002069 angstrom
           Maximum rank =  0   Radius =  0.325 angstrom
                   Q00  =   0.070245

H          x =  2.826014  y = -1.393299  z =  2.911459 angstrom
           Maximum rank =  0   Radius =  0.325 angstrom
                   Q00  =   0.075333

Total multipoles referred to origin at
           x =   0.000000,  y =    0.000000,  z =    0.000000 angstrom
                   Q00  =  -0.000000

Finished at 20:44:35 on 27 Apr 2020

  DMA results are available in the Python driver through the
	  variable('DMA DISTRIBUTED MULTIPOLES')
  and
	  variable('DMA TOTAL MULTIPOLES')
  commands.

    Psi4 stopped on: Monday, 27 April 2020 08:44PM
    Psi4 wall time for execution: 0:04:05.96

*** Psi4 exiting successfully. Buy a developer a beer!
