                               Psi4 1.3.2 release

  ==> Input File <==

--------------------------------------------------------------------------
import numpy as np
set {scf_type pk
basis cc-pvdz
d_convergence 10
gdma_switch   0
gdma_limit    0
gdma_origin   [ 0.0,  0.0,  0.0 ]
}
molecule test {
    units Angstrom
    0 1
    --
    0 1
    C                1.746235710444910    -0.665823430636727     0.930478519202157
    C                1.003235710444910    -1.251823430636727     2.133478519202157
    C                0.914235710444910     1.619176569363274     0.432478519202157
    N                0.945235710444910     0.319176569363273     0.193478519202157
    N                1.646235710444910     2.139176569363273     1.400478519202157
    N                0.146235710444910     2.404176569363274    -0.292521480797843
    H                2.698235710444910    -0.240823430636727     1.253478519202157
    H                1.984235710444910    -1.486823430636727     0.252478519202157
    H                1.652235710444910    -1.978823430636726     2.622478519202157
    H                0.107235710444910    -1.768823430636727     1.789478519202157
    H                0.297235710444910    -0.057823430636727    -0.499521480797843
    H                2.339235710444910     1.580176569363274     1.864478519202157
    H                1.632235710444910     3.135176569363273     1.563478519202157
    H               -0.468764289555090     1.956176569363274    -0.966521480797843
    H                0.125235710444910     3.400176569363274    -0.154521480797843
    H                0.717835710444910    -0.474383430636727     2.857450519202158
    C               -2.804764289555090    -1.935823430636727    -1.142521480797843
    C               -1.519764289555090    -1.114823430636727    -1.208521480797843
    O               -0.442764289555090    -1.697823430636726    -0.960521480797843
    O               -1.568764289555090     0.104176569363273    -1.493521480797843
    H               -2.965764289555090    -2.220823430636726    -0.101521480797843
    H               -2.686764289555090    -2.847823430636727    -1.729521480797843
    H               -3.678384289555090    -1.387553430636726    -1.524866480797842

}
e, wfn = energy('scf', return_wfn=True)
gdma(wfn)
dmavals = variable('DMA DISTRIBUTED MULTIPOLES')
charges = np.array(dmavals)
print(charges)
np.save('SSI-109ARG-115GLU-1-dimer.npy', np.array(charges))--------------------------------------------------------------------------

*** tstart() called on ds3
*** at Mon Apr 27 07:41:29 2020

   => Loading Basis Set <=

    Name: CC-PVDZ
    Role: ORBITAL
    Keyword: BASIS
    atoms 1-3, 17-18  entry C          line   138 file /theoryfs2/ds/metcalf/miniconda2/envs/tf2gpu/share/psi4/basis/cc-pvdz.gbs
    atoms 4-6         entry N          line   168 file /theoryfs2/ds/metcalf/miniconda2/envs/tf2gpu/share/psi4/basis/cc-pvdz.gbs
    atoms 7-16, 21-23 entry H          line    22 file /theoryfs2/ds/metcalf/miniconda2/envs/tf2gpu/share/psi4/basis/cc-pvdz.gbs
    atoms 19-20       entry O          line   198 file /theoryfs2/ds/metcalf/miniconda2/envs/tf2gpu/share/psi4/basis/cc-pvdz.gbs

         ---------------------------------------------------------
                                   SCF
               by Justin Turney, Rob Parrish, Andy Simmonett
                          and Daniel G. A. Smith
                              RHF Reference
                        1 Threads,    500 MiB Core
         ---------------------------------------------------------

  ==> Geometry <==

    Molecular point group: c1
    Full point group: C1

    Geometry (in Angstrom), charge = 0, multiplicity = 1:

       Center              X                  Y                   Z               Mass
    ------------   -----------------  -----------------  -----------------  -----------------
         C            1.746235710445    -0.665823430637     0.930478519202    12.000000000000
         C            1.003235710445    -1.251823430637     2.133478519202    12.000000000000
         C            0.914235710445     1.619176569363     0.432478519202    12.000000000000
         N            0.945235710445     0.319176569363     0.193478519202    14.003074004430
         N            1.646235710445     2.139176569363     1.400478519202    14.003074004430
         N            0.146235710445     2.404176569363    -0.292521480798    14.003074004430
         H            2.698235710445    -0.240823430637     1.253478519202     1.007825032230
         H            1.984235710445    -1.486823430637     0.252478519202     1.007825032230
         H            1.652235710445    -1.978823430637     2.622478519202     1.007825032230
         H            0.107235710445    -1.768823430637     1.789478519202     1.007825032230
         H            0.297235710445    -0.057823430637    -0.499521480798     1.007825032230
         H            2.339235710445     1.580176569363     1.864478519202     1.007825032230
         H            1.632235710445     3.135176569363     1.563478519202     1.007825032230
         H           -0.468764289555     1.956176569363    -0.966521480798     1.007825032230
         H            0.125235710445     3.400176569363    -0.154521480798     1.007825032230
         H            0.717835710445    -0.474383430637     2.857450519202     1.007825032230
         C           -2.804764289555    -1.935823430637    -1.142521480798    12.000000000000
         C           -1.519764289555    -1.114823430637    -1.208521480798    12.000000000000
         O           -0.442764289555    -1.697823430637    -0.960521480798    15.994914619570
         O           -1.568764289555     0.104176569363    -1.493521480798    15.994914619570
         H           -2.965764289555    -2.220823430637    -0.101521480798     1.007825032230
         H           -2.686764289555    -2.847823430637    -1.729521480798     1.007825032230
         H           -3.678384289555    -1.387553430637    -1.524866480798     1.007825032230

  Running in c1 symmetry.

  Rotational constants: A =      0.05867  B =      0.02590  C =      0.01954 [cm^-1]
  Rotational constants: A =   1758.73614  B =    776.47735  C =    585.82534 [MHz]
  Nuclear repulsion =  567.203436497788630

  Charge       = 0
  Multiplicity = 1
  Electrons    = 80
  Nalpha       = 40
  Nbeta        = 40

  ==> Algorithm <==

  SCF Algorithm Type is PK.
  DIIS enabled.
  MOM disabled.
  Fractional occupation disabled.
  Guess Type is SAD.
  Energy threshold   = 1.00e-06
  Density threshold  = 1.00e-10
  Integral threshold = 0.00e+00

  ==> Primary Basis <==

  Basis Set: CC-PVDZ
    Blend: CC-PVDZ
    Number of shells: 99
    Number of basis function: 205
    Number of Cartesian functions: 215
    Spherical Harmonics?: true
    Max angular momentum: 2

  ==> Pre-Iterations <==

   -------------------------------------------------------
    Irrep   Nso     Nmo     Nalpha   Nbeta   Ndocc  Nsocc
   -------------------------------------------------------
     A        205     205       0       0       0       0
   -------------------------------------------------------
    Total     205     205      40      40      40       0
   -------------------------------------------------------

  ==> Integral Setup <==

  Using integral reordering PK algorithm.
  Sizing the integral batches needed.
  Building batch lookup table.
   Calculation information:
      Number of atoms:                  23
      Number of AO shells:              99
      Number of primitives:            285
      Number of atomic orbitals:       215
      Number of basis functions:       205

      Integral cutoff                 1.00e-12
      Number of threads:                 1

	Batch   1 pq = [       0,    9405] index = [             0,44231715] size =     44231715
	Batch   2 pq = [    9405,   13301] index = [      44231715,88464951] size =     44233236
	Batch   3 pq = [   13301,   16290] index = [      88464951,132690195] size =     44225244
	Batch   4 pq = [   16290,   18810] index = [     132690195,176917455] size =     44227260
	Batch   5 pq = [   18810,   21115] index = [     176917455,222932170] size =     46014715
  Task number: 21
  Buffer size: 11059200
  Buffer per thread: 2
  We computed 11559815 shell quartets total.
  Whereas there are 12253725 unique shell quartets.

  ==> DiskJK: Disk-Based J/K Matrices <==

    J tasked:                  Yes
    K tasked:                  Yes
    wK tasked:                  No
    Memory [MiB]:              375
    Schwarz Cutoff:          1E-12

    OpenMP threads:              1

  Minimum eigenvalue in the overlap matrix is 3.6968026883E-03.
  Using Symmetric Orthogonalization.

  SCF Guess: Superposition of Atomic Densities via on-the-fly atomic UHF.

  ==> Iterations <==

                        Total Energy        Delta E     RMS |[F,P]|

   @RHF iter SAD:  -508.75877999798320   -5.08759e+02   0.00000e+00
   @RHF iter   1:  -509.72380053303959   -9.65021e-01   3.88254e-03 DIIS
   @RHF iter   2:  -509.97619972121174   -2.52399e-01   1.98774e-03 DIIS
   @RHF iter   3:  -510.03848294541280   -6.22832e-02   3.67592e-04 DIIS
   @RHF iter   4:  -510.04211345056160   -3.63051e-03   1.24152e-04 DIIS
   @RHF iter   5:  -510.04252345953893   -4.10009e-04   2.22792e-05 DIIS
   @RHF iter   6:  -510.04254299709856   -1.95376e-05   7.37002e-06 DIIS
   @RHF iter   7:  -510.04254462291698   -1.62582e-06   2.44343e-06 DIIS
   @RHF iter   8:  -510.04254483795620   -2.15039e-07   9.44065e-07 DIIS
   @RHF iter   9:  -510.04254486839591   -3.04397e-08   3.17645e-07 DIIS
   @RHF iter  10:  -510.04254487283833   -4.44243e-09   9.35372e-08 DIIS
   @RHF iter  11:  -510.04254487349090   -6.52562e-10   3.12520e-08 DIIS
   @RHF iter  12:  -510.04254487357366   -8.27640e-11   1.19449e-08 DIIS
   @RHF iter  13:  -510.04254487357963   -5.96856e-12   4.12691e-09 DIIS
   @RHF iter  14:  -510.04254487358247   -2.84217e-12   1.34743e-09 DIIS
   @RHF iter  15:  -510.04254487358367   -1.19371e-12   5.61601e-10 DIIS
   @RHF iter  16:  -510.04254487358065    3.01270e-12   2.04327e-10 DIIS
   @RHF iter  17:  -510.04254487358162   -9.66338e-13   8.15940e-11 DIIS
  Energy and wave function converged.

  ==> Post-Iterations <==

    Orbital Energies [Eh]
    ---------------------

    Doubly Occupied:

       1A    -20.429456     2A    -20.425101     3A    -15.644578
       4A    -15.622437     5A    -15.597348     6A    -11.425088
       7A    -11.285602     8A    -11.275177     9A    -11.228530
      10A    -11.175526    11A     -1.385835    12A     -1.320443
      13A     -1.239795    14A     -1.231915    15A     -1.202345
      16A     -1.033653    17A     -0.926122    18A     -0.906209
      19A     -0.856435    20A     -0.818520    21A     -0.781244
      22A     -0.703123    23A     -0.701238    24A     -0.660579
      25A     -0.646667    26A     -0.635759    27A     -0.608140
      28A     -0.561781    29A     -0.554753    30A     -0.552726
      31A     -0.544521    32A     -0.530032    33A     -0.505266
      34A     -0.485057    35A     -0.470197    36A     -0.456451
      37A     -0.407120    38A     -0.345135    39A     -0.339883
      40A     -0.331419

    Virtual:

      41A      0.124350    42A      0.159595    43A      0.185256
      44A      0.201255    45A      0.213940    46A      0.233695
      47A      0.239150    48A      0.264023    49A      0.269339
      50A      0.283826    51A      0.295219    52A      0.304379
      53A      0.317637    54A      0.345343    55A      0.353719
      56A      0.373516    57A      0.421266    58A      0.439547
      59A      0.447010    60A      0.493430    61A      0.504391
      62A      0.563947    63A      0.587604    64A      0.591867
      65A      0.604173    66A      0.632737    67A      0.646972
      68A      0.673497    69A      0.691389    70A      0.700375
      71A      0.701991    72A      0.715095    73A      0.732438
      74A      0.741092    75A      0.766732    76A      0.795490
      77A      0.817464    78A      0.837475    79A      0.847850
      80A      0.862479    81A      0.877148    82A      0.887090
      83A      0.905842    84A      0.909109    85A      0.917660
      86A      0.926244    87A      0.936025    88A      0.945079
      89A      0.948724    90A      0.976784    91A      0.995787
      92A      1.000298    93A      1.006485    94A      1.024184
      95A      1.033804    96A      1.069179    97A      1.094181
      98A      1.095875    99A      1.124218   100A      1.161141
     101A      1.199088   102A      1.232593   103A      1.245077
     104A      1.249178   105A      1.290041   106A      1.292797
     107A      1.325062   108A      1.347099   109A      1.369283
     110A      1.388360   111A      1.405079   112A      1.419344
     113A      1.450645   114A      1.468689   115A      1.483531
     116A      1.494020   117A      1.517762   118A      1.558545
     119A      1.569973   120A      1.588408   121A      1.594673
     122A      1.603949   123A      1.663099   124A      1.680763
     125A      1.686418   126A      1.714625   127A      1.725250
     128A      1.774608   129A      1.800977   130A      1.833038
     131A      1.844713   132A      1.866462   133A      1.872159
     134A      1.881095   135A      1.894568   136A      1.911348
     137A      1.922704   138A      1.933546   139A      1.939921
     140A      1.953705   141A      1.962389   142A      1.966019
     143A      1.975642   144A      1.987676   145A      1.995918
     146A      2.019789   147A      2.041864   148A      2.061500
     149A      2.071325   150A      2.095011   151A      2.143823
     152A      2.164690   153A      2.175145   154A      2.219060
     155A      2.224323   156A      2.256112   157A      2.284285
     158A      2.292311   159A      2.313863   160A      2.352740
     161A      2.374349   162A      2.407381   163A      2.418951
     164A      2.438185   165A      2.465612   166A      2.484603
     167A      2.500198   168A      2.518907   169A      2.550939
     170A      2.563876   171A      2.572231   172A      2.591528
     173A      2.601941   174A      2.645088   175A      2.655536
     176A      2.743599   177A      2.759430   178A      2.782889
     179A      2.789005   180A      2.803250   181A      2.845245
     182A      2.860641   183A      2.862551   184A      2.880825
     185A      2.916622   186A      2.945568   187A      2.988511
     188A      3.008912   189A      3.026421   190A      3.083749
     191A      3.108962   192A      3.140605   193A      3.156249
     194A      3.208351   195A      3.232368   196A      3.286084
     197A      3.362410   198A      3.481658   199A      3.624374
     200A      3.659002   201A      3.760649   202A      3.811418
     203A      3.925454   204A      3.938505   205A      4.063246

    Final Occupation by Irrep:
              A
    DOCC [    40 ]

  @RHF Final Energy:  -510.04254487358162

   => Energetics <=

    Nuclear Repulsion Energy =            567.2034364977886298
    One-Electron Energy =               -1822.7895502258684246
    Two-Electron Energy =                 745.5435688544982895
    Total Energy =                       -510.0425448735816190

Computation Completed

Properties will be evaluated at   0.000000,   0.000000,   0.000000 [a0]

Properties computed using the SCF density matrix

  Nuclear Dipole Moment: [e a0]
     X:     1.6267      Y:    -2.2642      Z:     6.7594

  Electronic Dipole Moment: [e a0]
     X:     0.6933      Y:     5.2409      Z:    -4.3634

  Dipole Moment: [e a0]
     X:     2.3200      Y:     2.9767      Z:     2.3960     Total:     4.4704

  Dipole Moment: [D]
     X:     5.8969      Y:     7.5661      Z:     6.0900     Total:    11.3625

*** tstop() called on ds3 at Mon Apr 27 07:44:20 2020
Module time:
	user time   =      86.40 seconds =       1.44 minutes
	system time =      30.54 seconds =       0.51 minutes
	total time  =        171 seconds =       2.85 minutes
Total time:
	user time   =      86.40 seconds =       1.44 minutes
	system time =      30.54 seconds =       0.51 minutes
	total time  =        171 seconds =       2.85 minutes
                                     G D M A

                                 by Anthony Stone

                           version 2.2.06, 22 June 2011

               Distributed Multipoles from Gaussian wavefunctions

Starting at 7:44:20 on 27 Apr 2020

Using SCF density matrix from file ./SSI/SSI-109ARG-115GLU-1-dimer.test.32255.fchk

                         Distributed Multipole Analysis

Standard DMA

Positions and radii in angstrom
Multipole moments in atomic units, ea_0^k for rank k

C          x =  1.746236  y = -0.665823  z =  0.930479 angstrom
           Maximum rank =  0   Radius =  0.650 angstrom
                   Q00  =   0.056806

C          x =  1.003236  y = -1.251823  z =  2.133479 angstrom
           Maximum rank =  0   Radius =  0.650 angstrom
                   Q00  =  -0.235811

C          x =  0.914236  y =  1.619177  z =  0.432479 angstrom
           Maximum rank =  0   Radius =  0.650 angstrom
                   Q00  =   1.043956

N          x =  0.945236  y =  0.319177  z =  0.193479 angstrom
           Maximum rank =  0   Radius =  0.650 angstrom
                   Q00  =  -0.515869

N          x =  1.646236  y =  2.139177  z =  1.400479 angstrom
           Maximum rank =  0   Radius =  0.650 angstrom
                   Q00  =  -0.571694

N          x =  0.146236  y =  2.404177  z = -0.292521 angstrom
           Maximum rank =  0   Radius =  0.650 angstrom
                   Q00  =  -0.594636

H          x =  2.698236  y = -0.240823  z =  1.253479 angstrom
           Maximum rank =  0   Radius =  0.325 angstrom
                   Q00  =   0.018908

H          x =  1.984236  y = -1.486823  z =  0.252479 angstrom
           Maximum rank =  0   Radius =  0.325 angstrom
                   Q00  =   0.146619

H          x =  1.652236  y = -1.978823  z =  2.622479 angstrom
           Maximum rank =  0   Radius =  0.325 angstrom
                   Q00  =   0.085588

H          x =  0.107236  y = -1.768823  z =  1.789479 angstrom
           Maximum rank =  0   Radius =  0.325 angstrom
                   Q00  =   0.124758

H          x =  0.297236  y = -0.057823  z = -0.499521 angstrom
           Maximum rank =  0   Radius =  0.325 angstrom
                   Q00  =   0.274212

H          x =  2.339236  y =  1.580177  z =  1.864479 angstrom
           Maximum rank =  0   Radius =  0.325 angstrom
                   Q00  =   0.247068

H          x =  1.632236  y =  3.135177  z =  1.563479 angstrom
           Maximum rank =  0   Radius =  0.325 angstrom
                   Q00  =   0.229982

H          x = -0.468764  y =  1.956177  z = -0.966521 angstrom
           Maximum rank =  0   Radius =  0.325 angstrom
                   Q00  =   0.305026

H          x =  0.125236  y =  3.400177  z = -0.154521 angstrom
           Maximum rank =  0   Radius =  0.325 angstrom
                   Q00  =   0.228600

H          x =  0.717836  y = -0.474383  z =  2.857451 angstrom
           Maximum rank =  0   Radius =  0.325 angstrom
                   Q00  =   0.066274

C          x = -2.804764  y = -1.935823  z = -1.142521 angstrom
           Maximum rank =  0   Radius =  0.650 angstrom
                   Q00  =  -0.253620

C          x = -1.519764  y = -1.114823  z = -1.208521 angstrom
           Maximum rank =  0   Radius =  0.650 angstrom
                   Q00  =   0.861451

O          x = -0.442764  y = -1.697823  z = -0.960521 angstrom
           Maximum rank =  0   Radius =  0.650 angstrom
                   Q00  =  -0.884834

O          x = -1.568764  y =  0.104177  z = -1.493521 angstrom
           Maximum rank =  0   Radius =  0.650 angstrom
                   Q00  =  -0.906929

H          x = -2.965764  y = -2.220823  z = -0.101521 angstrom
           Maximum rank =  0   Radius =  0.325 angstrom
                   Q00  =   0.094839

H          x = -2.686764  y = -2.847823  z = -1.729521 angstrom
           Maximum rank =  0   Radius =  0.325 angstrom
                   Q00  =   0.099842

H          x = -3.678384  y = -1.387553  z = -1.524866 angstrom
           Maximum rank =  0   Radius =  0.325 angstrom
                   Q00  =   0.079462

Total multipoles referred to origin at
           x =   0.000000,  y =    0.000000,  z =    0.000000 angstrom
                   Q00  =  -0.000000

Finished at 7:44:20 on 27 Apr 2020

  DMA results are available in the Python driver through the
	  variable('DMA DISTRIBUTED MULTIPOLES')
  and
	  variable('DMA TOTAL MULTIPOLES')
  commands.

    Psi4 stopped on: Monday, 27 April 2020 07:44AM
    Psi4 wall time for execution: 0:02:51.39

*** Psi4 exiting successfully. Buy a developer a beer!
