                               Psi4 1.3.2 release

  ==> Input File <==

--------------------------------------------------------------------------
import numpy as np
set {scf_type pk
basis cc-pvdz
d_convergence 10
gdma_switch   0
gdma_limit    0
gdma_origin   [ 0.0,  0.0,  0.0 ]
}
molecule test {
    units Angstrom
    0 1
    --
    0 1
    C                2.054910057939831     1.392575259017536    -2.648319203560847
    O                1.403910057939831     1.093575259017536    -1.435319203560847
    H                1.680910057939831     0.213575259017536    -1.141319203560847
    H                3.095910057939831     1.646575259017536    -2.449319203560847
    H                1.570910057939831     2.267575259017535    -3.084319203560848
    H                2.017690057939831     0.560048259017536    -3.366309203560847
    C               -1.759089942060169     0.583575259017536     0.979680796439153
    C               -0.799089942060169    -1.779424740982464     1.950680796439153
    S               -0.503089942060169    -0.656424740982464     0.619680796439153
    H               -2.688089942060169     0.081575259017536     1.253680796439153
    H               -1.950089942060169     1.185575259017536     0.102680796439153
    H               -0.206089942060169    -2.673424740982464     1.778680796439153
    H               -1.853089942060169    -2.066424740982464     1.949680796439153
    H               -0.566089942060169    -1.310424740982464     2.905680796439153
    H               -1.430753942060169     1.221444259017536     1.813540796439153

}
e, wfn = energy('scf', return_wfn=True)
gdma(wfn)
dmavals = variable('DMA DISTRIBUTED MULTIPOLES')
charges = np.array(dmavals)
print(charges)
np.save('SSI-004SER-030MET-1-dimer.npy', np.array(charges))--------------------------------------------------------------------------

*** tstart() called on ds3
*** at Sun Apr 26 17:51:06 2020

   => Loading Basis Set <=

    Name: CC-PVDZ
    Role: ORBITAL
    Keyword: BASIS
    atoms 1, 7-8     entry C          line   138 file /theoryfs2/ds/metcalf/miniconda2/envs/tf2gpu/share/psi4/basis/cc-pvdz.gbs
    atoms 2          entry O          line   198 file /theoryfs2/ds/metcalf/miniconda2/envs/tf2gpu/share/psi4/basis/cc-pvdz.gbs
    atoms 3-6, 10-15 entry H          line    22 file /theoryfs2/ds/metcalf/miniconda2/envs/tf2gpu/share/psi4/basis/cc-pvdz.gbs
    atoms 9          entry S          line   598 file /theoryfs2/ds/metcalf/miniconda2/envs/tf2gpu/share/psi4/basis/cc-pvdz.gbs

         ---------------------------------------------------------
                                   SCF
               by Justin Turney, Rob Parrish, Andy Simmonett
                          and Daniel G. A. Smith
                              RHF Reference
                        1 Threads,    500 MiB Core
         ---------------------------------------------------------

  ==> Geometry <==

    Molecular point group: c1
    Full point group: C1

    Geometry (in Angstrom), charge = 0, multiplicity = 1:

       Center              X                  Y                   Z               Mass
    ------------   -----------------  -----------------  -----------------  -----------------
         C            2.054910057940     1.392575259018    -2.648319203561    12.000000000000
         O            1.403910057940     1.093575259018    -1.435319203561    15.994914619570
         H            1.680910057940     0.213575259018    -1.141319203561     1.007825032230
         H            3.095910057940     1.646575259018    -2.449319203561     1.007825032230
         H            1.570910057940     2.267575259018    -3.084319203561     1.007825032230
         H            2.017690057940     0.560048259018    -3.366309203561     1.007825032230
         C           -1.759089942060     0.583575259018     0.979680796439    12.000000000000
         C           -0.799089942060    -1.779424740982     1.950680796439    12.000000000000
         S           -0.503089942060    -0.656424740982     0.619680796439    31.972071174400
         H           -2.688089942060     0.081575259018     1.253680796439     1.007825032230
         H           -1.950089942060     1.185575259018     0.102680796439     1.007825032230
         H           -0.206089942060    -2.673424740982     1.778680796439     1.007825032230
         H           -1.853089942060    -2.066424740982     1.949680796439     1.007825032230
         H           -0.566089942060    -1.310424740982     2.905680796439     1.007825032230
         H           -1.430753942060     1.221444259018     1.813540796439     1.007825032230

  Running in c1 symmetry.

  Rotational constants: A =      0.25818  B =      0.03580  C =      0.03227 [cm^-1]
  Rotational constants: A =   7739.97017  B =   1073.31200  C =    967.47008 [MHz]
  Nuclear repulsion =  225.109785879204253

  Charge       = 0
  Multiplicity = 1
  Electrons    = 52
  Nalpha       = 26
  Nbeta        = 26

  ==> Algorithm <==

  SCF Algorithm Type is PK.
  DIIS enabled.
  MOM disabled.
  Fractional occupation disabled.
  Guess Type is SAD.
  Energy threshold   = 1.00e-06
  Density threshold  = 1.00e-10
  Integral threshold = 0.00e+00

  ==> Primary Basis <==

  Basis Set: CC-PVDZ
    Blend: CC-PVDZ
    Number of shells: 62
    Number of basis function: 124
    Number of Cartesian functions: 129
    Spherical Harmonics?: true
    Max angular momentum: 2

  ==> Pre-Iterations <==

   -------------------------------------------------------
    Irrep   Nso     Nmo     Nalpha   Nbeta   Ndocc  Nsocc
   -------------------------------------------------------
     A        124     124       0       0       0       0
   -------------------------------------------------------
    Total     124     124      26      26      26       0
   -------------------------------------------------------

  ==> Integral Setup <==

  Using integral reordering PK algorithm.
  Sizing the integral batches needed.
  Building batch lookup table.
   Calculation information:
      Number of atoms:                  15
      Number of AO shells:              62
      Number of primitives:            188
      Number of atomic orbitals:       129
      Number of basis functions:       124

      Integral cutoff                 1.00e-12
      Number of threads:                 1

	Batch   1 pq = [       0,    7750] index = [             0,30035125] size =     30035125
  Task number: 3
  Buffer size: 11059200
  Buffer per thread: 2
  We computed 1366626 shell quartets total.
  Whereas there are 1908081 unique shell quartets.

  ==> DiskJK: Disk-Based J/K Matrices <==

    J tasked:                  Yes
    K tasked:                  Yes
    wK tasked:                  No
    Memory [MiB]:              375
    Schwarz Cutoff:          1E-12

    OpenMP threads:              1

  Minimum eigenvalue in the overlap matrix is 9.1403329569E-03.
  Using Symmetric Orthogonalization.

  SCF Guess: Superposition of Atomic Densities via on-the-fly atomic UHF.

  ==> Iterations <==

                        Total Energy        Delta E     RMS |[F,P]|

   @RHF iter SAD:  -590.70406203820198   -5.90704e+02   0.00000e+00
   @RHF iter   1:  -591.67474463942426   -9.70683e-01   3.74466e-03 DIIS
   @RHF iter   2:  -591.78399533087986   -1.09251e-01   1.74813e-03 DIIS
   @RHF iter   3:  -591.80339909164218   -1.94038e-02   3.99010e-04 DIIS
   @RHF iter   4:  -591.80525522411665   -1.85613e-03   9.81247e-05 DIIS
   @RHF iter   5:  -591.80535577583100   -1.00552e-04   2.34512e-05 DIIS
   @RHF iter   6:  -591.80536187272355   -6.09689e-06   5.34811e-06 DIIS
   @RHF iter   7:  -591.80536233022428   -4.57501e-07   1.27607e-06 DIIS
   @RHF iter   8:  -591.80536236331750   -3.30932e-08   4.62204e-07 DIIS
   @RHF iter   9:  -591.80536236722673   -3.90924e-09   1.03002e-07 DIIS
   @RHF iter  10:  -591.80536236745957   -2.32831e-10   2.69267e-08 DIIS
   @RHF iter  11:  -591.80536236747844   -1.88720e-11   8.13089e-09 DIIS
   @RHF iter  12:  -591.80536236748071   -2.27374e-12   3.14869e-09 DIIS
   @RHF iter  13:  -591.80536236748060    1.13687e-13   1.14218e-09 DIIS
   @RHF iter  14:  -591.80536236748003    5.68434e-13   3.82042e-10 DIIS
   @RHF iter  15:  -591.80536236747866    1.36424e-12   1.28056e-10 DIIS
   @RHF iter  16:  -591.80536236748003   -1.36424e-12   3.35795e-11 DIIS
  Energy and wave function converged.

  ==> Post-Iterations <==

    Orbital Energies [Eh]
    ---------------------

    Doubly Occupied:

       1A    -91.929134     2A    -20.538193     3A    -11.266429
       4A    -11.250256     5A    -11.249715     6A     -8.933919
       7A     -6.616017     8A     -6.614455     9A     -6.612152
      10A     -1.340576    11A     -1.065587    12A     -0.948637
      13A     -0.911791    14A     -0.800085    15A     -0.673177
      16A     -0.607815    17A     -0.604115    18A     -0.600224
      19A     -0.580677    20A     -0.570903    21A     -0.555901
      22A     -0.495400    23A     -0.485033    24A     -0.432839
      25A     -0.422044    26A     -0.326048

    Virtual:

      27A      0.182302    28A      0.192479    29A      0.194365
      30A      0.227863    31A      0.235349    32A      0.245611
      33A      0.268794    34A      0.273233    35A      0.276772
      36A      0.281376    37A      0.294221    38A      0.316933
      39A      0.377600    40A      0.522537    41A      0.568229
      42A      0.584102    43A      0.612207    44A      0.628679
      45A      0.645081    46A      0.648766    47A      0.704262
      48A      0.727235    49A      0.772741    50A      0.785014
      51A      0.802437    52A      0.821521    53A      0.847728
      54A      0.856882    55A      0.868842    56A      0.877143
      57A      0.880835    58A      0.891373    59A      0.895366
      60A      0.898869    61A      0.904756    62A      0.908907
      63A      0.942497    64A      0.956519    65A      0.969181
      66A      1.144120    67A      1.157260    68A      1.171710
      69A      1.190903    70A      1.254238    71A      1.278971
      72A      1.315624    73A      1.336988    74A      1.376602
      75A      1.391430    76A      1.422145    77A      1.465730
      78A      1.491800    79A      1.547180    80A      1.618227
      81A      1.667074    82A      1.680312    83A      1.680785
      84A      1.682564    85A      1.870843    86A      1.876783
      87A      1.887973    88A      1.900493    89A      1.910105
      90A      1.920069    91A      1.932548    92A      1.950937
      93A      1.952803    94A      1.980523    95A      1.997866
      96A      2.020096    97A      2.033764    98A      2.050870
      99A      2.077717   100A      2.156204   101A      2.220634
     102A      2.231432   103A      2.306226   104A      2.372275
     105A      2.400507   106A      2.412403   107A      2.437616
     108A      2.446546   109A      2.465359   110A      2.529136
     111A      2.740732   112A      2.743582   113A      2.754407
     114A      2.766532   115A      2.776180   116A      2.788553
     117A      2.797429   118A      2.804529   119A      2.835319
     120A      3.313067   121A      3.409782   122A      3.453076
     123A      3.623236   124A      4.104267

    Final Occupation by Irrep:
              A
    DOCC [    26 ]

  @RHF Final Energy:  -591.80536236748003

   => Energetics <=

    Nuclear Repulsion Energy =            225.1097858792042530
    One-Electron Energy =               -1260.9680492377456176
    Two-Electron Energy =                 444.0529009910612785
    Total Energy =                       -591.8053623674800292

Computation Completed

Properties will be evaluated at   0.000000,   0.000000,   0.000000 [a0]

Properties computed using the SCF density matrix

  Nuclear Dipole Moment: [e a0]
     X:    -0.3148      Y:     1.0436      Z:    -0.2130

  Electronic Dipole Moment: [e a0]
     X:     0.2656      Y:    -1.3975      Z:     0.3582

  Dipole Moment: [e a0]
     X:    -0.0491      Y:    -0.3538      Z:     0.1452     Total:     0.3856

  Dipole Moment: [D]
     X:    -0.1249      Y:    -0.8994      Z:     0.3691     Total:     0.9801

*** tstop() called on ds3 at Sun Apr 26 17:51:25 2020
Module time:
	user time   =      14.68 seconds =       0.24 minutes
	system time =       4.93 seconds =       0.08 minutes
	total time  =         19 seconds =       0.32 minutes
Total time:
	user time   =      14.68 seconds =       0.24 minutes
	system time =       4.93 seconds =       0.08 minutes
	total time  =         19 seconds =       0.32 minutes
                                     G D M A

                                 by Anthony Stone

                           version 2.2.06, 22 June 2011

               Distributed Multipoles from Gaussian wavefunctions

Starting at 17:51:25 on 26 Apr 2020

Using SCF density matrix from file ./SSI/SSI-004SER-030MET-1-dimer.test.3514.fchk

                         Distributed Multipole Analysis

Standard DMA

Positions and radii in angstrom
Multipole moments in atomic units, ea_0^k for rank k

C          x =  2.054910  y =  1.392575  z = -2.648319 angstrom
           Maximum rank =  0   Radius =  0.650 angstrom
                   Q00  =  -0.034682

O          x =  1.403910  y =  1.093575  z = -1.435319 angstrom
           Maximum rank =  0   Radius =  0.650 angstrom
                   Q00  =  -0.585813

H          x =  1.680910  y =  0.213575  z = -1.141319 angstrom
           Maximum rank =  0   Radius =  0.325 angstrom
                   Q00  =   0.395416

H          x =  3.095910  y =  1.646575  z = -2.449319 angstrom
           Maximum rank =  0   Radius =  0.325 angstrom
                   Q00  =   0.060981

H          x =  1.570910  y =  2.267575  z = -3.084319 angstrom
           Maximum rank =  0   Radius =  0.325 angstrom
                   Q00  =   0.109046

H          x =  2.017690  y =  0.560048  z = -3.366309 angstrom
           Maximum rank =  0   Radius =  0.325 angstrom
                   Q00  =   0.060249

C          x = -1.759090  y =  0.583575  z =  0.979681 angstrom
           Maximum rank =  0   Radius =  0.650 angstrom
                   Q00  =  -0.350799

C          x = -0.799090  y = -1.779425  z =  1.950681 angstrom
           Maximum rank =  0   Radius =  0.650 angstrom
                   Q00  =  -0.343113

S          x = -0.503090  y = -0.656425  z =  0.619681 angstrom
           Maximum rank =  0   Radius =  0.650 angstrom
                   Q00  =   0.113925

H          x = -2.688090  y =  0.081575  z =  1.253681 angstrom
           Maximum rank =  0   Radius =  0.325 angstrom
                   Q00  =   0.082661

H          x = -1.950090  y =  1.185575  z =  0.102681 angstrom
           Maximum rank =  0   Radius =  0.325 angstrom
                   Q00  =   0.127012

H          x = -0.206090  y = -2.673425  z =  1.778681 angstrom
           Maximum rank =  0   Radius =  0.325 angstrom
                   Q00  =   0.116007

H          x = -1.853090  y = -2.066425  z =  1.949681 angstrom
           Maximum rank =  0   Radius =  0.325 angstrom
                   Q00  =   0.080626

H          x = -0.566090  y = -1.310425  z =  2.905681 angstrom
           Maximum rank =  0   Radius =  0.325 angstrom
                   Q00  =   0.080840

H          x = -1.430754  y =  1.221444  z =  1.813541 angstrom
           Maximum rank =  0   Radius =  0.325 angstrom
                   Q00  =   0.087645

Total multipoles referred to origin at
           x =   0.000000,  y =    0.000000,  z =    0.000000 angstrom
                   Q00  =   0.000000

Finished at 17:51:25 on 26 Apr 2020

  DMA results are available in the Python driver through the
	  variable('DMA DISTRIBUTED MULTIPOLES')
  and
	  variable('DMA TOTAL MULTIPOLES')
  commands.

    Psi4 stopped on: Sunday, 26 April 2020 05:51PM
    Psi4 wall time for execution: 0:00:19.39

*** Psi4 exiting successfully. Buy a developer a beer!
