                               Psi4 1.3.2 release

  ==> Input File <==

--------------------------------------------------------------------------
import numpy as np
set {scf_type pk
basis cc-pvdz
d_convergence 10
gdma_switch   0
gdma_limit    0
gdma_origin   [ 0.0,  0.0,  0.0 ]
}
molecule test {
    units Angstrom
    0 1
    --
    0 1
    C               -1.128826534869500    -0.315999205293502    -0.338376465828471
    C               -1.388826534869500     0.305000794706498    -1.719376465828471
    C               -1.633826534869500     0.646000794706498     0.750623534171529
    C               -1.834826534869500    -1.671999205293502    -0.230376465828471
    H               -0.059826534869500    -0.473999205293502    -0.211376465828471
    H               -2.452826534869500     0.521000794706498    -1.835376465828471
    H               -2.706826534869500     0.815000794706498     0.645623534171529
    H               -1.437826534869500     0.235000794706498     1.740623534171529
    H               -1.110826534869500     1.601000794706498     0.702623534171529
    H               -2.915826534869500    -1.527999205293502    -0.276376465828471
    H               -1.543826534869500    -2.308999205293502    -1.064376465828471
    H               -1.034266534869500    -0.357289205293502    -2.522896465828470
    H               -0.805316534869500     1.231040794706498    -1.828786465828471
    H               -1.587326534869500    -2.236899205293502     0.680461534171530
    C                2.623173465130500    -0.159999205293502     0.563623534171530
    C                3.212173465130500     1.159000794706498     0.927623534171529
    H                3.380173465130500    -0.939999205293502     0.629623534171529
    H                1.842173465130500    -0.402999205293502     1.286623534171529
    H                2.178173465130500    -0.165999205293502    -0.429376465828471
    H                2.407173465130500     1.886000794706498     1.032623534171529
    H                3.885463465130500     1.485730794706498     0.121440534171529
    H                3.758983465130500     1.091810794706498     1.879717534171529

}
e, wfn = energy('scf', return_wfn=True)
gdma(wfn)
dmavals = variable('DMA DISTRIBUTED MULTIPOLES')
charges = np.array(dmavals)
print(charges)
np.save('SSI-049ILE-100VAL-1-dimer.npy', np.array(charges))--------------------------------------------------------------------------

*** tstart() called on ds3
*** at Mon Apr 27 08:01:06 2020

   => Loading Basis Set <=

    Name: CC-PVDZ
    Role: ORBITAL
    Keyword: BASIS
    atoms 1-4, 15-16  entry C          line   138 file /theoryfs2/ds/metcalf/miniconda2/envs/tf2gpu/share/psi4/basis/cc-pvdz.gbs
    atoms 5-14, 17-22 entry H          line    22 file /theoryfs2/ds/metcalf/miniconda2/envs/tf2gpu/share/psi4/basis/cc-pvdz.gbs

         ---------------------------------------------------------
                                   SCF
               by Justin Turney, Rob Parrish, Andy Simmonett
                          and Daniel G. A. Smith
                              RHF Reference
                        1 Threads,    500 MiB Core
         ---------------------------------------------------------

  ==> Geometry <==

    Molecular point group: c1
    Full point group: C1

    Geometry (in Angstrom), charge = 0, multiplicity = 1:

       Center              X                  Y                   Z               Mass
    ------------   -----------------  -----------------  -----------------  -----------------
         C           -1.128826534869    -0.315999205294    -0.338376465828    12.000000000000
         C           -1.388826534869     0.305000794706    -1.719376465828    12.000000000000
         C           -1.633826534870     0.646000794706     0.750623534172    12.000000000000
         C           -1.834826534870    -1.671999205294    -0.230376465828    12.000000000000
         H           -0.059826534870    -0.473999205294    -0.211376465828     1.007825032230
         H           -2.452826534870     0.521000794706    -1.835376465828     1.007825032230
         H           -2.706826534870     0.815000794706     0.645623534172     1.007825032230
         H           -1.437826534870     0.235000794706     1.740623534172     1.007825032230
         H           -1.110826534869     1.601000794706     0.702623534172     1.007825032230
         H           -2.915826534869    -1.527999205294    -0.276376465828     1.007825032230
         H           -1.543826534869    -2.308999205294    -1.064376465828     1.007825032230
         H           -1.034266534870    -0.357289205294    -2.522896465828     1.007825032230
         H           -0.805316534870     1.231040794706    -1.828786465828     1.007825032230
         H           -1.587326534870    -2.236899205294     0.680461534172     1.007825032230
         C            2.623173465130    -0.159999205294     0.563623534172    12.000000000000
         C            3.212173465130     1.159000794706     0.927623534172    12.000000000000
         H            3.380173465130    -0.939999205294     0.629623534172     1.007825032230
         H            1.842173465130    -0.402999205294     1.286623534172     1.007825032230
         H            2.178173465131    -0.165999205294    -0.429376465828     1.007825032230
         H            2.407173465131     1.886000794706     1.032623534172     1.007825032230
         H            3.885463465131     1.485730794706     0.121440534172     1.007825032230
         H            3.758983465131     1.091810794706     1.879717534172     1.007825032230

  Running in c1 symmetry.

  Rotational constants: A =      0.13690  B =      0.03327  C =      0.03277 [cm^-1]
  Rotational constants: A =   4104.25964  B =    997.47059  C =    982.51845 [MHz]
  Nuclear repulsion =  245.033300534159025

  Charge       = 0
  Multiplicity = 1
  Electrons    = 52
  Nalpha       = 26
  Nbeta        = 26

  ==> Algorithm <==

  SCF Algorithm Type is PK.
  DIIS enabled.
  MOM disabled.
  Fractional occupation disabled.
  Guess Type is SAD.
  Energy threshold   = 1.00e-06
  Density threshold  = 1.00e-10
  Integral threshold = 0.00e+00

  ==> Primary Basis <==

  Basis Set: CC-PVDZ
    Blend: CC-PVDZ
    Number of shells: 84
    Number of basis function: 164
    Number of Cartesian functions: 170
    Spherical Harmonics?: true
    Max angular momentum: 2

  ==> Pre-Iterations <==

   -------------------------------------------------------
    Irrep   Nso     Nmo     Nalpha   Nbeta   Ndocc  Nsocc
   -------------------------------------------------------
     A        164     164       0       0       0       0
   -------------------------------------------------------
    Total     164     164      26      26      26       0
   -------------------------------------------------------

  ==> Integral Setup <==

  Using integral reordering PK algorithm.
  Sizing the integral batches needed.
  Building batch lookup table.
   Calculation information:
      Number of atoms:                  22
      Number of AO shells:              84
      Number of primitives:            212
      Number of atomic orbitals:       170
      Number of basis functions:       164

      Integral cutoff                 1.00e-12
      Number of threads:                 1

	Batch   1 pq = [       0,    9405] index = [             0,44231715] size =     44231715
	Batch   2 pq = [    9405,   13530] index = [      44231715,91537215] size =     47305500
  Task number: 9
  Buffer size: 11059200
  Buffer per thread: 2
  We computed 5697017 shell quartets total.
  Whereas there are 6374235 unique shell quartets.

  ==> DiskJK: Disk-Based J/K Matrices <==

    J tasked:                  Yes
    K tasked:                  Yes
    wK tasked:                  No
    Memory [MiB]:              375
    Schwarz Cutoff:          1E-12

    OpenMP threads:              1

  Minimum eigenvalue in the overlap matrix is 4.6420377016E-03.
  Using Symmetric Orthogonalization.

  SCF Guess: Superposition of Atomic Densities via on-the-fly atomic UHF.

  ==> Iterations <==

                        Total Energy        Delta E     RMS |[F,P]|

   @RHF iter SAD:  -235.44126210386523   -2.35441e+02   0.00000e+00
   @RHF iter   1:  -236.30914552011197   -8.67883e-01   3.56131e-03 DIIS
   @RHF iter   2:  -236.50146104802667   -1.92316e-01   1.56017e-03 DIIS
   @RHF iter   3:  -236.53643864764314   -3.49776e-02   3.13516e-04 DIIS
   @RHF iter   4:  -236.53908885370356   -2.65021e-03   6.74591e-05 DIIS
   @RHF iter   5:  -236.53917012642094   -8.12727e-05   1.58273e-05 DIIS
   @RHF iter   6:  -236.53917565582589   -5.52940e-06   2.68390e-06 DIIS
   @RHF iter   7:  -236.53917583575802   -1.79932e-07   6.48380e-07 DIIS
   @RHF iter   8:  -236.53917584730382   -1.15458e-08   1.58815e-07 DIIS
   @RHF iter   9:  -236.53917584800959   -7.05768e-10   4.47064e-08 DIIS
   @RHF iter  10:  -236.53917584807641   -6.68194e-11   9.86203e-09 DIIS
   @RHF iter  11:  -236.53917584807877   -2.35900e-12   2.05520e-09 DIIS
   @RHF iter  12:  -236.53917584807917   -3.97904e-13   4.46463e-10 DIIS
   @RHF iter  13:  -236.53917584807937   -1.98952e-13   1.15948e-10 DIIS
   @RHF iter  14:  -236.53917584807868    6.82121e-13   2.74619e-11 DIIS
  Energy and wave function converged.

  ==> Post-Iterations <==

    Orbital Energies [Eh]
    ---------------------

    Doubly Occupied:

       1A    -11.224051     2A    -11.217774     3A    -11.216149
       4A    -11.214717     5A    -11.213737     6A    -11.213679
       7A     -1.078323     8A     -1.029906     9A     -0.925464
      10A     -0.922676    11A     -0.835280    12A     -0.765309
      13A     -0.633868    14A     -0.604727    15A     -0.602904
      16A     -0.583605    17A     -0.581653    18A     -0.536980
      19A     -0.533434    20A     -0.512710    21A     -0.502364
      22A     -0.486299    23A     -0.480878    24A     -0.459435
      25A     -0.457331    26A     -0.453398

    Virtual:

      27A      0.160707    28A      0.197061    29A      0.209709
      30A      0.219154    31A      0.226599    32A      0.244270
      33A      0.254897    34A      0.256061    35A      0.260700
      36A      0.274495    37A      0.295493    38A      0.303823
      39A      0.306234    40A      0.310218    41A      0.331135
      42A      0.336650    43A      0.370079    44A      0.403466
      45A      0.409909    46A      0.412002    47A      0.562726
      48A      0.565642    49A      0.590477    50A      0.600820
      51A      0.608673    52A      0.614153    53A      0.634586
      54A      0.636019    55A      0.683532    56A      0.726589
      57A      0.787062    58A      0.793863    59A      0.807720
      60A      0.827356    61A      0.854414    62A      0.862637
      63A      0.867379    64A      0.880062    65A      0.886834
      66A      0.889896    67A      0.896842    68A      0.899105
      69A      0.904320    70A      0.910326    71A      0.911627
      72A      0.914653    73A      0.934999    74A      0.945461
      75A      0.955408    76A      0.965409    77A      0.971682
      78A      0.984361    79A      0.998332    80A      1.018881
      81A      1.125518    82A      1.130154    83A      1.137673
      84A      1.145671    85A      1.236626    86A      1.296203
      87A      1.369423    88A      1.394738    89A      1.401310
      90A      1.476440    91A      1.499656    92A      1.535761
      93A      1.547696    94A      1.569054    95A      1.658808
      96A      1.670147    97A      1.679035    98A      1.685127
      99A      1.693712   100A      1.698086   101A      1.705796
     102A      1.710444   103A      1.726319   104A      1.837432
     105A      1.845743   106A      1.849245   107A      1.858606
     108A      1.895539   109A      1.923046   110A      1.929179
     111A      1.932614   112A      1.938221   113A      1.950137
     114A      1.952803   115A      1.958425   116A      1.968850
     117A      1.972163   118A      1.978784   119A      1.989355
     120A      1.999644   121A      2.003915   122A      2.022539
     123A      2.063343   124A      2.074554   125A      2.095521
     126A      2.104552   127A      2.107341   128A      2.132126
     129A      2.143716   130A      2.244123   131A      2.256616
     132A      2.303722   133A      2.313317   134A      2.321566
     135A      2.334054   136A      2.343493   137A      2.352903
     138A      2.375674   139A      2.454075   140A      2.472336
     141A      2.485241   142A      2.559998   143A      2.576704
     144A      2.589958   145A      2.606610   146A      2.624318
     147A      2.704228   148A      2.706525   149A      2.751002
     150A      2.760598   151A      2.781485   152A      2.787307
     153A      2.790004   154A      2.800091   155A      2.829041
     156A      2.841157   157A      2.848468   158A      2.850965
     159A      2.879409   160A      2.964417   161A      2.975931
     162A      3.026719   163A      3.028826   164A      3.158312

    Final Occupation by Irrep:
              A
    DOCC [    26 ]

  @RHF Final Energy:  -236.53917584807868

   => Energetics <=

    Nuclear Repulsion Energy =            245.0333005341590251
    One-Electron Energy =                -802.5716500708290368
    Two-Electron Energy =                 320.9991736885913269
    Total Energy =                       -236.5391758480786848

Computation Completed

Properties will be evaluated at   0.000000,   0.000000,   0.000000 [a0]

Properties computed using the SCF density matrix

  Nuclear Dipole Moment: [e a0]
     X:     1.6851      Y:     0.4241      Z:     0.5164

  Electronic Dipole Moment: [e a0]
     X:    -1.6079      Y:    -0.4380      Z:    -0.5016

  Dipole Moment: [e a0]
     X:     0.0771      Y:    -0.0138      Z:     0.0147     Total:     0.0798

  Dipole Moment: [D]
     X:     0.1961      Y:    -0.0352      Z:     0.0374     Total:     0.2027

*** tstop() called on ds3 at Mon Apr 27 08:02:40 2020
Module time:
	user time   =      29.25 seconds =       0.49 minutes
	system time =      10.16 seconds =       0.17 minutes
	total time  =         94 seconds =       1.57 minutes
Total time:
	user time   =      29.25 seconds =       0.49 minutes
	system time =      10.16 seconds =       0.17 minutes
	total time  =         94 seconds =       1.57 minutes
                                     G D M A

                                 by Anthony Stone

                           version 2.2.06, 22 June 2011

               Distributed Multipoles from Gaussian wavefunctions

Starting at 8:2:40 on 27 Apr 2020

Using SCF density matrix from file ./SSI/SSI-049ILE-100VAL-1-dimer.test.481.fchk

                         Distributed Multipole Analysis

Standard DMA

Positions and radii in angstrom
Multipole moments in atomic units, ea_0^k for rank k

C          x = -1.128827  y = -0.315999  z = -0.338376 angstrom
           Maximum rank =  0   Radius =  0.650 angstrom
                   Q00  =   0.012458

C          x = -1.388827  y =  0.305001  z = -1.719376 angstrom
           Maximum rank =  0   Radius =  0.650 angstrom
                   Q00  =  -0.247047

C          x = -1.633827  y =  0.646001  z =  0.750624 angstrom
           Maximum rank =  0   Radius =  0.650 angstrom
                   Q00  =  -0.254185

C          x = -1.834827  y = -1.671999  z = -0.230376 angstrom
           Maximum rank =  0   Radius =  0.650 angstrom
                   Q00  =  -0.253242

H          x = -0.059827  y = -0.473999  z = -0.211376 angstrom
           Maximum rank =  0   Radius =  0.325 angstrom
                   Q00  =   0.030661

H          x = -2.452827  y =  0.521001  z = -1.835376 angstrom
           Maximum rank =  0   Radius =  0.325 angstrom
                   Q00  =   0.079468

H          x = -2.706827  y =  0.815001  z =  0.645624 angstrom
           Maximum rank =  0   Radius =  0.325 angstrom
                   Q00  =   0.078932

H          x = -1.437827  y =  0.235001  z =  1.740624 angstrom
           Maximum rank =  0   Radius =  0.325 angstrom
                   Q00  =   0.079537

H          x = -1.110827  y =  1.601001  z =  0.702624 angstrom
           Maximum rank =  0   Radius =  0.325 angstrom
                   Q00  =   0.080399

H          x = -2.915827  y = -1.527999  z = -0.276376 angstrom
           Maximum rank =  0   Radius =  0.325 angstrom
                   Q00  =   0.074868

H          x = -1.543827  y = -2.308999  z = -1.064376 angstrom
           Maximum rank =  0   Radius =  0.325 angstrom
                   Q00  =   0.078727

H          x = -1.034267  y = -0.357289  z = -2.522896 angstrom
           Maximum rank =  0   Radius =  0.325 angstrom
                   Q00  =   0.079190

H          x = -0.805317  y =  1.231041  z = -1.828786 angstrom
           Maximum rank =  0   Radius =  0.325 angstrom
                   Q00  =   0.078055

H          x = -1.587327  y = -2.236899  z =  0.680462 angstrom
           Maximum rank =  0   Radius =  0.325 angstrom
                   Q00  =   0.081780

C          x =  2.623173  y = -0.159999  z =  0.563624 angstrom
           Maximum rank =  0   Radius =  0.650 angstrom
                   Q00  =  -0.236612

C          x =  3.212173  y =  1.159001  z =  0.927624 angstrom
           Maximum rank =  0   Radius =  0.650 angstrom
                   Q00  =  -0.212877

H          x =  3.380173  y = -0.939999  z =  0.629624 angstrom
           Maximum rank =  0   Radius =  0.325 angstrom
                   Q00  =   0.075563

H          x =  1.842173  y = -0.402999  z =  1.286624 angstrom
           Maximum rank =  0   Radius =  0.325 angstrom
                   Q00  =   0.070373

H          x =  2.178173  y = -0.165999  z = -0.429376 angstrom
           Maximum rank =  0   Radius =  0.325 angstrom
                   Q00  =   0.078175

H          x =  2.407173  y =  1.886001  z =  1.032624 angstrom
           Maximum rank =  0   Radius =  0.325 angstrom
                   Q00  =   0.074312

H          x =  3.885463  y =  1.485731  z =  0.121441 angstrom
           Maximum rank =  0   Radius =  0.325 angstrom
                   Q00  =   0.073417

H          x =  3.758983  y =  1.091811  z =  1.879718 angstrom
           Maximum rank =  0   Radius =  0.325 angstrom
                   Q00  =   0.078049

Total multipoles referred to origin at
           x =   0.000000,  y =    0.000000,  z =    0.000000 angstrom
                   Q00  =  -0.000000

Finished at 8:2:40 on 27 Apr 2020

  DMA results are available in the Python driver through the
	  variable('DMA DISTRIBUTED MULTIPOLES')
  and
	  variable('DMA TOTAL MULTIPOLES')
  commands.

    Psi4 stopped on: Monday, 27 April 2020 08:02AM
    Psi4 wall time for execution: 0:01:34.72

*** Psi4 exiting successfully. Buy a developer a beer!
