                               Psi4 1.3.2 release

  ==> Input File <==

--------------------------------------------------------------------------
import numpy as np
set {scf_type pk
basis cc-pvdz
d_convergence 10
gdma_switch   0
gdma_limit    0
gdma_origin   [ 0.0,  0.0,  0.0 ]
}
molecule test {
    units Angstrom
    0 1
    --
    0 1
    C                0.118160749371608    -1.068383655034642    -2.170785604850852
    C               -0.472839250628392    -2.430383655034642    -2.618785604850852
    C               -0.503839250628392    -0.492383655034642    -0.895785604850852
    C               -1.665839250628392     0.218616344965358    -0.785785604850852
    C               -0.000839250628392    -0.643383655034642     0.441214395149148
    C               -0.912839250628392     0.006616344965358     1.317214395149148
    C                1.134160749371608    -1.264383655034642     0.991214395149148
    C               -0.730839250628392     0.062616344965358     2.689214395149147
    C                1.318160749371608    -1.223383655034642     2.375214395149147
    C                0.394160749371608    -0.560383655034642     3.212214395149148
    N               -1.914839250628392     0.519616344965358     0.539214395149148
    H                1.199160749371608    -1.141383655034642    -2.006785604850853
    H               -0.060839250628392    -0.351383655034642    -2.972785604850852
    H                0.039160749371608    -2.764383655034642    -3.525785604850852
    H               -2.239839250628392     0.456616344965358    -1.676785604850852
    H               -2.710839250628392     1.040616344965358     0.890214395149148
    H                1.868160749371608    -1.771383655034642     0.376214395149148
    H               -1.458839250628392     0.578616344965358     3.303214395149148
    H                2.186160749371608    -1.712383655034642     2.791214395149147
    H                0.559160749371608    -0.534383655034642     4.280214395149148
    H               -1.547989250628392    -2.328483655034642    -2.827775604850852
    H               -0.293229250628392    -3.189383655034641    -1.843125604850852
    C                1.214160749371608     2.440616344965358    -1.692785604850852
    C                1.795160749371608     3.764616344965358    -2.231785604850852
    H                1.495160749371608     2.310616344965359    -0.646785604850852
    H                0.123160749371608     2.463616344965358    -1.767785604850852
    H                1.595160749371608     1.602616344965358    -2.275785604850852
    H                1.496160749371608     3.879616344965358    -3.274785604850852
    H                2.892450749371608     3.799116344965358    -2.162785604850852
    H                1.377150749371608     4.606416344965357    -1.660255604850852

}
e, wfn = energy('scf', return_wfn=True)
gdma(wfn)
dmavals = variable('DMA DISTRIBUTED MULTIPOLES')
charges = np.array(dmavals)
print(charges)
np.save('SSI-237TRP-249ALA-1-dimer.npy', np.array(charges))--------------------------------------------------------------------------

*** tstart() called on ds3
*** at Tue Apr 28 16:19:24 2020

   => Loading Basis Set <=

    Name: CC-PVDZ
    Role: ORBITAL
    Keyword: BASIS
    atoms 1-10, 23-24  entry C          line   138 file /theoryfs2/ds/metcalf/miniconda2/envs/tf2gpu/share/psi4/basis/cc-pvdz.gbs
    atoms 11           entry N          line   168 file /theoryfs2/ds/metcalf/miniconda2/envs/tf2gpu/share/psi4/basis/cc-pvdz.gbs
    atoms 12-22, 25-30 entry H          line    22 file /theoryfs2/ds/metcalf/miniconda2/envs/tf2gpu/share/psi4/basis/cc-pvdz.gbs

         ---------------------------------------------------------
                                   SCF
               by Justin Turney, Rob Parrish, Andy Simmonett
                          and Daniel G. A. Smith
                              RHF Reference
                        1 Threads,    500 MiB Core
         ---------------------------------------------------------

  ==> Geometry <==

    Molecular point group: c1
    Full point group: C1

    Geometry (in Angstrom), charge = 0, multiplicity = 1:

       Center              X                  Y                   Z               Mass
    ------------   -----------------  -----------------  -----------------  -----------------
         C            0.118160749372    -1.068383655035    -2.170785604851    12.000000000000
         C           -0.472839250628    -2.430383655035    -2.618785604851    12.000000000000
         C           -0.503839250628    -0.492383655035    -0.895785604851    12.000000000000
         C           -1.665839250628     0.218616344965    -0.785785604851    12.000000000000
         C           -0.000839250628    -0.643383655035     0.441214395149    12.000000000000
         C           -0.912839250628     0.006616344965     1.317214395149    12.000000000000
         C            1.134160749372    -1.264383655035     0.991214395149    12.000000000000
         C           -0.730839250628     0.062616344965     2.689214395149    12.000000000000
         C            1.318160749372    -1.223383655035     2.375214395149    12.000000000000
         C            0.394160749372    -0.560383655035     3.212214395149    12.000000000000
         N           -1.914839250628     0.519616344965     0.539214395149    14.003074004430
         H            1.199160749372    -1.141383655035    -2.006785604851     1.007825032230
         H           -0.060839250628    -0.351383655035    -2.972785604851     1.007825032230
         H            0.039160749372    -2.764383655035    -3.525785604851     1.007825032230
         H           -2.239839250628     0.456616344965    -1.676785604851     1.007825032230
         H           -2.710839250628     1.040616344965     0.890214395149     1.007825032230
         H            1.868160749372    -1.771383655035     0.376214395149     1.007825032230
         H           -1.458839250628     0.578616344965     3.303214395149     1.007825032230
         H            2.186160749372    -1.712383655035     2.791214395149     1.007825032230
         H            0.559160749372    -0.534383655035     4.280214395149     1.007825032230
         H           -1.547989250628    -2.328483655035    -2.827775604851     1.007825032230
         H           -0.293229250628    -3.189383655035    -1.843125604851     1.007825032230
         C            1.214160749372     2.440616344965    -1.692785604851    12.000000000000
         C            1.795160749372     3.764616344965    -2.231785604851    12.000000000000
         H            1.495160749372     2.310616344965    -0.646785604851     1.007825032230
         H            0.123160749372     2.463616344965    -1.767785604851     1.007825032230
         H            1.595160749372     1.602616344965    -2.275785604851     1.007825032230
         H            1.496160749372     3.879616344965    -3.274785604851     1.007825032230
         H            2.892450749372     3.799116344965    -2.162785604851     1.007825032230
         H            1.377150749372     4.606416344965    -1.660255604851     1.007825032230

  Running in c1 symmetry.

  Rotational constants: A =      0.02605  B =      0.01754  C =      0.01424 [cm^-1]
  Rotational constants: A =    781.05812  B =    525.78420  C =    426.90837 [MHz]
  Nuclear repulsion =  756.391902189028315

  Charge       = 0
  Multiplicity = 1
  Electrons    = 96
  Nalpha       = 48
  Nbeta        = 48

  ==> Algorithm <==

  SCF Algorithm Type is PK.
  DIIS enabled.
  MOM disabled.
  Fractional occupation disabled.
  Guess Type is SAD.
  Energy threshold   = 1.00e-06
  Density threshold  = 1.00e-10
  Integral threshold = 0.00e+00

  ==> Primary Basis <==

  Basis Set: CC-PVDZ
    Blend: CC-PVDZ
    Number of shells: 129
    Number of basis function: 267
    Number of Cartesian functions: 280
    Spherical Harmonics?: true
    Max angular momentum: 2

  ==> Pre-Iterations <==

   -------------------------------------------------------
    Irrep   Nso     Nmo     Nalpha   Nbeta   Ndocc  Nsocc
   -------------------------------------------------------
     A        267     267       0       0       0       0
   -------------------------------------------------------
    Total     267     267      48      48      48       0
   -------------------------------------------------------

  ==> Integral Setup <==

  Using integral reordering PK algorithm.
  Sizing the integral batches needed.
  Building batch lookup table.
   Calculation information:
      Number of atoms:                  30
      Number of AO shells:             129
      Number of primitives:            371
      Number of atomic orbitals:       280
      Number of basis functions:       267

      Integral cutoff                 1.00e-12
      Number of threads:                 1

	Batch   1 pq = [       0,    9405] index = [             0,44231715] size =     44231715
	Batch   2 pq = [    9405,   13301] index = [      44231715,88464951] size =     44233236
	Batch   3 pq = [   13301,   16290] index = [      88464951,132690195] size =     44225244
	Batch   4 pq = [   16290,   18810] index = [     132690195,176917455] size =     44227260
	Batch   5 pq = [   18810,   21030] index = [     176917455,221140965] size =     44223510
	Batch   6 pq = [   21030,   23037] index = [     221140965,265363203] size =     44222238
	Batch   7 pq = [   23037,   24883] index = [     265363203,309594286] size =     44231083
	Batch   8 pq = [   24883,   26601] index = [     309594286,353819901] size =     44225615
	Batch   9 pq = [   26601,   28214] index = [     353819901,398029005] size =     44209104
	Batch  10 pq = [   28214,   29740] index = [     398029005,442248670] size =     44219665
	Batch  11 pq = [   29740,   31191] index = [     442248670,486454836] size =     44206166
	Batch  12 pq = [   31191,   32578] index = [     486454836,530679331] size =     44224495
	Batch  13 pq = [   32578,   33908] index = [     530679331,574893186] size =     44213855
	Batch  14 pq = [   33908,   35188] index = [     574893186,619115266] size =     44222080
	Batch  15 pq = [   35188,   35778] index = [     619115266,640050531] size =     20935265
  Task number: 58
  Buffer size: 11059200
  Buffer per thread: 2
  We computed 36120642 shell quartets total.
  Whereas there are 35158305 unique shell quartets.
     2.74 percent of shell quartets recomputed by reordering.

  ==> DiskJK: Disk-Based J/K Matrices <==

    J tasked:                  Yes
    K tasked:                  Yes
    wK tasked:                  No
    Memory [MiB]:              375
    Schwarz Cutoff:          1E-12

    OpenMP threads:              1

  Minimum eigenvalue in the overlap matrix is 2.4447306759E-04.
  Using Symmetric Orthogonalization.

  SCF Guess: Superposition of Atomic Densities via on-the-fly atomic UHF.

  ==> Iterations <==

                        Total Energy        Delta E     RMS |[F,P]|

   @RHF iter SAD:  -517.85803293525009   -5.17858e+02   0.00000e+00
   @RHF iter   1:  -518.49741882874696   -6.39386e-01   2.46276e-03 DIIS
   @RHF iter   2:  -518.74929574805333   -2.51877e-01   1.10178e-03 DIIS
   @RHF iter   3:  -518.79504410411471   -4.57484e-02   2.94477e-04 DIIS
   @RHF iter   4:  -518.79932463697924   -4.28053e-03   1.37476e-04 DIIS
   @RHF iter   5:  -518.80008319650335   -7.58560e-04   1.90212e-05 DIIS
   @RHF iter   6:  -518.80011465698624   -3.14605e-05   8.72889e-06 DIIS
   @RHF iter   7:  -518.80012087611487   -6.21913e-06   3.64284e-06 DIIS
   @RHF iter   8:  -518.80012266253948   -1.78642e-06   1.45526e-06 DIIS
   @RHF iter   9:  -518.80012305252023   -3.89981e-07   6.48761e-07 DIIS
   @RHF iter  10:  -518.80012313002953   -7.75093e-08   2.96591e-07 DIIS
   @RHF iter  11:  -518.80012314800683   -1.79773e-08   1.13229e-07 DIIS
   @RHF iter  12:  -518.80012315066085   -2.65402e-09   4.28236e-08 DIIS
   @RHF iter  13:  -518.80012315088936   -2.28511e-10   1.36106e-08 DIIS
   @RHF iter  14:  -518.80012315090312   -1.37561e-11   4.97621e-09 DIIS
   @RHF iter  15:  -518.80012315090710   -3.97904e-12   2.20335e-09 DIIS
   @RHF iter  16:  -518.80012315091051   -3.41061e-12   9.88019e-10 DIIS
   @RHF iter  17:  -518.80012315090460    5.91172e-12   4.56715e-10 DIIS
   @RHF iter  18:  -518.80012315090926   -4.66116e-12   1.77216e-10 DIIS
   @RHF iter  19:  -518.80012315091096   -1.70530e-12   6.70642e-11 DIIS
  Energy and wave function converged.

  ==> Post-Iterations <==

    Orbital Energies [Eh]
    ---------------------

    Doubly Occupied:

       1A    -15.603592     2A    -11.264732     3A    -11.263005
       4A    -11.232386     5A    -11.231707     6A    -11.231561
       7A    -11.230218     8A    -11.222296     9A    -11.221713
      10A    -11.221021    11A    -11.216106    12A    -11.213459
      13A    -11.208179    14A     -1.293754    15A     -1.125229
      16A     -1.077577    17A     -1.011516    18A     -1.005945
      19A     -0.990694    20A     -0.965643    21A     -0.856604
      22A     -0.835317    23A     -0.829006    24A     -0.804039
      25A     -0.745584    26A     -0.718593    27A     -0.665332
      28A     -0.638467    29A     -0.612988    30A     -0.594093
      31A     -0.588759    32A     -0.588136    33A     -0.586721
      34A     -0.583921    35A     -0.570718    36A     -0.542687
      37A     -0.513752    38A     -0.505896    39A     -0.499621
      40A     -0.487543    41A     -0.482404    42A     -0.478485
      43A     -0.477417    44A     -0.461485    45A     -0.458611
      46A     -0.372532    47A     -0.294128    48A     -0.273480

    Virtual:

      49A      0.123665    50A      0.169335    51A      0.173147
      52A      0.181434    53A      0.196003    54A      0.200618
      55A      0.217084    56A      0.223163    57A      0.231426
      58A      0.234906    59A      0.255904    60A      0.260486
      61A      0.261694    62A      0.270467    63A      0.276168
      64A      0.285790    65A      0.293856    66A      0.296644
      67A      0.306239    68A      0.329945    69A      0.371738
      70A      0.382274    71A      0.393427    72A      0.403175
      73A      0.421731    74A      0.426102    75A      0.447094
      76A      0.467894    77A      0.480371    78A      0.505542
      79A      0.517051    80A      0.572617    81A      0.597358
      82A      0.600330    83A      0.604970    84A      0.610784
      85A      0.620235    86A      0.636824    87A      0.650085
      88A      0.657083    89A      0.678529    90A      0.696439
      91A      0.702138    92A      0.713119    93A      0.724750
      94A      0.730097    95A      0.738257    96A      0.746023
      97A      0.752000    98A      0.759118    99A      0.764989
     100A      0.777769   101A      0.786772   102A      0.796695
     103A      0.804117   104A      0.830424   105A      0.845311
     106A      0.863451   107A      0.871384   108A      0.880455
     109A      0.888065   110A      0.892263   111A      0.894203
     112A      0.900513   113A      0.902433   114A      0.907956
     115A      0.920460   116A      0.922290   117A      0.927549
     118A      0.938872   119A      0.942530   120A      0.946301
     121A      0.960250   122A      0.972619   123A      0.978683
     124A      0.981714   125A      0.991271   126A      1.002928
     127A      1.032446   128A      1.036107   129A      1.068814
     130A      1.081858   131A      1.092785   132A      1.130338
     133A      1.133437   134A      1.139570   135A      1.143169
     136A      1.150891   137A      1.158840   138A      1.169971
     139A      1.200859   140A      1.217655   141A      1.230158
     142A      1.234943   143A      1.247637   144A      1.259626
     145A      1.284952   146A      1.287396   147A      1.300306
     148A      1.328163   149A      1.336525   150A      1.355951
     151A      1.364948   152A      1.387983   153A      1.417481
     154A      1.424994   155A      1.460934   156A      1.475760
     157A      1.485613   158A      1.510151   159A      1.524170
     160A      1.575472   161A      1.593904   162A      1.608221
     163A      1.632807   164A      1.647364   165A      1.667335
     166A      1.685103   167A      1.689619   168A      1.702773
     169A      1.727775   170A      1.738587   171A      1.753804
     172A      1.772455   173A      1.782549   174A      1.798570
     175A      1.822018   176A      1.839469   177A      1.852476
     178A      1.869119   179A      1.876467   180A      1.887113
     181A      1.891633   182A      1.902598   183A      1.906851
     184A      1.909082   185A      1.916648   186A      1.920785
     187A      1.925660   188A      1.928874   189A      1.945085
     190A      1.950428   191A      1.953257   192A      1.962874
     193A      1.964106   194A      1.971987   195A      1.977926
     196A      1.988751   197A      1.998971   198A      2.005695
     199A      2.017406   200A      2.045703   201A      2.056230
     202A      2.066801   203A      2.083230   204A      2.086095
     205A      2.090735   206A      2.094100   207A      2.108733
     208A      2.124500   209A      2.131696   210A      2.149957
     211A      2.156400   212A      2.159203   213A      2.167015
     214A      2.171341   215A      2.228511   216A      2.250132
     217A      2.275444   218A      2.287322   219A      2.301845
     220A      2.317890   221A      2.329517   222A      2.336670
     223A      2.351295   224A      2.361662   225A      2.366545
     226A      2.400379   227A      2.448766   228A      2.463381
     229A      2.469913   230A      2.478677   231A      2.506802
     232A      2.540941   233A      2.551129   234A      2.562254
     235A      2.579190   236A      2.583438   237A      2.598969
     238A      2.629612   239A      2.672361   240A      2.706075
     241A      2.715842   242A      2.762038   243A      2.767361
     244A      2.769825   245A      2.777707   246A      2.788483
     247A      2.799187   248A      2.803861   249A      2.851812
     250A      2.857929   251A      2.869701   252A      2.876840
     253A      2.904369   254A      2.917934   255A      2.946029
     256A      2.961248   257A      2.967885   258A      2.974301
     259A      3.036166   260A      3.056310   261A      3.081832
     262A      3.108610   263A      3.203135   264A      3.292431
     265A      3.372721   266A      3.745436   267A      3.939411

    Final Occupation by Irrep:
              A
    DOCC [    48 ]

  @RHF Final Energy:  -518.80012315091096

   => Energetics <=

    Nuclear Repulsion Energy =            756.3919021890283148
    One-Electron Energy =               -2202.5907494944376595
    Two-Electron Energy =                 927.3987241544983817
    Total Energy =                       -518.8001231509109630

Computation Completed

Properties will be evaluated at   0.000000,   0.000000,   0.000000 [a0]

Properties computed using the SCF density matrix

  Nuclear Dipole Moment: [e a0]
     X:     6.1174      Y:     6.5089      Z:   -14.0638

  Electronic Dipole Moment: [e a0]
     X:    -6.8070      Y:    -6.1997      Z:    13.9102

  Dipole Moment: [e a0]
     X:    -0.6897      Y:     0.3092      Z:    -0.1536     Total:     0.7712

  Dipole Moment: [D]
     X:    -1.7529      Y:     0.7859      Z:    -0.3903     Total:     1.9603

*** tstop() called on ds3 at Tue Apr 28 16:35:22 2020
Module time:
	user time   =     278.05 seconds =       4.63 minutes
	system time =     100.70 seconds =       1.68 minutes
	total time  =        958 seconds =      15.97 minutes
Total time:
	user time   =     278.05 seconds =       4.63 minutes
	system time =     100.70 seconds =       1.68 minutes
	total time  =        958 seconds =      15.97 minutes
                                     G D M A

                                 by Anthony Stone

                           version 2.2.06, 22 June 2011

               Distributed Multipoles from Gaussian wavefunctions

Starting at 16:35:22 on 28 Apr 2020

Using SCF density matrix from file ./SSI/SSI-237TRP-249ALA-1-dimer.test.5646.fchk

                         Distributed Multipole Analysis

Standard DMA

Positions and radii in angstrom
Multipole moments in atomic units, ea_0^k for rank k

C          x =  0.118161  y = -1.068384  z = -2.170786 angstrom
           Maximum rank =  0   Radius =  0.650 angstrom
                   Q00  =  -0.051796

C          x = -0.472839  y = -2.430384  z = -2.618786 angstrom
           Maximum rank =  0   Radius =  0.650 angstrom
                   Q00  =  -0.240961

C          x = -0.503839  y = -0.492384  z = -0.895786 angstrom
           Maximum rank =  0   Radius =  0.650 angstrom
                   Q00  =  -0.138522

C          x = -1.665839  y =  0.218616  z = -0.785786 angstrom
           Maximum rank =  0   Radius =  0.650 angstrom
                   Q00  =   0.070020

C          x = -0.000839  y = -0.643384  z =  0.441214 angstrom
           Maximum rank =  0   Radius =  0.650 angstrom
                   Q00  =  -0.042556

C          x = -0.912839  y =  0.006616  z =  1.317214 angstrom
           Maximum rank =  0   Radius =  0.650 angstrom
                   Q00  =   0.287527

C          x =  1.134161  y = -1.264384  z =  0.991214 angstrom
           Maximum rank =  0   Radius =  0.650 angstrom
                   Q00  =  -0.100390

C          x = -0.730839  y =  0.062616  z =  2.689214 angstrom
           Maximum rank =  0   Radius =  0.650 angstrom
                   Q00  =  -0.121406

C          x =  1.318161  y = -1.223384  z =  2.375214 angstrom
           Maximum rank =  0   Radius =  0.650 angstrom
                   Q00  =  -0.081817

C          x =  0.394161  y = -0.560384  z =  3.212214 angstrom
           Maximum rank =  0   Radius =  0.650 angstrom
                   Q00  =  -0.076913

N          x = -1.914839  y =  0.519616  z =  0.539214 angstrom
           Maximum rank =  0   Radius =  0.650 angstrom
                   Q00  =  -0.495604

H          x =  1.199161  y = -1.141384  z = -2.006786 angstrom
           Maximum rank =  0   Radius =  0.325 angstrom
                   Q00  =   0.078293

H          x = -0.060839  y = -0.351384  z = -2.972786 angstrom
           Maximum rank =  0   Radius =  0.325 angstrom
                   Q00  =   0.071626

H          x =  0.039161  y = -2.764384  z = -3.525786 angstrom
           Maximum rank =  0   Radius =  0.325 angstrom
                   Q00  =   0.080144

H          x = -2.239839  y =  0.456616  z = -1.676786 angstrom
           Maximum rank =  0   Radius =  0.325 angstrom
                   Q00  =   0.103023

H          x = -2.710839  y =  1.040616  z =  0.890214 angstrom
           Maximum rank =  0   Radius =  0.325 angstrom
                   Q00  =   0.218584

H          x =  1.868161  y = -1.771384  z =  0.376214 angstrom
           Maximum rank =  0   Radius =  0.325 angstrom
                   Q00  =   0.068963

H          x = -1.458839  y =  0.578616  z =  3.303214 angstrom
           Maximum rank =  0   Radius =  0.325 angstrom
                   Q00  =   0.074991

H          x =  2.186161  y = -1.712384  z =  2.791214 angstrom
           Maximum rank =  0   Radius =  0.325 angstrom
                   Q00  =   0.061647

H          x =  0.559161  y = -0.534384  z =  4.280214 angstrom
           Maximum rank =  0   Radius =  0.325 angstrom
                   Q00  =   0.065892

H          x = -1.547989  y = -2.328484  z = -2.827776 angstrom
           Maximum rank =  0   Radius =  0.325 angstrom
                   Q00  =   0.083143

H          x = -0.293229  y = -3.189384  z = -1.843126 angstrom
           Maximum rank =  0   Radius =  0.325 angstrom
                   Q00  =   0.087969

C          x =  1.214161  y =  2.440616  z = -1.692786 angstrom
           Maximum rank =  0   Radius =  0.650 angstrom
                   Q00  =  -0.234683

C          x =  1.795161  y =  3.764616  z = -2.231786 angstrom
           Maximum rank =  0   Radius =  0.650 angstrom
                   Q00  =  -0.240696

H          x =  1.495161  y =  2.310616  z = -0.646786 angstrom
           Maximum rank =  0   Radius =  0.325 angstrom
                   Q00  =   0.088312

H          x =  0.123161  y =  2.463616  z = -1.767786 angstrom
           Maximum rank =  0   Radius =  0.325 angstrom
                   Q00  =   0.077801

H          x =  1.595161  y =  1.602616  z = -2.275786 angstrom
           Maximum rank =  0   Radius =  0.325 angstrom
                   Q00  =   0.076648

H          x =  1.496161  y =  3.879616  z = -3.274786 angstrom
           Maximum rank =  0   Radius =  0.325 angstrom
                   Q00  =   0.074657

H          x =  2.892451  y =  3.799116  z = -2.162786 angstrom
           Maximum rank =  0   Radius =  0.325 angstrom
                   Q00  =   0.080457

H          x =  1.377151  y =  4.606416  z = -1.660256 angstrom
           Maximum rank =  0   Radius =  0.325 angstrom
                   Q00  =   0.075649

Total multipoles referred to origin at
           x =   0.000000,  y =    0.000000,  z =    0.000000 angstrom
                   Q00  =  -0.000000

Finished at 16:35:22 on 28 Apr 2020

  DMA results are available in the Python driver through the
	  variable('DMA DISTRIBUTED MULTIPOLES')
  and
	  variable('DMA TOTAL MULTIPOLES')
  commands.

    Psi4 stopped on: Tuesday, 28 April 2020 04:35PM
    Psi4 wall time for execution: 0:15:58.74

*** Psi4 exiting successfully. Buy a developer a beer!
