                               Psi4 1.3.2 release

  ==> Input File <==

--------------------------------------------------------------------------
import numpy as np
set {scf_type pk
basis cc-pvdz
d_convergence 10
gdma_switch   0
gdma_limit    0
gdma_origin   [ 0.0,  0.0,  0.0 ]
}
molecule test {
    units Angstrom
    0 1
    --
    0 1
    C               -0.429364967930655     0.391826588791545     4.269882374080644
    C                1.878635032069345     0.571826588791545     1.244882374080644
    C                1.021635032069345     0.945826588791545     2.285882374080644
    C                2.146635032069346    -0.764173411208455     1.022882374080644
    C                0.443635032069345    -0.023173411208455     3.111882374080643
    C                1.588635032069345    -1.730173411208455     1.835882374080644
    C                0.737635032069345    -1.369173411208455     2.873882374080643
    H                2.324635032069346     1.328826588791545     0.615882374080644
    H                0.823635032069345     1.990826588791545     2.461882374080643
    H                2.809635032069346    -1.047173411208455     0.217882374080644
    H                1.850635032069345    -2.762173411208455     1.681882374080644
    H                0.071635032069345     1.202826588791545     4.798882374080645
    H               -0.525364967930654    -0.441173411208455     4.965882374080644
    H                0.320635032069345    -2.134173411208455     3.513882374080644
    H               -1.430943967930655     0.732850488791545     3.968979374080644
    C                0.001635032069345    -1.903173411208455    -2.016117625919356
    C               -0.521364967930655     0.461826588791545    -1.343117625919356
    C               -0.604364967930655    -0.561173411208455    -2.278117625919356
    C               -1.102364967930655     1.706826588791545    -1.557117625919356
    C               -1.356364967930655    -0.343173411208455    -3.410117625919356
    C               -1.805364967930654     1.924826588791545    -2.721117625919356
    C               -1.940364967930654     0.889826588791545    -3.623117625919356
    H               -0.002364967930655     0.285826588791545    -0.417117625919356
    H               -1.008364967930655     2.487826588791545    -0.816117625919356
    H               -0.745364967930655    -2.642173411208455    -2.204117625919356
    H                0.310635032069345    -1.971173411208455    -0.972117625919356
    H               -1.516364967930655    -1.134173411208455    -4.126117625919356
    H               -2.286364967930655     2.874826588791545    -2.906117625919356
    H               -2.550364967930654     1.010826588791545    -4.499117625919355
    H                0.852855032069346    -2.146788411208455    -2.668862625919356

}
e, wfn = energy('scf', return_wfn=True)
gdma(wfn)
dmavals = variable('DMA DISTRIBUTED MULTIPOLES')
charges = np.array(dmavals)
print(charges)
np.save('SSI-042PHE-054PHE-1-dimer.npy', np.array(charges))--------------------------------------------------------------------------

*** tstart() called on ds3
*** at Sun Apr 26 17:07:48 2020

   => Loading Basis Set <=

    Name: CC-PVDZ
    Role: ORBITAL
    Keyword: BASIS
    atoms 1-7, 16-22  entry C          line   138 file /theoryfs2/ds/metcalf/miniconda2/envs/tf2gpu/share/psi4/basis/cc-pvdz.gbs
    atoms 8-15, 23-30 entry H          line    22 file /theoryfs2/ds/metcalf/miniconda2/envs/tf2gpu/share/psi4/basis/cc-pvdz.gbs

         ---------------------------------------------------------
                                   SCF
               by Justin Turney, Rob Parrish, Andy Simmonett
                          and Daniel G. A. Smith
                              RHF Reference
                        1 Threads,    500 MiB Core
         ---------------------------------------------------------

  ==> Geometry <==

    Molecular point group: c1
    Full point group: C1

    Geometry (in Angstrom), charge = 0, multiplicity = 1:

       Center              X                  Y                   Z               Mass
    ------------   -----------------  -----------------  -----------------  -----------------
         C           -0.429364967931     0.391826588792     4.269882374081    12.000000000000
         C            1.878635032069     0.571826588792     1.244882374081    12.000000000000
         C            1.021635032069     0.945826588792     2.285882374081    12.000000000000
         C            2.146635032069    -0.764173411208     1.022882374081    12.000000000000
         C            0.443635032069    -0.023173411208     3.111882374081    12.000000000000
         C            1.588635032069    -1.730173411208     1.835882374081    12.000000000000
         C            0.737635032069    -1.369173411208     2.873882374081    12.000000000000
         H            2.324635032069     1.328826588792     0.615882374081     1.007825032230
         H            0.823635032069     1.990826588792     2.461882374081     1.007825032230
         H            2.809635032069    -1.047173411208     0.217882374081     1.007825032230
         H            1.850635032069    -2.762173411208     1.681882374081     1.007825032230
         H            0.071635032069     1.202826588792     4.798882374081     1.007825032230
         H           -0.525364967931    -0.441173411208     4.965882374081     1.007825032230
         H            0.320635032069    -2.134173411208     3.513882374081     1.007825032230
         H           -1.430943967931     0.732850488792     3.968979374081     1.007825032230
         C            0.001635032069    -1.903173411208    -2.016117625919    12.000000000000
         C           -0.521364967931     0.461826588792    -1.343117625919    12.000000000000
         C           -0.604364967931    -0.561173411208    -2.278117625919    12.000000000000
         C           -1.102364967931     1.706826588792    -1.557117625919    12.000000000000
         C           -1.356364967931    -0.343173411208    -3.410117625919    12.000000000000
         C           -1.805364967931     1.924826588792    -2.721117625919    12.000000000000
         C           -1.940364967931     0.889826588792    -3.623117625919    12.000000000000
         H           -0.002364967931     0.285826588792    -0.417117625919     1.007825032230
         H           -1.008364967931     2.487826588792    -0.816117625919     1.007825032230
         H           -0.745364967931    -2.642173411208    -2.204117625919     1.007825032230
         H            0.310635032069    -1.971173411208    -0.972117625919     1.007825032230
         H           -1.516364967931    -1.134173411208    -4.126117625919     1.007825032230
         H           -2.286364967931     2.874826588792    -2.906117625919     1.007825032230
         H           -2.550364967931     1.010826588792    -4.499117625919     1.007825032230
         H            0.852855032069    -2.146788411208    -2.668862625919     1.007825032230

  Running in c1 symmetry.

  Rotational constants: A =      0.03978  B =      0.01094  C =      0.00966 [cm^-1]
  Rotational constants: A =   1192.69391  B =    327.98569  C =    289.70135 [MHz]
  Nuclear repulsion =  783.990193294007554

  Charge       = 0
  Multiplicity = 1
  Electrons    = 100
  Nalpha       = 50
  Nbeta        = 50

  ==> Algorithm <==

  SCF Algorithm Type is PK.
  DIIS enabled.
  MOM disabled.
  Fractional occupation disabled.
  Guess Type is SAD.
  Energy threshold   = 1.00e-06
  Density threshold  = 1.00e-10
  Integral threshold = 0.00e+00

  ==> Primary Basis <==

  Basis Set: CC-PVDZ
    Blend: CC-PVDZ
    Number of shells: 132
    Number of basis function: 276
    Number of Cartesian functions: 290
    Spherical Harmonics?: true
    Max angular momentum: 2

  ==> Pre-Iterations <==

   -------------------------------------------------------
    Irrep   Nso     Nmo     Nalpha   Nbeta   Ndocc  Nsocc
   -------------------------------------------------------
     A        276     276       0       0       0       0
   -------------------------------------------------------
    Total     276     276      50      50      50       0
   -------------------------------------------------------

  ==> Integral Setup <==

  Using integral reordering PK algorithm.
  Sizing the integral batches needed.
  Building batch lookup table.
   Calculation information:
      Number of atoms:                  30
      Number of AO shells:             132
      Number of primitives:            388
      Number of atomic orbitals:       290
      Number of basis functions:       276

      Integral cutoff                 1.00e-12
      Number of threads:                 1

	Batch   1 pq = [       0,    9405] index = [             0,44231715] size =     44231715
	Batch   2 pq = [    9405,   13301] index = [      44231715,88464951] size =     44233236
	Batch   3 pq = [   13301,   16290] index = [      88464951,132690195] size =     44225244
	Batch   4 pq = [   16290,   18810] index = [     132690195,176917455] size =     44227260
	Batch   5 pq = [   18810,   21030] index = [     176917455,221140965] size =     44223510
	Batch   6 pq = [   21030,   23037] index = [     221140965,265363203] size =     44222238
	Batch   7 pq = [   23037,   24883] index = [     265363203,309594286] size =     44231083
	Batch   8 pq = [   24883,   26601] index = [     309594286,353819901] size =     44225615
	Batch   9 pq = [   26601,   28214] index = [     353819901,398029005] size =     44209104
	Batch  10 pq = [   28214,   29740] index = [     398029005,442248670] size =     44219665
	Batch  11 pq = [   29740,   31191] index = [     442248670,486454836] size =     44206166
	Batch  12 pq = [   31191,   32578] index = [     486454836,530679331] size =     44224495
	Batch  13 pq = [   32578,   33908] index = [     530679331,574893186] size =     44213855
	Batch  14 pq = [   33908,   35188] index = [     574893186,619115266] size =     44222080
	Batch  15 pq = [   35188,   36423] index = [     619115266,663335676] size =     44220410
	Batch  16 pq = [   36423,   37617] index = [     663335676,707538153] size =     44202477
	Batch  17 pq = [   37617,   38226] index = [     707538153,730632651] size =     23094498
  Task number: 67
  Buffer size: 11059200
  Buffer per thread: 2
  We computed 38233319 shell quartets total.
  Whereas there are 38531031 unique shell quartets.

  ==> DiskJK: Disk-Based J/K Matrices <==

    J tasked:                  Yes
    K tasked:                  Yes
    wK tasked:                  No
    Memory [MiB]:              375
    Schwarz Cutoff:          1E-12

    OpenMP threads:              1

  Minimum eigenvalue in the overlap matrix is 2.7665994901E-04.
  Using Symmetric Orthogonalization.

  SCF Guess: Superposition of Atomic Densities via on-the-fly atomic UHF.

  ==> Iterations <==

                        Total Energy        Delta E     RMS |[F,P]|

   @RHF iter SAD:  -538.58249847711431   -5.38582e+02   0.00000e+00
   @RHF iter   1:  -539.22156310708635   -6.39065e-01   2.32357e-03 DIIS
   @RHF iter   2:  -539.47566055306015   -2.54097e-01   9.45631e-04 DIIS
   @RHF iter   3:  -539.51286176114263   -3.72012e-02   2.16611e-04 DIIS
   @RHF iter   4:  -539.51600840641834   -3.14665e-03   5.11759e-05 DIIS
   @RHF iter   5:  -539.51613745905456   -1.29053e-04   1.53998e-05 DIIS
   @RHF iter   6:  -539.51614886426171   -1.14052e-05   4.34397e-06 DIIS
   @RHF iter   7:  -539.51614996176875   -1.09751e-06   1.10947e-06 DIIS
   @RHF iter   8:  -539.51615006425175   -1.02483e-07   3.52107e-07 DIIS
   @RHF iter   9:  -539.51615008347176   -1.92200e-08   1.69857e-07 DIIS
   @RHF iter  10:  -539.51615008783199   -4.36023e-09   8.47230e-08 DIIS
   @RHF iter  11:  -539.51615008943816   -1.60617e-09   3.14847e-08 DIIS
   @RHF iter  12:  -539.51615008961812   -1.79966e-10   1.33715e-08 DIIS
   @RHF iter  13:  -539.51615008963938   -2.12594e-11   4.17376e-09 DIIS
   @RHF iter  14:  -539.51615008963847    9.09495e-13   1.11926e-09 DIIS
   @RHF iter  15:  -539.51615008963813    3.41061e-13   5.13185e-10 DIIS
   @RHF iter  16:  -539.51615008964131   -3.18323e-12   2.06623e-10 DIIS
   @RHF iter  17:  -539.51615008963859    2.72848e-12   1.01627e-10 DIIS
   @RHF iter  18:  -539.51615008964052   -1.93268e-12   3.99889e-11 DIIS
  Energy and wave function converged.

  ==> Post-Iterations <==

    Orbital Energies [Eh]
    ---------------------

    Doubly Occupied:

       1A    -11.246077     2A    -11.238228     3A    -11.237454
       4A    -11.235020     5A    -11.234906     6A    -11.232344
       7A    -11.231809     8A    -11.228685     9A    -11.225640
      10A    -11.223713    11A    -11.221662    12A    -11.219313
      13A    -11.218074    14A    -11.216123    15A     -1.157705
      16A     -1.151910    17A     -1.049355    18A     -1.042731
      19A     -1.015637    20A     -1.005694    21A     -0.935192
      22A     -0.928129    23A     -0.830244    24A     -0.819210
      25A     -0.798438    26A     -0.791137    27A     -0.695804
      28A     -0.687409    29A     -0.635460    30A     -0.634064
      31A     -0.628205    32A     -0.621906    33A     -0.586305
      34A     -0.579946    35A     -0.574670    36A     -0.569335
      37A     -0.565746    38A     -0.559942    39A     -0.539360
      40A     -0.531756    41A     -0.496283    42A     -0.488389
      43A     -0.484993    44A     -0.483726    45A     -0.478310
      46A     -0.468682    47A     -0.335768    48A     -0.328205
      49A     -0.324449    50A     -0.316833

    Virtual:

      51A      0.128016    52A      0.136540    53A      0.144841
      54A      0.153193    55A      0.175289    56A      0.194110
      57A      0.197485    58A      0.206616    59A      0.218426
      60A      0.239152    61A      0.242047    62A      0.249202
      63A      0.258234    64A      0.268310    65A      0.272236
      66A      0.280277    67A      0.286353    68A      0.290002
      69A      0.292789    70A      0.339538    71A      0.360633
      72A      0.372727    73A      0.377582    74A      0.388855
      75A      0.450341    76A      0.459537    77A      0.464396
      78A      0.472377    79A      0.474933    80A      0.487004
      81A      0.493905    82A      0.516209    83A      0.562060
      84A      0.575212    85A      0.590970    86A      0.604861
      87A      0.624142    88A      0.629210    89A      0.668768
      90A      0.676441    91A      0.691349    92A      0.695805
      93A      0.699656    94A      0.710612    95A      0.724481
      96A      0.730145    97A      0.733487    98A      0.738621
      99A      0.743805   100A      0.747275   101A      0.754237
     102A      0.757125   103A      0.758104   104A      0.760260
     105A      0.778307   106A      0.782579   107A      0.791775
     108A      0.793899   109A      0.800763   110A      0.829759
     111A      0.847515   112A      0.848784   113A      0.857079
     114A      0.862164   115A      0.869811   116A      0.874237
     117A      0.874788   118A      0.883064   119A      0.892698
     120A      0.894713   121A      0.898529   122A      0.908985
     123A      0.910870   124A      0.920494   125A      0.933595
     126A      0.937949   127A      0.950278   128A      0.961057
     129A      0.976809   130A      0.988319   131A      0.998511
     132A      1.014140   133A      1.024973   134A      1.052940
     135A      1.060114   136A      1.102412   137A      1.124605
     138A      1.129398   139A      1.144309   140A      1.155438
     141A      1.159458   142A      1.169257   143A      1.186069
     144A      1.195679   145A      1.208452   146A      1.224067
     147A      1.232190   148A      1.235382   149A      1.241305
     150A      1.252200   151A      1.262307   152A      1.268072
     153A      1.277538   154A      1.289706   155A      1.300884
     156A      1.310625   157A      1.316391   158A      1.321247
     159A      1.333878   160A      1.334868   161A      1.350805
     162A      1.377401   163A      1.427818   164A      1.449082
     165A      1.500190   166A      1.526409   167A      1.530138
     168A      1.545136   169A      1.558929   170A      1.570694
     171A      1.595947   172A      1.621974   173A      1.678902
     174A      1.683678   175A      1.688932   176A      1.695622
     177A      1.740325   178A      1.747458   179A      1.750550
     180A      1.760824   181A      1.770791   182A      1.777611
     183A      1.793551   184A      1.808396   185A      1.829369
     186A      1.836929   187A      1.860427   188A      1.874722
     189A      1.886568   190A      1.900680   191A      1.902866
     192A      1.907544   193A      1.917613   194A      1.918292
     195A      1.921518   196A      1.929975   197A      1.934047
     198A      1.942935   199A      1.945774   200A      1.950455
     201A      1.959584   202A      1.973813   203A      1.976675
     204A      1.986573   205A      1.990914   206A      2.001735
     207A      2.013344   208A      2.032962   209A      2.036202
     210A      2.045888   211A      2.054269   212A      2.067340
     213A      2.082611   214A      2.099997   215A      2.110453
     216A      2.126004   217A      2.144613   218A      2.157431
     219A      2.161983   220A      2.168200   221A      2.176532
     222A      2.180547   223A      2.184566   224A      2.192063
     225A      2.203433   226A      2.225039   227A      2.242506
     228A      2.266495   229A      2.270851   230A      2.285497
     231A      2.291575   232A      2.301833   233A      2.310463
     234A      2.327456   235A      2.332678   236A      2.340426
     237A      2.348792   238A      2.399243   239A      2.451820
     240A      2.465525   241A      2.474266   242A      2.508794
     243A      2.521110   244A      2.536106   245A      2.554968
     246A      2.561387   247A      2.624145   248A      2.656235
     249A      2.736856   250A      2.743591   251A      2.761228
     252A      2.768392   253A      2.777617   254A      2.787509
     255A      2.806394   256A      2.808530   257A      2.815734
     258A      2.846953   259A      2.860807   260A      2.888355
     261A      2.899419   262A      2.906119   263A      2.987940
     264A      3.012387   265A      3.014854   266A      3.028705
     267A      3.060103   268A      3.069384   269A      3.157257
     270A      3.195428   271A      3.202930   272A      3.246394
     273A      3.303324   274A      3.344138   275A      3.975814
     276A      4.011588

    Final Occupation by Irrep:
              A
    DOCC [    50 ]

  @RHF Final Energy:  -539.51615008964052

   => Energetics <=

    Nuclear Repulsion Energy =            783.9901932940075540
    One-Electron Energy =               -2284.3127284201414113
    Two-Electron Energy =                 960.8063850364934524
    Total Energy =                       -539.5161500896405187

Computation Completed

Properties will be evaluated at   0.000000,   0.000000,   0.000000 [a0]

Properties computed using the SCF density matrix

  Nuclear Dipole Moment: [e a0]
     X:    -0.6574      Y:    -2.2165      Z:     3.3894

  Electronic Dipole Moment: [e a0]
     X:     0.6835      Y:     2.0992      Z:    -3.0570

  Dipole Moment: [e a0]
     X:     0.0262      Y:    -0.1173      Z:     0.3324     Total:     0.3535

  Dipole Moment: [D]
     X:     0.0665      Y:    -0.2983      Z:     0.8449     Total:     0.8984

*** tstop() called on ds3 at Sun Apr 26 17:18:59 2020
Module time:
	user time   =     319.46 seconds =       5.32 minutes
	system time =     127.64 seconds =       2.13 minutes
	total time  =        671 seconds =      11.18 minutes
Total time:
	user time   =     319.46 seconds =       5.32 minutes
	system time =     127.64 seconds =       2.13 minutes
	total time  =        671 seconds =      11.18 minutes
                                     G D M A

                                 by Anthony Stone

                           version 2.2.06, 22 June 2011

               Distributed Multipoles from Gaussian wavefunctions

Starting at 17:18:59 on 26 Apr 2020

Using SCF density matrix from file ./SSI/SSI-042PHE-054PHE-1-dimer.test.17612.fchk

                         Distributed Multipole Analysis

Standard DMA

Positions and radii in angstrom
Multipole moments in atomic units, ea_0^k for rank k

C          x = -0.429365  y =  0.391827  z =  4.269882 angstrom
           Maximum rank =  0   Radius =  0.650 angstrom
                   Q00  =  -0.204397

C          x =  1.878635  y =  0.571827  z =  1.244882 angstrom
           Maximum rank =  0   Radius =  0.650 angstrom
                   Q00  =  -0.072450

C          x =  1.021635  y =  0.945827  z =  2.285882 angstrom
           Maximum rank =  0   Radius =  0.650 angstrom
                   Q00  =  -0.080299

C          x =  2.146635  y = -0.764173  z =  1.022882 angstrom
           Maximum rank =  0   Radius =  0.650 angstrom
                   Q00  =  -0.083558

C          x =  0.443635  y = -0.023173  z =  3.111882 angstrom
           Maximum rank =  0   Radius =  0.650 angstrom
                   Q00  =  -0.096938

C          x =  1.588635  y = -1.730173  z =  1.835882 angstrom
           Maximum rank =  0   Radius =  0.650 angstrom
                   Q00  =  -0.025829

C          x =  0.737635  y = -1.369173  z =  2.873882 angstrom
           Maximum rank =  0   Radius =  0.650 angstrom
                   Q00  =  -0.046084

H          x =  2.324635  y =  1.328827  z =  0.615882 angstrom
           Maximum rank =  0   Radius =  0.325 angstrom
                   Q00  =   0.067491

H          x =  0.823635  y =  1.990827  z =  2.461882 angstrom
           Maximum rank =  0   Radius =  0.325 angstrom
                   Q00  =   0.057442

H          x =  2.809635  y = -1.047173  z =  0.217882 angstrom
           Maximum rank =  0   Radius =  0.325 angstrom
                   Q00  =   0.060999

H          x =  1.850635  y = -2.762173  z =  1.681882 angstrom
           Maximum rank =  0   Radius =  0.325 angstrom
                   Q00  =   0.064316

H          x =  0.071635  y =  1.202827  z =  4.798882 angstrom
           Maximum rank =  0   Radius =  0.325 angstrom
                   Q00  =   0.099804

H          x = -0.525365  y = -0.441173  z =  4.965882 angstrom
           Maximum rank =  0   Radius =  0.325 angstrom
                   Q00  =   0.098914

H          x =  0.320635  y = -2.134173  z =  3.513882 angstrom
           Maximum rank =  0   Radius =  0.325 angstrom
                   Q00  =   0.060825

H          x = -1.430944  y =  0.732850  z =  3.968979 angstrom
           Maximum rank =  0   Radius =  0.325 angstrom
                   Q00  =   0.107123

C          x =  0.001635  y = -1.903173  z = -2.016118 angstrom
           Maximum rank =  0   Radius =  0.650 angstrom
                   Q00  =  -0.213717

C          x = -0.521365  y =  0.461827  z = -1.343118 angstrom
           Maximum rank =  0   Radius =  0.650 angstrom
                   Q00  =  -0.057497

C          x = -0.604365  y = -0.561173  z = -2.278118 angstrom
           Maximum rank =  0   Radius =  0.650 angstrom
                   Q00  =  -0.096378

C          x = -1.102365  y =  1.706827  z = -1.557118 angstrom
           Maximum rank =  0   Radius =  0.650 angstrom
                   Q00  =  -0.083879

C          x = -1.356365  y = -0.343173  z = -3.410118 angstrom
           Maximum rank =  0   Radius =  0.650 angstrom
                   Q00  =  -0.097630

C          x = -1.805365  y =  1.924827  z = -2.721118 angstrom
           Maximum rank =  0   Radius =  0.650 angstrom
                   Q00  =  -0.090139

C          x = -1.940365  y =  0.889827  z = -3.623118 angstrom
           Maximum rank =  0   Radius =  0.650 angstrom
                   Q00  =   0.035943

H          x = -0.002365  y =  0.285827  z = -0.417118 angstrom
           Maximum rank =  0   Radius =  0.325 angstrom
                   Q00  =   0.069866

H          x = -1.008365  y =  2.487827  z = -0.816118 angstrom
           Maximum rank =  0   Radius =  0.325 angstrom
                   Q00  =   0.055389

H          x = -0.745365  y = -2.642173  z = -2.204118 angstrom
           Maximum rank =  0   Radius =  0.325 angstrom
                   Q00  =   0.100483

H          x =  0.310635  y = -1.971173  z = -0.972118 angstrom
           Maximum rank =  0   Radius =  0.325 angstrom
                   Q00  =   0.110083

H          x = -1.516365  y = -1.134173  z = -4.126118 angstrom
           Maximum rank =  0   Radius =  0.325 angstrom
                   Q00  =   0.049903

H          x = -2.286365  y =  2.874827  z = -2.906118 angstrom
           Maximum rank =  0   Radius =  0.325 angstrom
                   Q00  =   0.056146

H          x = -2.550365  y =  1.010827  z = -4.499118 angstrom
           Maximum rank =  0   Radius =  0.325 angstrom
                   Q00  =   0.056054

H          x =  0.852855  y = -2.146788  z = -2.668863 angstrom
           Maximum rank =  0   Radius =  0.325 angstrom
                   Q00  =   0.098014

Total multipoles referred to origin at
           x =   0.000000,  y =    0.000000,  z =    0.000000 angstrom
                   Q00  =  -0.000000

Finished at 17:18:59 on 26 Apr 2020

  DMA results are available in the Python driver through the
	  variable('DMA DISTRIBUTED MULTIPOLES')
  and
	  variable('DMA TOTAL MULTIPOLES')
  commands.

    Psi4 stopped on: Sunday, 26 April 2020 05:18PM
    Psi4 wall time for execution: 0:11:10.90

*** Psi4 exiting successfully. Buy a developer a beer!
