                               Psi4 1.3.2 release

  ==> Input File <==

--------------------------------------------------------------------------
import numpy as np
set {scf_type pk
basis cc-pvdz
d_convergence 10
gdma_switch   0
gdma_limit    0
gdma_origin   [ 0.0,  0.0,  0.0 ]
}
molecule test {
    units Angstrom
    0 1
    --
    0 1
    C                0.942959184910434    -3.272080232709617     0.188489076940748
    C                1.124959184910434     0.473919767290383    -0.479510923059252
    C                1.345959184910434    -0.780080232709617     0.093489076940748
    C                0.250959184910434     0.602919767290383    -1.558510923059252
    C                0.670959184910434    -1.904080232709617    -0.388510923059252
    C               -0.417040815089566    -0.507080232709617    -2.057510923059251
    C               -0.210040815089566    -1.752080232709617    -1.469510923059251
    O                0.041959184910434     1.823919767290383    -2.122510923059251
    H                1.649959184910434     1.338919767290383    -0.097510923059252
    H                2.044959184910434    -0.878080232709617     0.915489076940748
    H                0.582959184910434     2.509919767290383    -1.712510923059252
    H               -1.102040815089566    -0.395080232709617    -2.886510923059252
    H               -0.002040815089566    -3.789080232709618     0.362489076940749
    H                1.448959184910434    -3.162080232709617     1.148489076940749
    H               -0.764040815089566    -2.601080232709617    -1.842510923059251
    H                1.578629184910434    -3.865560232709617    -0.485110923059252
    C               -1.508040815089567     1.685919767290383     1.946489076940748
    C               -1.508040815089567     0.319919767290383     2.644489076940749
    C               -0.466040815089566     2.600919767290383     2.627489076940749
    H               -1.249040815089566     1.562919767290383     0.894489076940748
    H               -2.503040815089566     2.129919767290383     2.020489076940748
    H               -1.896040815089566     0.441919767290383     3.654489076940749
    H               -0.477040815089566    -0.029080232709617     2.716489076940749
    H               -0.674040815089566     2.605919767290382     3.701489076940749
    H                0.518959184910434     2.140919767290383     2.498489076940749
    H               -2.089640815089566    -0.449800232709617     2.115989076940748
    H               -0.431370815089566     3.638209767290383     2.262989076940749

}
e, wfn = energy('scf', return_wfn=True)
gdma(wfn)
dmavals = variable('DMA DISTRIBUTED MULTIPOLES')
charges = np.array(dmavals)
print(charges)
np.save('SSI-043TYR-068LYS-1-dimer.npy', np.array(charges))--------------------------------------------------------------------------

*** tstart() called on ds3
*** at Mon Apr 27 12:11:17 2020

   => Loading Basis Set <=

    Name: CC-PVDZ
    Role: ORBITAL
    Keyword: BASIS
    atoms 1-7, 17-19  entry C          line   138 file /theoryfs2/ds/metcalf/miniconda2/envs/tf2gpu/share/psi4/basis/cc-pvdz.gbs
    atoms 8           entry O          line   198 file /theoryfs2/ds/metcalf/miniconda2/envs/tf2gpu/share/psi4/basis/cc-pvdz.gbs
    atoms 9-16, 20-27 entry H          line    22 file /theoryfs2/ds/metcalf/miniconda2/envs/tf2gpu/share/psi4/basis/cc-pvdz.gbs

         ---------------------------------------------------------
                                   SCF
               by Justin Turney, Rob Parrish, Andy Simmonett
                          and Daniel G. A. Smith
                              RHF Reference
                        1 Threads,    500 MiB Core
         ---------------------------------------------------------

  ==> Geometry <==

    Molecular point group: c1
    Full point group: C1

    Geometry (in Angstrom), charge = 0, multiplicity = 1:

       Center              X                  Y                   Z               Mass
    ------------   -----------------  -----------------  -----------------  -----------------
         C            0.942959184910    -3.272080232710     0.188489076941    12.000000000000
         C            1.124959184910     0.473919767290    -0.479510923059    12.000000000000
         C            1.345959184910    -0.780080232710     0.093489076941    12.000000000000
         C            0.250959184910     0.602919767290    -1.558510923059    12.000000000000
         C            0.670959184910    -1.904080232710    -0.388510923059    12.000000000000
         C           -0.417040815090    -0.507080232710    -2.057510923059    12.000000000000
         C           -0.210040815090    -1.752080232710    -1.469510923059    12.000000000000
         O            0.041959184910     1.823919767290    -2.122510923059    15.994914619570
         H            1.649959184910     1.338919767290    -0.097510923059     1.007825032230
         H            2.044959184910    -0.878080232710     0.915489076941     1.007825032230
         H            0.582959184910     2.509919767290    -1.712510923059     1.007825032230
         H           -1.102040815090    -0.395080232710    -2.886510923059     1.007825032230
         H           -0.002040815090    -3.789080232710     0.362489076941     1.007825032230
         H            1.448959184910    -3.162080232710     1.148489076941     1.007825032230
         H           -0.764040815090    -2.601080232710    -1.842510923059     1.007825032230
         H            1.578629184910    -3.865560232710    -0.485110923059     1.007825032230
         C           -1.508040815090     1.685919767290     1.946489076941    12.000000000000
         C           -1.508040815090     0.319919767290     2.644489076941    12.000000000000
         C           -0.466040815090     2.600919767290     2.627489076941    12.000000000000
         H           -1.249040815090     1.562919767290     0.894489076941     1.007825032230
         H           -2.503040815090     2.129919767290     2.020489076941     1.007825032230
         H           -1.896040815090     0.441919767290     3.654489076941     1.007825032230
         H           -0.477040815090    -0.029080232710     2.716489076941     1.007825032230
         H           -0.674040815090     2.605919767290     3.701489076941     1.007825032230
         H            0.518959184910     2.140919767290     2.498489076941     1.007825032230
         H           -2.089640815090    -0.449800232710     2.115989076941     1.007825032230
         H           -0.431370815090     3.638209767290     2.262989076941     1.007825032230

  Running in c1 symmetry.

  Rotational constants: A =      0.03806  B =      0.02255  C =      0.01682 [cm^-1]
  Rotational constants: A =   1140.92376  B =    676.09588  C =    504.30032 [MHz]
  Nuclear repulsion =  591.678783999943221

  Charge       = 0
  Multiplicity = 1
  Electrons    = 84
  Nalpha       = 42
  Nbeta        = 42

  ==> Algorithm <==

  SCF Algorithm Type is PK.
  DIIS enabled.
  MOM disabled.
  Fractional occupation disabled.
  Guess Type is SAD.
  Energy threshold   = 1.00e-06
  Density threshold  = 1.00e-10
  Integral threshold = 0.00e+00

  ==> Primary Basis <==

  Basis Set: CC-PVDZ
    Blend: CC-PVDZ
    Number of shells: 114
    Number of basis function: 234
    Number of Cartesian functions: 245
    Spherical Harmonics?: true
    Max angular momentum: 2

  ==> Pre-Iterations <==

   -------------------------------------------------------
    Irrep   Nso     Nmo     Nalpha   Nbeta   Ndocc  Nsocc
   -------------------------------------------------------
     A        234     234       0       0       0       0
   -------------------------------------------------------
    Total     234     234      42      42      42       0
   -------------------------------------------------------

  ==> Integral Setup <==

  Using integral reordering PK algorithm.
  Sizing the integral batches needed.
  Building batch lookup table.
   Calculation information:
      Number of atoms:                  27
      Number of AO shells:             114
      Number of primitives:            322
      Number of atomic orbitals:       245
      Number of basis functions:       234

      Integral cutoff                 1.00e-12
      Number of threads:                 1

	Batch   1 pq = [       0,    9405] index = [             0,44231715] size =     44231715
	Batch   2 pq = [    9405,   13301] index = [      44231715,88464951] size =     44233236
	Batch   3 pq = [   13301,   16290] index = [      88464951,132690195] size =     44225244
	Batch   4 pq = [   16290,   18810] index = [     132690195,176917455] size =     44227260
	Batch   5 pq = [   18810,   21030] index = [     176917455,221140965] size =     44223510
	Batch   6 pq = [   21030,   23037] index = [     221140965,265363203] size =     44222238
	Batch   7 pq = [   23037,   24883] index = [     265363203,309594286] size =     44231083
	Batch   8 pq = [   24883,   26601] index = [     309594286,353819901] size =     44225615
	Batch   9 pq = [   26601,   27495] index = [     353819901,378001260] size =     24181359
  Task number: 35
  Buffer size: 11059200
  Buffer per thread: 2
  We computed 21432792 shell quartets total.
  Whereas there are 21487290 unique shell quartets.

  ==> DiskJK: Disk-Based J/K Matrices <==

    J tasked:                  Yes
    K tasked:                  Yes
    wK tasked:                  No
    Memory [MiB]:              375
    Schwarz Cutoff:          1E-12

    OpenMP threads:              1

  Minimum eigenvalue in the overlap matrix is 3.2780554584E-04.
  Using Symmetric Orthogonalization.

  SCF Guess: Superposition of Atomic Densities via on-the-fly atomic UHF.

  ==> Iterations <==

                        Total Energy        Delta E     RMS |[F,P]|

   @RHF iter SAD:  -461.63858765453642   -4.61639e+02   0.00000e+00
   @RHF iter   1:  -462.60834946725208   -9.69762e-01   2.81227e-03 DIIS
   @RHF iter   2:  -462.84965846970988   -2.41309e-01   1.20039e-03 DIIS
   @RHF iter   3:  -462.88947279152853   -3.98143e-02   2.66406e-04 DIIS
   @RHF iter   4:  -462.89270553811690   -3.23275e-03   1.01637e-04 DIIS
   @RHF iter   5:  -462.89303506939984   -3.29531e-04   2.07390e-05 DIIS
   @RHF iter   6:  -462.89305489579908   -1.98264e-05   6.42914e-06 DIIS
   @RHF iter   7:  -462.89305693744780   -2.04165e-06   1.88499e-06 DIIS
   @RHF iter   8:  -462.89305719595978   -2.58512e-07   7.12145e-07 DIIS
   @RHF iter   9:  -462.89305723912003   -4.31602e-08   3.15820e-07 DIIS
   @RHF iter  10:  -462.89305724807843   -8.95841e-09   1.32282e-07 DIIS
   @RHF iter  11:  -462.89305725109290   -3.01446e-09   5.67035e-08 DIIS
   @RHF iter  12:  -462.89305725162001   -5.27109e-10   2.44261e-08 DIIS
   @RHF iter  13:  -462.89305725168731   -6.73026e-11   8.36730e-09 DIIS
   @RHF iter  14:  -462.89305725169032   -3.01270e-12   2.04044e-09 DIIS
   @RHF iter  15:  -462.89305725169169   -1.36424e-12   7.91436e-10 DIIS
   @RHF iter  16:  -462.89305725169379   -2.10321e-12   3.06684e-10 DIIS
   @RHF iter  17:  -462.89305725169515   -1.36424e-12   1.45129e-10 DIIS
   @RHF iter  18:  -462.89305725169413    1.02318e-12   6.93318e-11 DIIS
  Energy and wave function converged.

  ==> Post-Iterations <==

    Orbital Energies [Eh]
    ---------------------

    Doubly Occupied:

       1A    -20.583796     2A    -11.299787     3A    -11.240894
       4A    -11.239661     5A    -11.235288     6A    -11.234239
       7A    -11.231348     8A    -11.228964     9A    -11.217183
      10A    -11.216072    11A    -11.210636    12A     -1.400606
      13A     -1.149946    14A     -1.047300    15A     -1.037203
      16A     -1.018329    17A     -0.926052    18A     -0.915640
      19A     -0.844841    20A     -0.802334    21A     -0.795253
      22A     -0.732221    23A     -0.668070    24A     -0.642338
      25A     -0.622553    26A     -0.605494    27A     -0.594073
      28A     -0.588359    29A     -0.586273    30A     -0.571725
      31A     -0.568623    32A     -0.535259    33A     -0.527101
      34A     -0.523526    35A     -0.496940    36A     -0.486204
      37A     -0.470527    38A     -0.468157    39A     -0.466695
      40A     -0.462817    41A     -0.339362    42A     -0.301258

    Virtual:

      43A      0.127542    44A      0.152532    45A      0.165537
      46A      0.179317    47A      0.204561    48A      0.207449
      49A      0.214933    50A      0.237548    51A      0.249055
      52A      0.251133    53A      0.259240    54A      0.262522
      55A      0.275148    56A      0.283322    57A      0.291335
      58A      0.299472    59A      0.312110    60A      0.326874
      61A      0.369675    62A      0.372967    63A      0.376348
      64A      0.425515    65A      0.438311    66A      0.453260
      67A      0.479293    68A      0.495570    69A      0.511698
      70A      0.576228    71A      0.591617    72A      0.606495
      73A      0.609786    74A      0.620746    75A      0.628190
      76A      0.648630    77A      0.648912    78A      0.671836
      79A      0.681909    80A      0.699988    81A      0.725990
      82A      0.728920    83A      0.739189    84A      0.751875
      85A      0.775202    86A      0.776914    87A      0.784488
      88A      0.802004    89A      0.822476    90A      0.833897
      91A      0.835558    92A      0.849233    93A      0.855244
      94A      0.865578    95A      0.868246    96A      0.876795
      97A      0.881162    98A      0.891683    99A      0.897610
     100A      0.904686   101A      0.912444   102A      0.917779
     103A      0.920099   104A      0.928502   105A      0.938399
     106A      0.944285   107A      0.948904   108A      0.963879
     109A      0.987308   110A      0.998105   111A      1.002695
     112A      1.023325   113A      1.035735   114A      1.075965
     115A      1.121139   116A      1.126318   117A      1.135027
     118A      1.143383   119A      1.150600   120A      1.180678
     121A      1.203146   122A      1.228806   123A      1.245498
     124A      1.257186   125A      1.264630   126A      1.288257
     127A      1.298742   128A      1.307117   129A      1.317042
     130A      1.348656   131A      1.355250   132A      1.361808
     133A      1.392559   134A      1.472606   135A      1.486645
     136A      1.490024   137A      1.498797   138A      1.542335
     139A      1.558242   140A      1.572603   141A      1.592499
     142A      1.612031   143A      1.621970   144A      1.671548
     145A      1.686636   146A      1.689192   147A      1.705031
     148A      1.715582   149A      1.738336   150A      1.749902
     151A      1.780617   152A      1.806612   153A      1.811479
     154A      1.840931   155A      1.859544   156A      1.867198
     157A      1.882409   158A      1.896467   159A      1.900786
     160A      1.908230   161A      1.912164   162A      1.917357
     163A      1.925780   164A      1.936913   165A      1.945701
     166A      1.959600   167A      1.963524   168A      1.967947
     169A      1.972554   170A      1.979701   171A      1.984678
     172A      1.995364   173A      2.011817   174A      2.022927
     175A      2.027174   176A      2.048892   177A      2.057566
     178A      2.064992   179A      2.075575   180A      2.081933
     181A      2.118817   182A      2.129823   183A      2.143468
     184A      2.163906   185A      2.172472   186A      2.202301
     187A      2.213559   188A      2.256761   189A      2.268993
     190A      2.295407   191A      2.298085   192A      2.307343
     193A      2.315100   194A      2.336817   195A      2.343739
     196A      2.384824   197A      2.411207   198A      2.453642
     199A      2.472099   200A      2.491066   201A      2.502268
     202A      2.524366   203A      2.532829   204A      2.565232
     205A      2.575194   206A      2.606673   207A      2.608184
     208A      2.641751   209A      2.645698   210A      2.745993
     211A      2.762151   212A      2.769831   213A      2.776185
     214A      2.785620   215A      2.798717   216A      2.805309
     217A      2.834015   218A      2.835277   219A      2.897561
     220A      2.911499   221A      2.954395   222A      2.961156
     223A      2.986600   224A      3.009347   225A      3.072686
     226A      3.084479   227A      3.107235   228A      3.249216
     229A      3.274342   230A      3.347542   231A      3.578794
     232A      3.675587   233A      3.966567   234A      4.192443

    Final Occupation by Irrep:
              A
    DOCC [    42 ]

  @RHF Final Energy:  -462.89305725169413

   => Energetics <=

    Nuclear Repulsion Energy =            591.6787839999432208
    One-Electron Energy =               -1800.8777866458676726
    Two-Electron Energy =                 746.3059453942302071
    Total Energy =                       -462.8930572516941311

Computation Completed

Properties will be evaluated at   0.000000,   0.000000,   0.000000 [a0]

Properties computed using the SCF density matrix

  Nuclear Dipole Moment: [e a0]
     X:    -3.1534      Y:     1.1326      Z:    14.3024

  Electronic Dipole Moment: [e a0]
     X:     3.5264      Y:    -1.1497      Z:   -13.9974

  Dipole Moment: [e a0]
     X:     0.3731      Y:    -0.0171      Z:     0.3050     Total:     0.4822

  Dipole Moment: [D]
     X:     0.9482      Y:    -0.0436      Z:     0.7753     Total:     1.2256

*** tstop() called on ds3 at Mon Apr 27 12:30:50 2020
Module time:
	user time   =     152.26 seconds =       2.54 minutes
	system time =      56.41 seconds =       0.94 minutes
	total time  =       1173 seconds =      19.55 minutes
Total time:
	user time   =     152.26 seconds =       2.54 minutes
	system time =      56.41 seconds =       0.94 minutes
	total time  =       1173 seconds =      19.55 minutes
                                     G D M A

                                 by Anthony Stone

                           version 2.2.06, 22 June 2011

               Distributed Multipoles from Gaussian wavefunctions

Starting at 12:30:50 on 27 Apr 2020

Using SCF density matrix from file ./SSI/SSI-043TYR-068LYS-1-dimer.test.3317.fchk

                         Distributed Multipole Analysis

Standard DMA

Positions and radii in angstrom
Multipole moments in atomic units, ea_0^k for rank k

C          x =  0.942959  y = -3.272080  z =  0.188489 angstrom
           Maximum rank =  0   Radius =  0.650 angstrom
                   Q00  =  -0.197114

C          x =  1.124959  y =  0.473920  z = -0.479511 angstrom
           Maximum rank =  0   Radius =  0.650 angstrom
                   Q00  =  -0.182737

C          x =  1.345959  y = -0.780080  z =  0.093489 angstrom
           Maximum rank =  0   Radius =  0.650 angstrom
                   Q00  =  -0.060015

C          x =  0.250959  y =  0.602920  z = -1.558511 angstrom
           Maximum rank =  0   Radius =  0.650 angstrom
                   Q00  =   0.349038

C          x =  0.670959  y = -1.904080  z = -0.388511 angstrom
           Maximum rank =  0   Radius =  0.650 angstrom
                   Q00  =  -0.132456

C          x = -0.417041  y = -0.507080  z = -2.057511 angstrom
           Maximum rank =  0   Radius =  0.650 angstrom
                   Q00  =  -0.110328

C          x = -0.210041  y = -1.752080  z = -1.469511 angstrom
           Maximum rank =  0   Radius =  0.650 angstrom
                   Q00  =   0.024266

O          x =  0.041959  y =  1.823920  z = -2.122511 angstrom
           Maximum rank =  0   Radius =  0.650 angstrom
                   Q00  =  -0.675532

H          x =  1.649959  y =  1.338920  z = -0.097511 angstrom
           Maximum rank =  0   Radius =  0.325 angstrom
                   Q00  =   0.072735

H          x =  2.044959  y = -0.878080  z =  0.915489 angstrom
           Maximum rank =  0   Radius =  0.325 angstrom
                   Q00  =   0.070896

H          x =  0.582959  y =  2.509920  z = -1.712511 angstrom
           Maximum rank =  0   Radius =  0.325 angstrom
                   Q00  =   0.407975

H          x = -1.102041  y = -0.395080  z = -2.886511 angstrom
           Maximum rank =  0   Radius =  0.325 angstrom
                   Q00  =   0.081923

H          x = -0.002041  y = -3.789080  z =  0.362489 angstrom
           Maximum rank =  0   Radius =  0.325 angstrom
                   Q00  =   0.097666

H          x =  1.448959  y = -3.162080  z =  1.148489 angstrom
           Maximum rank =  0   Radius =  0.325 angstrom
                   Q00  =   0.095478

H          x = -0.764041  y = -2.601080  z = -1.842511 angstrom
           Maximum rank =  0   Radius =  0.325 angstrom
                   Q00  =   0.063001

H          x =  1.578629  y = -3.865560  z = -0.485111 angstrom
           Maximum rank =  0   Radius =  0.325 angstrom
                   Q00  =   0.099180

C          x = -1.508041  y =  1.685920  z =  1.946489 angstrom
           Maximum rank =  0   Radius =  0.650 angstrom
                   Q00  =  -0.094007

C          x = -1.508041  y =  0.319920  z =  2.644489 angstrom
           Maximum rank =  0   Radius =  0.650 angstrom
                   Q00  =  -0.232488

C          x = -0.466041  y =  2.600920  z =  2.627489 angstrom
           Maximum rank =  0   Radius =  0.650 angstrom
                   Q00  =  -0.246667

H          x = -1.249041  y =  1.562920  z =  0.894489 angstrom
           Maximum rank =  0   Radius =  0.325 angstrom
                   Q00  =   0.059590

H          x = -2.503041  y =  2.129920  z =  2.020489 angstrom
           Maximum rank =  0   Radius =  0.325 angstrom
                   Q00  =   0.048768

H          x = -1.896041  y =  0.441920  z =  3.654489 angstrom
           Maximum rank =  0   Radius =  0.325 angstrom
                   Q00  =   0.071298

H          x = -0.477041  y = -0.029080  z =  2.716489 angstrom
           Maximum rank =  0   Radius =  0.325 angstrom
                   Q00  =   0.073139

H          x = -0.674041  y =  2.605920  z =  3.701489 angstrom
           Maximum rank =  0   Radius =  0.325 angstrom
                   Q00  =   0.074160

H          x =  0.518959  y =  2.140920  z =  2.498489 angstrom
           Maximum rank =  0   Radius =  0.325 angstrom
                   Q00  =   0.069296

H          x = -2.089641  y = -0.449800  z =  2.115989 angstrom
           Maximum rank =  0   Radius =  0.325 angstrom
                   Q00  =   0.089387

H          x = -0.431371  y =  3.638210  z =  2.262989 angstrom
           Maximum rank =  0   Radius =  0.325 angstrom
                   Q00  =   0.083550

Total multipoles referred to origin at
           x =   0.000000,  y =    0.000000,  z =    0.000000 angstrom
                   Q00  =  -0.000000

Finished at 12:30:50 on 27 Apr 2020

  DMA results are available in the Python driver through the
	  variable('DMA DISTRIBUTED MULTIPOLES')
  and
	  variable('DMA TOTAL MULTIPOLES')
  commands.

    Psi4 stopped on: Monday, 27 April 2020 12:30PM
    Psi4 wall time for execution: 0:19:33.53

*** Psi4 exiting successfully. Buy a developer a beer!
