                               Psi4 1.3.2 release

  ==> Input File <==

--------------------------------------------------------------------------
import numpy as np
set {scf_type pk
basis cc-pvdz
d_convergence 10
gdma_switch   0
gdma_limit    0
gdma_origin   [ 0.0,  0.0,  0.0 ]
}
molecule test {
    units Angstrom
    0 1
    --
    0 1
    C               -0.477119477850741    -1.736429501145862    -1.162168510033005
    C                0.711880522149259    -1.714429501145862    -2.132168510033004
    H               -0.233119477850741    -1.184429501145862    -0.257168510033005
    H               -1.364119477850741    -1.298429501145862    -1.617168510033005
    H               -0.737119477850741    -2.761429501145862    -0.896168510033005
    H                0.478880522149259    -2.396429501145862    -2.947168510033005
    H                1.637670522149259    -2.051469501145862    -1.642968510033005
    H                0.853760522149259    -0.707679501145862    -2.552068510033005
    C               -0.388119477850741     1.212570498854138     1.145831489966995
    C                0.157880522149259     2.236570498854138     2.154831489966996
    H               -0.428119477850741     0.222570498854138     1.601831489966995
    H               -1.387119477850741     1.497570498854138     0.814831489966995
    H                0.261880522149259     1.181570498854138     0.271831489966995
    H                0.037880522149259     3.226570498854138     1.711831489966995
    H                1.231080522149260     2.079120498854138     2.337731489966995
    H               -0.405399477850741     2.212920498854138     3.099331489966996

}
e, wfn = energy('scf', return_wfn=True)
gdma(wfn)
dmavals = variable('DMA DISTRIBUTED MULTIPOLES')
charges = np.array(dmavals)
print(charges)
np.save('SSI-062ILE-067ILE-1-dimer.npy', np.array(charges))--------------------------------------------------------------------------

*** tstart() called on ds3
*** at Tue Apr 28 00:19:55 2020

   => Loading Basis Set <=

    Name: CC-PVDZ
    Role: ORBITAL
    Keyword: BASIS
    atoms 1-2, 9-10  entry C          line   138 file /theoryfs2/ds/metcalf/miniconda2/envs/tf2gpu/share/psi4/basis/cc-pvdz.gbs
    atoms 3-8, 11-16 entry H          line    22 file /theoryfs2/ds/metcalf/miniconda2/envs/tf2gpu/share/psi4/basis/cc-pvdz.gbs

         ---------------------------------------------------------
                                   SCF
               by Justin Turney, Rob Parrish, Andy Simmonett
                          and Daniel G. A. Smith
                              RHF Reference
                        1 Threads,    500 MiB Core
         ---------------------------------------------------------

  ==> Geometry <==

    Molecular point group: c1
    Full point group: C1

    Geometry (in Angstrom), charge = 0, multiplicity = 1:

       Center              X                  Y                   Z               Mass
    ------------   -----------------  -----------------  -----------------  -----------------
         C           -0.477119477851    -1.736429501146    -1.162168510033    12.000000000000
         C            0.711880522149    -1.714429501146    -2.132168510033    12.000000000000
         H           -0.233119477851    -1.184429501146    -0.257168510033     1.007825032230
         H           -1.364119477851    -1.298429501146    -1.617168510033     1.007825032230
         H           -0.737119477851    -2.761429501146    -0.896168510033     1.007825032230
         H            0.478880522149    -2.396429501146    -2.947168510033     1.007825032230
         H            1.637670522149    -2.051469501146    -1.642968510033     1.007825032230
         H            0.853760522149    -0.707679501146    -2.552068510033     1.007825032230
         C           -0.388119477851     1.212570498854     1.145831489967    12.000000000000
         C            0.157880522149     2.236570498854     2.154831489967    12.000000000000
         H           -0.428119477851     0.222570498854     1.601831489967     1.007825032230
         H           -1.387119477851     1.497570498854     0.814831489967     1.007825032230
         H            0.261880522149     1.181570498854     0.271831489967     1.007825032230
         H            0.037880522149     3.226570498854     1.711831489967     1.007825032230
         H            1.231080522149     2.079120498854     2.337731489967     1.007825032230
         H           -0.405399477851     2.212920498854     3.099331489967     1.007825032230

  Running in c1 symmetry.

  Rotational constants: A =      0.55100  B =      0.04475  C =      0.04289 [cm^-1]
  Rotational constants: A =  16518.44274  B =   1341.63769  C =   1285.77001 [MHz]
  Nuclear repulsion =  120.830057055771078

  Charge       = 0
  Multiplicity = 1
  Electrons    = 36
  Nalpha       = 18
  Nbeta        = 18

  ==> Algorithm <==

  SCF Algorithm Type is PK.
  DIIS enabled.
  MOM disabled.
  Fractional occupation disabled.
  Guess Type is SAD.
  Energy threshold   = 1.00e-06
  Density threshold  = 1.00e-10
  Integral threshold = 0.00e+00

  ==> Primary Basis <==

  Basis Set: CC-PVDZ
    Blend: CC-PVDZ
    Number of shells: 60
    Number of basis function: 116
    Number of Cartesian functions: 120
    Spherical Harmonics?: true
    Max angular momentum: 2

  ==> Pre-Iterations <==

   -------------------------------------------------------
    Irrep   Nso     Nmo     Nalpha   Nbeta   Ndocc  Nsocc
   -------------------------------------------------------
     A        116     116       0       0       0       0
   -------------------------------------------------------
    Total     116     116      18      18      18       0
   -------------------------------------------------------

  ==> Integral Setup <==

  Using integral reordering PK algorithm.
  Sizing the integral batches needed.
  Building batch lookup table.
   Calculation information:
      Number of atoms:                  16
      Number of AO shells:              60
      Number of primitives:            148
      Number of atomic orbitals:       120
      Number of basis functions:       116

      Integral cutoff                 1.00e-12
      Number of threads:                 1

	Batch   1 pq = [       0,    6786] index = [             0,23028291] size =     23028291
  Task number: 3
  Buffer size: 11059200
  Buffer per thread: 2
  We computed 1376508 shell quartets total.
  Whereas there are 1675365 unique shell quartets.

  ==> DiskJK: Disk-Based J/K Matrices <==

    J tasked:                  Yes
    K tasked:                  Yes
    wK tasked:                  No
    Memory [MiB]:              375
    Schwarz Cutoff:          1E-12

    OpenMP threads:              1

  Minimum eigenvalue in the overlap matrix is 6.6455468479E-03.
  Using Symmetric Orthogonalization.

  SCF Guess: Superposition of Atomic Densities via on-the-fly atomic UHF.

  ==> Iterations <==

                        Total Energy        Delta E     RMS |[F,P]|

   @RHF iter SAD:  -157.32709942665193   -1.57327e+02   0.00000e+00
   @RHF iter   1:  -158.30888262806701   -9.81783e-01   4.18261e-03 DIIS
   @RHF iter   2:  -158.44095351860921   -1.32071e-01   1.77518e-03 DIIS
   @RHF iter   3:  -158.46388034850071   -2.29268e-02   3.48809e-04 DIIS
   @RHF iter   4:  -158.46570605094391   -1.82570e-03   3.90393e-05 DIIS
   @RHF iter   5:  -158.46573004529671   -2.39944e-05   6.75750e-06 DIIS
   @RHF iter   6:  -158.46573070769261   -6.62396e-07   1.22747e-06 DIIS
   @RHF iter   7:  -158.46573072230447   -1.46119e-08   3.29799e-07 DIIS
   @RHF iter   8:  -158.46573072334164   -1.03717e-09   4.42839e-08 DIIS
   @RHF iter   9:  -158.46573072337605   -3.44187e-11   8.81094e-09 DIIS
   @RHF iter  10:  -158.46573072337719   -1.13687e-12   2.27717e-09 DIIS
   @RHF iter  11:  -158.46573072337728   -8.52651e-14   4.16232e-10 DIIS
   @RHF iter  12:  -158.46573072337779   -5.11591e-13   1.15695e-10 DIIS
   @RHF iter  13:  -158.46573072337767    1.13687e-13   3.05947e-11 DIIS
  Energy and wave function converged.

  ==> Post-Iterations <==

    Orbital Energies [Eh]
    ---------------------

    Doubly Occupied:

       1A    -11.220406     2A    -11.218983     3A    -11.218450
       4A    -11.214415     5A     -1.017196     6A     -1.014430
       7A     -0.840825     8A     -0.834886     9A     -0.601010
      10A     -0.597803    11A     -0.593449    12A     -0.593016
      13A     -0.503185    14A     -0.500026    15A     -0.490115
      16A     -0.487956    17A     -0.483948    18A     -0.476044

    Virtual:

      19A      0.173833    20A      0.195207    21A      0.224407
      22A      0.240309    23A      0.246323    24A      0.255723
      25A      0.262517    26A      0.272714    27A      0.280790
      28A      0.287526    29A      0.311221    30A      0.343933
      31A      0.394474    32A      0.399181    33A      0.576195
      34A      0.591137    35A      0.597513    36A      0.602018
      37A      0.615233    38A      0.633810    39A      0.682520
      40A      0.693404    41A      0.703727    42A      0.756709
      43A      0.843920    44A      0.875649    45A      0.882716
      46A      0.889834    47A      0.891663    48A      0.894123
      49A      0.900991    50A      0.902178    51A      0.916011
      52A      0.926270    53A      0.934976    54A      0.941541
      55A      0.977910    56A      1.002317    57A      1.119046
      58A      1.120132    59A      1.131421    60A      1.157787
      61A      1.232647    62A      1.281581    63A      1.462141
      64A      1.470295    65A      1.478940    66A      1.488166
      67A      1.570045    68A      1.580013    69A      1.681086
      70A      1.684762    71A      1.692576    72A      1.702674
      73A      1.857527    74A      1.863927    75A      1.868630
      76A      1.882790    77A      1.888080    78A      1.903823
      79A      1.925192    80A      1.930997    81A      1.936019
      82A      1.945026    83A      1.946376    84A      1.955417
      85A      1.961939    86A      1.973194    87A      1.982920
      88A      2.026727    89A      2.095436    90A      2.099090
      91A      2.127328    92A      2.138656    93A      2.297175
      94A      2.301197    95A      2.320542    96A      2.325296
      97A      2.437484    98A      2.450031    99A      2.461731
     100A      2.477240   101A      2.555105   102A      2.560456
     103A      2.576450   104A      2.585460   105A      2.756380
     106A      2.764005   107A      2.780643   108A      2.797018
     109A      2.841945   110A      2.851932   111A      2.857696
     112A      2.866918   113A      2.937961   114A      2.948272
     115A      2.961250   116A      2.982871

    Final Occupation by Irrep:
              A
    DOCC [    18 ]

  @RHF Final Energy:  -158.46573072337767

   => Energetics <=

    Nuclear Repulsion Energy =            120.8300570557710785
    One-Electron Energy =                -450.7792930706457355
    Two-Electron Energy =                 171.4835052914969822
    Total Energy =                       -158.4657307233776748

Computation Completed

Properties will be evaluated at   0.000000,   0.000000,   0.000000 [a0]

Properties computed using the SCF density matrix

  Nuclear Dipole Moment: [e a0]
     X:    -0.0505      Y:     0.0192      Z:    -0.0706

  Electronic Dipole Moment: [e a0]
     X:     0.0343      Y:    -0.0031      Z:     0.0762

  Dipole Moment: [e a0]
     X:    -0.0162      Y:     0.0161      Z:     0.0056     Total:     0.0235

  Dipole Moment: [D]
     X:    -0.0411      Y:     0.0409      Z:     0.0142     Total:     0.0597

*** tstop() called on ds3 at Tue Apr 28 00:20:06 2020
Module time:
	user time   =       7.61 seconds =       0.13 minutes
	system time =       2.91 seconds =       0.05 minutes
	total time  =         11 seconds =       0.18 minutes
Total time:
	user time   =       7.61 seconds =       0.13 minutes
	system time =       2.91 seconds =       0.05 minutes
	total time  =         11 seconds =       0.18 minutes
                                     G D M A

                                 by Anthony Stone

                           version 2.2.06, 22 June 2011

               Distributed Multipoles from Gaussian wavefunctions

Starting at 0:20:6 on 28 Apr 2020

Using SCF density matrix from file ./SSI/SSI-062ILE-067ILE-1-dimer.test.5142.fchk

                         Distributed Multipole Analysis

Standard DMA

Positions and radii in angstrom
Multipole moments in atomic units, ea_0^k for rank k

C          x = -0.477119  y = -1.736430  z = -1.162169 angstrom
           Maximum rank =  0   Radius =  0.650 angstrom
                   Q00  =  -0.236416

C          x =  0.711881  y = -1.714430  z = -2.132169 angstrom
           Maximum rank =  0   Radius =  0.650 angstrom
                   Q00  =  -0.244170

H          x = -0.233119  y = -1.184430  z = -0.257169 angstrom
           Maximum rank =  0   Radius =  0.325 angstrom
                   Q00  =   0.085775

H          x = -1.364119  y = -1.298430  z = -1.617169 angstrom
           Maximum rank =  0   Radius =  0.325 angstrom
                   Q00  =   0.079342

H          x = -0.737119  y = -2.761430  z = -0.896169 angstrom
           Maximum rank =  0   Radius =  0.325 angstrom
                   Q00  =   0.077005

H          x =  0.478881  y = -2.396430  z = -2.947169 angstrom
           Maximum rank =  0   Radius =  0.325 angstrom
                   Q00  =   0.077631

H          x =  1.637671  y = -2.051470  z = -1.642969 angstrom
           Maximum rank =  0   Radius =  0.325 angstrom
                   Q00  =   0.080445

H          x =  0.853761  y = -0.707680  z = -2.552069 angstrom
           Maximum rank =  0   Radius =  0.325 angstrom
                   Q00  =   0.078842

C          x = -0.388119  y =  1.212570  z =  1.145831 angstrom
           Maximum rank =  0   Radius =  0.650 angstrom
                   Q00  =  -0.240460

C          x =  0.157881  y =  2.236570  z =  2.154831 angstrom
           Maximum rank =  0   Radius =  0.650 angstrom
                   Q00  =  -0.237200

H          x = -0.428119  y =  0.222570  z =  1.601831 angstrom
           Maximum rank =  0   Radius =  0.325 angstrom
                   Q00  =   0.077489

H          x = -1.387119  y =  1.497571  z =  0.814831 angstrom
           Maximum rank =  0   Radius =  0.325 angstrom
                   Q00  =   0.082862

H          x =  0.261881  y =  1.181570  z =  0.271831 angstrom
           Maximum rank =  0   Radius =  0.325 angstrom
                   Q00  =   0.078515

H          x =  0.037881  y =  3.226571  z =  1.711831 angstrom
           Maximum rank =  0   Radius =  0.325 angstrom
                   Q00  =   0.077616

H          x =  1.231081  y =  2.079120  z =  2.337731 angstrom
           Maximum rank =  0   Radius =  0.325 angstrom
                   Q00  =   0.080755

H          x = -0.405399  y =  2.212921  z =  3.099331 angstrom
           Maximum rank =  0   Radius =  0.325 angstrom
                   Q00  =   0.081967

Total multipoles referred to origin at
           x =   0.000000,  y =    0.000000,  z =    0.000000 angstrom
                   Q00  =   0.000000

Finished at 0:20:6 on 28 Apr 2020

  DMA results are available in the Python driver through the
	  variable('DMA DISTRIBUTED MULTIPOLES')
  and
	  variable('DMA TOTAL MULTIPOLES')
  commands.

    Psi4 stopped on: Tuesday, 28 April 2020 12:20AM
    Psi4 wall time for execution: 0:00:10.66

*** Psi4 exiting successfully. Buy a developer a beer!
