                               Psi4 1.3.2 release

  ==> Input File <==

--------------------------------------------------------------------------
import numpy as np
set {scf_type pk
basis cc-pvdz
d_convergence 10
gdma_switch   0
gdma_limit    0
gdma_origin   [ 0.0,  0.0,  0.0 ]
}
molecule test {
    units Angstrom
    0 1
    --
    0 1
    C               -0.236081191681206     1.029443055847219     2.182314378330216
    C                0.873918808318794     0.668443055847219    -0.157685621669784
    C                0.832918808318794     1.201443055847219     1.169314378330216
    C                2.096918808318794     1.089443055847219    -0.744685621669784
    C                1.988918808318794     1.904443055847219     1.338314378330216
    C               -0.006081191681206    -0.133556944152781    -0.865685621669784
    C                0.347918808318794    -0.486556944152781    -2.159685621669784
    C                1.546918808318794    -0.053556944152781    -2.731685621669784
    C                2.441918808318794     0.738443055847219    -2.038685621669784
    N                2.747918808318794     1.841443055847219     0.195314378330216
    H               -0.924081191681206    -0.445556944152781    -0.410685621669784
    H               -0.314081191681206    -1.109556944152781    -2.748685621669784
    H                1.780918808318794    -0.347556944152781    -3.747685621669783
    H                0.235918808318794     1.044443055847219     3.158314378330216
    H               -0.675081191681206     0.041443055847219     2.054314378330216
    H                2.275918808318794     2.422443055847219     2.248314378330216
    H                3.660918808318794     2.270443055847220     0.090314378330216
    H                3.371918808318795     1.066443055847219    -2.482685621669784
    H               -1.043121191681206     1.776893055847219     2.180874378330216
    C               -2.835081191681206    -2.409556944152781    -0.538685621669784
    C               -2.822081191681205    -1.692556944152781     0.789314378330216
    O               -3.360081191681206    -0.591556944152781     0.922314378330216
    N               -2.235081191681206    -2.308556944152781     1.812314378330216
    H               -3.523081191681206    -3.243556944152781    -0.420685621669784
    H               -1.844081191681206    -2.822556944152781    -0.729685621669784
    H               -2.281081191681206    -1.902556944152781     2.743314378330216
    H               -1.761081191681206    -3.193556944152781     1.662314378330216
    H               -3.125681191681206    -1.776096944152781    -1.389735621669784

}
e, wfn = energy('scf', return_wfn=True)
gdma(wfn)
dmavals = variable('DMA DISTRIBUTED MULTIPOLES')
charges = np.array(dmavals)
print(charges)
np.save('SSI-003TRP-167GLN-2-dimer.npy', np.array(charges))--------------------------------------------------------------------------

*** tstart() called on ds3
*** at Tue Apr 28 20:08:31 2020

   => Loading Basis Set <=

    Name: CC-PVDZ
    Role: ORBITAL
    Keyword: BASIS
    atoms 1-9, 20-21   entry C          line   138 file /theoryfs2/ds/metcalf/miniconda2/envs/tf2gpu/share/psi4/basis/cc-pvdz.gbs
    atoms 10, 23       entry N          line   168 file /theoryfs2/ds/metcalf/miniconda2/envs/tf2gpu/share/psi4/basis/cc-pvdz.gbs
    atoms 11-19, 24-28 entry H          line    22 file /theoryfs2/ds/metcalf/miniconda2/envs/tf2gpu/share/psi4/basis/cc-pvdz.gbs
    atoms 22           entry O          line   198 file /theoryfs2/ds/metcalf/miniconda2/envs/tf2gpu/share/psi4/basis/cc-pvdz.gbs

         ---------------------------------------------------------
                                   SCF
               by Justin Turney, Rob Parrish, Andy Simmonett
                          and Daniel G. A. Smith
                              RHF Reference
                        1 Threads,    500 MiB Core
         ---------------------------------------------------------

  ==> Geometry <==

    Molecular point group: c1
    Full point group: C1

    Geometry (in Angstrom), charge = 0, multiplicity = 1:

       Center              X                  Y                   Z               Mass
    ------------   -----------------  -----------------  -----------------  -----------------
         C           -0.236081191681     1.029443055847     2.182314378330    12.000000000000
         C            0.873918808319     0.668443055847    -0.157685621670    12.000000000000
         C            0.832918808319     1.201443055847     1.169314378330    12.000000000000
         C            2.096918808319     1.089443055847    -0.744685621670    12.000000000000
         C            1.988918808319     1.904443055847     1.338314378330    12.000000000000
         C           -0.006081191681    -0.133556944153    -0.865685621670    12.000000000000
         C            0.347918808319    -0.486556944153    -2.159685621670    12.000000000000
         C            1.546918808319    -0.053556944153    -2.731685621670    12.000000000000
         C            2.441918808319     0.738443055847    -2.038685621670    12.000000000000
         N            2.747918808319     1.841443055847     0.195314378330    14.003074004430
         H           -0.924081191681    -0.445556944153    -0.410685621670     1.007825032230
         H           -0.314081191681    -1.109556944153    -2.748685621670     1.007825032230
         H            1.780918808319    -0.347556944153    -3.747685621670     1.007825032230
         H            0.235918808319     1.044443055847     3.158314378330     1.007825032230
         H           -0.675081191681     0.041443055847     2.054314378330     1.007825032230
         H            2.275918808319     2.422443055847     2.248314378330     1.007825032230
         H            3.660918808319     2.270443055847     0.090314378330     1.007825032230
         H            3.371918808319     1.066443055847    -2.482685621670     1.007825032230
         H           -1.043121191681     1.776893055847     2.180874378330     1.007825032230
         C           -2.835081191681    -2.409556944153    -0.538685621670    12.000000000000
         C           -2.822081191681    -1.692556944153     0.789314378330    12.000000000000
         O           -3.360081191681    -0.591556944153     0.922314378330    15.994914619570
         N           -2.235081191681    -2.308556944153     1.812314378330    14.003074004430
         H           -3.523081191681    -3.243556944153    -0.420685621670     1.007825032230
         H           -1.844081191681    -2.822556944153    -0.729685621670     1.007825032230
         H           -2.281081191681    -1.902556944153     2.743314378330     1.007825032230
         H           -1.761081191681    -3.193556944153     1.662314378330     1.007825032230
         H           -3.125681191681    -1.776096944153    -1.389735621670     1.007825032230

  Running in c1 symmetry.

  Rotational constants: A =      0.03453  B =      0.01371  C =      0.01040 [cm^-1]
  Rotational constants: A =   1035.12333  B =    410.90388  C =    311.69019 [MHz]
  Nuclear repulsion =  839.574314187976256

  Charge       = 0
  Multiplicity = 1
  Electrons    = 102
  Nalpha       = 51
  Nbeta        = 51

  ==> Algorithm <==

  SCF Algorithm Type is PK.
  DIIS enabled.
  MOM disabled.
  Fractional occupation disabled.
  Guess Type is SAD.
  Energy threshold   = 1.00e-06
  Density threshold  = 1.00e-10
  Integral threshold = 0.00e+00

  ==> Primary Basis <==

  Basis Set: CC-PVDZ
    Blend: CC-PVDZ
    Number of shells: 126
    Number of basis function: 266
    Number of Cartesian functions: 280
    Spherical Harmonics?: true
    Max angular momentum: 2

  ==> Pre-Iterations <==

   -------------------------------------------------------
    Irrep   Nso     Nmo     Nalpha   Nbeta   Ndocc  Nsocc
   -------------------------------------------------------
     A        266     266       0       0       0       0
   -------------------------------------------------------
    Total     266     266      51      51      51       0
   -------------------------------------------------------

  ==> Integral Setup <==

  Using integral reordering PK algorithm.
  Sizing the integral batches needed.
  Building batch lookup table.
   Calculation information:
      Number of atoms:                  28
      Number of AO shells:             126
      Number of primitives:            378
      Number of atomic orbitals:       280
      Number of basis functions:       266

      Integral cutoff                 1.00e-12
      Number of threads:                 1

	Batch   1 pq = [       0,    9405] index = [             0,44231715] size =     44231715
	Batch   2 pq = [    9405,   13301] index = [      44231715,88464951] size =     44233236
	Batch   3 pq = [   13301,   16290] index = [      88464951,132690195] size =     44225244
	Batch   4 pq = [   16290,   18810] index = [     132690195,176917455] size =     44227260
	Batch   5 pq = [   18810,   21030] index = [     176917455,221140965] size =     44223510
	Batch   6 pq = [   21030,   23037] index = [     221140965,265363203] size =     44222238
	Batch   7 pq = [   23037,   24883] index = [     265363203,309594286] size =     44231083
	Batch   8 pq = [   24883,   26601] index = [     309594286,353819901] size =     44225615
	Batch   9 pq = [   26601,   28214] index = [     353819901,398029005] size =     44209104
	Batch  10 pq = [   28214,   29740] index = [     398029005,442248670] size =     44219665
	Batch  11 pq = [   29740,   31191] index = [     442248670,486454836] size =     44206166
	Batch  12 pq = [   31191,   32578] index = [     486454836,530679331] size =     44224495
	Batch  13 pq = [   32578,   33908] index = [     530679331,574893186] size =     44213855
	Batch  14 pq = [   33908,   35188] index = [     574893186,619115266] size =     44222080
	Batch  15 pq = [   35188,   35511] index = [     619115266,630533316] size =     11418050
  Task number: 58
  Buffer size: 11059200
  Buffer per thread: 2
  We computed 32215539 shell quartets total.
  Whereas there are 32012001 unique shell quartets.
     0.64 percent of shell quartets recomputed by reordering.

  ==> DiskJK: Disk-Based J/K Matrices <==

    J tasked:                  Yes
    K tasked:                  Yes
    wK tasked:                  No
    Memory [MiB]:              375
    Schwarz Cutoff:          1E-12

    OpenMP threads:              1

  Minimum eigenvalue in the overlap matrix is 2.1399564828E-04.
  Using Symmetric Orthogonalization.

  SCF Guess: Superposition of Atomic Densities via on-the-fly atomic UHF.

  ==> Iterations <==

                        Total Energy        Delta E     RMS |[F,P]|

   @RHF iter SAD:  -607.75110755340904   -6.07751e+02   0.00000e+00
   @RHF iter   1:  -608.16815346310796   -4.17046e-01   2.88087e-03 DIIS
   @RHF iter   2:  -608.44491140225227   -2.76758e-01   1.57674e-03 DIIS
   @RHF iter   3:  -608.51795674416894   -7.30453e-02   3.69835e-04 DIIS
   @RHF iter   4:  -608.52371726815215   -5.76052e-03   1.39843e-04 DIIS
   @RHF iter   5:  -608.52457733578433   -8.60068e-04   2.30897e-05 DIIS
   @RHF iter   6:  -608.52462908177131   -5.17460e-05   1.17226e-05 DIIS
   @RHF iter   7:  -608.52464033391038   -1.12521e-05   4.73222e-06 DIIS
   @RHF iter   8:  -608.52464305179296   -2.71788e-06   1.67736e-06 DIIS
   @RHF iter   9:  -608.52464342820690   -3.76414e-07   7.91254e-07 DIIS
   @RHF iter  10:  -608.52464350825085   -8.00439e-08   3.34450e-07 DIIS
   @RHF iter  11:  -608.52464352917798   -2.09271e-08   1.41552e-07 DIIS
   @RHF iter  12:  -608.52464353272148   -3.54351e-09   7.55178e-08 DIIS
   @RHF iter  13:  -608.52464353348034   -7.58860e-10   2.42677e-08 DIIS
   @RHF iter  14:  -608.52464353358994   -1.09594e-10   8.74982e-09 DIIS
   @RHF iter  15:  -608.52464353359778   -7.84439e-12   2.97804e-09 DIIS
   @RHF iter  16:  -608.52464353359517    2.61480e-12   1.20686e-09 DIIS
   @RHF iter  17:  -608.52464353359881   -3.63798e-12   5.07338e-10 DIIS
   @RHF iter  18:  -608.52464353359801    7.95808e-13   2.27071e-10 DIIS
   @RHF iter  19:  -608.52464353359869   -6.82121e-13   1.06781e-10 DIIS
   @RHF iter  20:  -608.52464353360119   -2.50111e-12   4.85156e-11 DIIS
  Energy and wave function converged.

  ==> Post-Iterations <==

    Orbital Energies [Eh]
    ---------------------

    Doubly Occupied:

       1A    -20.504871     2A    -15.597658     3A    -15.591737
       4A    -11.349195     5A    -11.259873     6A    -11.257843
       7A    -11.243020     8A    -11.226955     9A    -11.224943
      10A    -11.222854    11A    -11.217370    12A    -11.213544
      13A    -11.213270    14A    -11.209314    15A     -1.366609
      16A     -1.292151    17A     -1.215268    18A     -1.128787
      19A     -1.070815    20A     -1.004112    21A     -0.996340
      22A     -0.983979    23A     -0.924983    24A     -0.838063
      25A     -0.801359    26A     -0.798962    27A     -0.748890
      28A     -0.725045    29A     -0.717556    30A     -0.659052
      31A     -0.654708    32A     -0.639347    33A     -0.621972
      34A     -0.599248    35A     -0.588300    36A     -0.586863
      37A     -0.570862    38A     -0.562192    39A     -0.558772
      40A     -0.544570    41A     -0.535080    42A     -0.524379
      43A     -0.514882    44A     -0.489203    45A     -0.467708
      46A     -0.460561    47A     -0.409899    48A     -0.404474
      49A     -0.370275    50A     -0.292179    51A     -0.269761

    Virtual:

      52A      0.129156    53A      0.161698    54A      0.173277
      55A      0.183389    56A      0.194828    57A      0.198236
      58A      0.205945    59A      0.215871    60A      0.225534
      61A      0.229944    62A      0.244940    63A      0.263550
      64A      0.264220    65A      0.271057    66A      0.299087
      67A      0.301326    68A      0.308602    69A      0.338928
      70A      0.380230    71A      0.386937    72A      0.388848
      73A      0.416964    74A      0.427165    75A      0.454899
      76A      0.466602    77A      0.476848    78A      0.490671
      79A      0.503554    80A      0.520954    81A      0.565427
      82A      0.597363    83A      0.609184    84A      0.644444
      85A      0.645579    86A      0.651791    87A      0.670041
      88A      0.686338    89A      0.699178    90A      0.703481
      91A      0.713711    92A      0.721021    93A      0.727318
      94A      0.734628    95A      0.745045    96A      0.746273
      97A      0.750531    98A      0.755804    99A      0.763948
     100A      0.771587   101A      0.785310   102A      0.789826
     103A      0.795334   104A      0.813655   105A      0.829936
     106A      0.836713   107A      0.857641   108A      0.862030
     109A      0.879725   110A      0.885876   111A      0.888393
     112A      0.902900   113A      0.909305   114A      0.911750
     115A      0.924444   116A      0.928195   117A      0.940384
     118A      0.948855   119A      0.960966   120A      0.969888
     121A      0.980629   122A      0.989013   123A      1.010139
     124A      1.019938   125A      1.054048   126A      1.063447
     127A      1.079111   128A      1.091042   129A      1.097794
     130A      1.119533   131A      1.132339   132A      1.143795
     133A      1.146050   134A      1.152456   135A      1.163279
     136A      1.197731   137A      1.211808   138A      1.220918
     139A      1.237350   140A      1.246370   141A      1.258488
     142A      1.273135   143A      1.282880   144A      1.298564
     145A      1.307560   146A      1.334960   147A      1.340138
     148A      1.347991   149A      1.357735   150A      1.366217
     151A      1.375163   152A      1.390987   153A      1.419044
     154A      1.422681   155A      1.450930   156A      1.477635
     157A      1.502321   158A      1.510769   159A      1.548892
     160A      1.580376   161A      1.598543   162A      1.615915
     163A      1.639152   164A      1.652586   165A      1.664021
     166A      1.674237   167A      1.691268   168A      1.699259
     169A      1.710326   170A      1.743980   171A      1.747560
     172A      1.764507   173A      1.785380   174A      1.790766
     175A      1.804597   176A      1.819953   177A      1.829156
     178A      1.841899   179A      1.862456   180A      1.882177
     181A      1.891563   182A      1.899904   183A      1.903484
     184A      1.912908   185A      1.921852   186A      1.930986
     187A      1.942326   188A      1.951768   189A      1.955699
     190A      1.966646   191A      1.980571   192A      1.991489
     193A      2.003051   194A      2.009716   195A      2.020780
     196A      2.028845   197A      2.032774   198A      2.075093
     199A      2.085178   200A      2.091319   201A      2.097023
     202A      2.102161   203A      2.107567   204A      2.121268
     205A      2.134232   206A      2.150074   207A      2.172912
     208A      2.184722   209A      2.187653   210A      2.190990
     211A      2.243582   212A      2.261487   213A      2.271535
     214A      2.279518   215A      2.296150   216A      2.324237
     217A      2.333168   218A      2.347631   219A      2.370610
     220A      2.408205   221A      2.427555   222A      2.442583
     223A      2.455906   224A      2.466160   225A      2.499770
     226A      2.521153   227A      2.549586   228A      2.559384
     229A      2.585656   230A      2.603348   231A      2.610314
     232A      2.624204   233A      2.656991   234A      2.678277
     235A      2.696822   236A      2.699898   237A      2.723091
     238A      2.757049   239A      2.780452   240A      2.795362
     241A      2.797944   242A      2.819060   243A      2.823743
     244A      2.857570   245A      2.887634   246A      2.892971
     247A      2.910367   248A      2.930957   249A      2.984752
     250A      2.999712   251A      3.044642   252A      3.062108
     253A      3.086616   254A      3.101794   255A      3.136158
     256A      3.147261   257A      3.220599   258A      3.274931
     259A      3.349705   260A      3.394211   261A      3.513051
     262A      3.523310   263A      3.747295   264A      3.861862
     265A      3.905039   266A      3.981046

    Final Occupation by Irrep:
              A
    DOCC [    51 ]

  @RHF Final Energy:  -608.52464353360119

   => Energetics <=

    Nuclear Repulsion Energy =            839.5743141879762561
    One-Electron Energy =               -2493.6586147090902159
    Two-Electron Energy =                1045.5596569875128807
    Total Energy =                       -608.5246435336011928

Computation Completed

Properties will be evaluated at   0.000000,   0.000000,   0.000000 [a0]

Properties computed using the SCF density matrix

  Nuclear Dipole Moment: [e a0]
     X:    -3.9229      Y:    -5.8315      Z:     2.0684

  Electronic Dipole Moment: [e a0]
     X:     5.1639      Y:     4.7497      Z:    -1.5444

  Dipole Moment: [e a0]
     X:     1.2410      Y:    -1.0818      Z:     0.5240     Total:     1.7277

  Dipole Moment: [D]
     X:     3.1543      Y:    -2.7497      Z:     1.3319     Total:     4.3914

*** tstop() called on ds3 at Tue Apr 28 20:14:43 2020
Module time:
	user time   =     277.44 seconds =       4.62 minutes
	system time =     105.06 seconds =       1.75 minutes
	total time  =        372 seconds =       6.20 minutes
Total time:
	user time   =     277.44 seconds =       4.62 minutes
	system time =     105.06 seconds =       1.75 minutes
	total time  =        372 seconds =       6.20 minutes
                                     G D M A

                                 by Anthony Stone

                           version 2.2.06, 22 June 2011

               Distributed Multipoles from Gaussian wavefunctions

Starting at 20:14:43 on 28 Apr 2020

Using SCF density matrix from file ./SSI/SSI-003TRP-167GLN-2-dimer.test.7399.fchk

                         Distributed Multipole Analysis

Standard DMA

Positions and radii in angstrom
Multipole moments in atomic units, ea_0^k for rank k

C          x = -0.236081  y =  1.029443  z =  2.182314 angstrom
           Maximum rank =  0   Radius =  0.650 angstrom
                   Q00  =  -0.219425

C          x =  0.873919  y =  0.668443  z = -0.157686 angstrom
           Maximum rank =  0   Radius =  0.650 angstrom
                   Q00  =  -0.039310

C          x =  0.832919  y =  1.201443  z =  1.169314 angstrom
           Maximum rank =  0   Radius =  0.650 angstrom
                   Q00  =  -0.110989

C          x =  2.096919  y =  1.089443  z = -0.744686 angstrom
           Maximum rank =  0   Radius =  0.650 angstrom
                   Q00  =   0.189260

C          x =  1.988919  y =  1.904443  z =  1.338314 angstrom
           Maximum rank =  0   Radius =  0.650 angstrom
                   Q00  =   0.064065

C          x = -0.006081  y = -0.133557  z = -0.865686 angstrom
           Maximum rank =  0   Radius =  0.650 angstrom
                   Q00  =  -0.088471

C          x =  0.347919  y = -0.486557  z = -2.159686 angstrom
           Maximum rank =  0   Radius =  0.650 angstrom
                   Q00  =  -0.074511

C          x =  1.546919  y = -0.053557  z = -2.731686 angstrom
           Maximum rank =  0   Radius =  0.650 angstrom
                   Q00  =   0.019714

C          x =  2.441919  y =  0.738443  z = -2.038686 angstrom
           Maximum rank =  0   Radius =  0.650 angstrom
                   Q00  =  -0.119555

N          x =  2.747919  y =  1.841443  z =  0.195314 angstrom
           Maximum rank =  0   Radius =  0.650 angstrom
                   Q00  =  -0.487596

H          x = -0.924081  y = -0.445557  z = -0.410686 angstrom
           Maximum rank =  0   Radius =  0.325 angstrom
                   Q00  =   0.058985

H          x = -0.314081  y = -1.109557  z = -2.748686 angstrom
           Maximum rank =  0   Radius =  0.325 angstrom
                   Q00  =   0.048759

H          x =  1.780919  y = -0.347557  z = -3.747686 angstrom
           Maximum rank =  0   Radius =  0.325 angstrom
                   Q00  =   0.059463

H          x =  0.235919  y =  1.044443  z =  3.158314 angstrom
           Maximum rank =  0   Radius =  0.325 angstrom
                   Q00  =   0.091419

H          x = -0.675081  y =  0.041443  z =  2.054314 angstrom
           Maximum rank =  0   Radius =  0.325 angstrom
                   Q00  =   0.099337

H          x =  2.275919  y =  2.422443  z =  2.248314 angstrom
           Maximum rank =  0   Radius =  0.325 angstrom
                   Q00  =   0.097505

H          x =  3.660919  y =  2.270443  z =  0.090314 angstrom
           Maximum rank =  0   Radius =  0.325 angstrom
                   Q00  =   0.215302

H          x =  3.371919  y =  1.066443  z = -2.482686 angstrom
           Maximum rank =  0   Radius =  0.325 angstrom
                   Q00  =   0.072670

H          x = -1.043121  y =  1.776893  z =  2.180874 angstrom
           Maximum rank =  0   Radius =  0.325 angstrom
                   Q00  =   0.112511

C          x = -2.835081  y = -2.409557  z = -0.538686 angstrom
           Maximum rank =  0   Radius =  0.650 angstrom
                   Q00  =  -0.253137

C          x = -2.822081  y = -1.692557  z =  0.789314 angstrom
           Maximum rank =  0   Radius =  0.650 angstrom
                   Q00  =   0.797043

O          x = -3.360081  y = -0.591557  z =  0.922314 angstrom
           Maximum rank =  0   Radius =  0.650 angstrom
                   Q00  =  -0.788850

N          x = -2.235081  y = -2.308557  z =  1.812314 angstrom
           Maximum rank =  0   Radius =  0.650 angstrom
                   Q00  =  -0.530913

H          x = -3.523081  y = -3.243557  z = -0.420686 angstrom
           Maximum rank =  0   Radius =  0.325 angstrom
                   Q00  =   0.123550

H          x = -1.844081  y = -2.822557  z = -0.729686 angstrom
           Maximum rank =  0   Radius =  0.325 angstrom
                   Q00  =   0.091554

H          x = -2.281081  y = -1.902557  z =  2.743314 angstrom
           Maximum rank =  0   Radius =  0.325 angstrom
                   Q00  =   0.232107

H          x = -1.761081  y = -3.193557  z =  1.662314 angstrom
           Maximum rank =  0   Radius =  0.325 angstrom
                   Q00  =   0.204950

H          x = -3.125681  y = -1.776097  z = -1.389736 angstrom
           Maximum rank =  0   Radius =  0.325 angstrom
                   Q00  =   0.134561

Total multipoles referred to origin at
           x =   0.000000,  y =    0.000000,  z =    0.000000 angstrom
                   Q00  =  -0.000000

Finished at 20:14:43 on 28 Apr 2020

  DMA results are available in the Python driver through the
	  variable('DMA DISTRIBUTED MULTIPOLES')
  and
	  variable('DMA TOTAL MULTIPOLES')
  commands.

    Psi4 stopped on: Tuesday, 28 April 2020 08:14PM
    Psi4 wall time for execution: 0:06:11.91

*** Psi4 exiting successfully. Buy a developer a beer!
