                               Psi4 1.3.2 release

  ==> Input File <==

--------------------------------------------------------------------------
import numpy as np
set {scf_type pk
basis cc-pvdz
d_convergence 10
gdma_switch   0
gdma_limit    0
gdma_origin   [ 0.0,  0.0,  0.0 ]
}
molecule test {
    units Angstrom
    -1 1
    --
    -1 1
    C               -1.226241681576322    -0.750904285338878    -4.274203797797824
    C               -1.606241681576323    -0.702904285338879    -2.813203797797825
    O               -2.584241681576322     0.005095714661121    -2.503203797797825
    O               -0.995241681576322    -1.467904285338879    -2.046203797797825
    H               -1.769241681576323    -1.574904285338878    -4.743203797797825
    H               -0.160241681576323    -0.949904285338879    -4.380203797797824
    H               -1.485591681576322     0.184600714661121    -4.791473797797825
    C                3.413758318423677     1.216095714661121     2.824796202202175
    C               -0.297241681576323     0.005095714661121     0.991796202202175
    C               -0.218241681576323     0.183095714661121     2.372796202202175
    C                0.819758318423678     0.218095714661121     0.185796202202175
    C                0.981758318423678     0.583095714661122     2.944796202202175
    C                2.022758318423677     0.609095714661121     0.787796202202175
    C                2.113758318423677     0.802095714661122     2.166796202202176
    O               -1.504241681576322    -0.342904285338879     0.497796202202175
    H               -2.160241681576323    -0.410904285338879     1.190796202202175
    H               -1.075241681576323    -0.000904285338879     2.990796202202176
    H                0.738758318423678     0.097095714661121    -0.882203797797825
    H                1.032758318423677     0.726095714661122     4.014796202202175
    H                2.894758318423677     0.774095714661121     0.168796202202175
    H                3.169758318423678     2.002095714661122     3.536796202202176
    H                4.078758318423678     1.654095714661121     2.078796202202175
    H                3.931658318423678     0.403690714661121     3.355626202202176

}
e, wfn = energy('scf', return_wfn=True)
gdma(wfn)
dmavals = variable('DMA DISTRIBUTED MULTIPOLES')
charges = np.array(dmavals)
print(charges)
np.save('SSI-011GLU-062TYR-1-dimer.npy', np.array(charges))--------------------------------------------------------------------------

*** tstart() called on ds3
*** at Mon Apr 27 16:05:44 2020

   => Loading Basis Set <=

    Name: CC-PVDZ
    Role: ORBITAL
    Keyword: BASIS
    atoms 1-2, 8-14  entry C          line   138 file /theoryfs2/ds/metcalf/miniconda2/envs/tf2gpu/share/psi4/basis/cc-pvdz.gbs
    atoms 3-4, 15    entry O          line   198 file /theoryfs2/ds/metcalf/miniconda2/envs/tf2gpu/share/psi4/basis/cc-pvdz.gbs
    atoms 5-7, 16-23 entry H          line    22 file /theoryfs2/ds/metcalf/miniconda2/envs/tf2gpu/share/psi4/basis/cc-pvdz.gbs

         ---------------------------------------------------------
                                   SCF
               by Justin Turney, Rob Parrish, Andy Simmonett
                          and Daniel G. A. Smith
                              RHF Reference
                        1 Threads,    500 MiB Core
         ---------------------------------------------------------

  ==> Geometry <==

    Molecular point group: c1
    Full point group: C1

    Geometry (in Angstrom), charge = -1, multiplicity = 1:

       Center              X                  Y                   Z               Mass
    ------------   -----------------  -----------------  -----------------  -----------------
         C           -1.226241681576    -0.750904285339    -4.274203797798    12.000000000000
         C           -1.606241681576    -0.702904285339    -2.813203797798    12.000000000000
         O           -2.584241681576     0.005095714661    -2.503203797798    15.994914619570
         O           -0.995241681576    -1.467904285339    -2.046203797798    15.994914619570
         H           -1.769241681576    -1.574904285339    -4.743203797798     1.007825032230
         H           -0.160241681576    -0.949904285339    -4.380203797798     1.007825032230
         H           -1.485591681576     0.184600714661    -4.791473797798     1.007825032230
         C            3.413758318424     1.216095714661     2.824796202202    12.000000000000
         C           -0.297241681576     0.005095714661     0.991796202202    12.000000000000
         C           -0.218241681576     0.183095714661     2.372796202202    12.000000000000
         C            0.819758318424     0.218095714661     0.185796202202    12.000000000000
         C            0.981758318424     0.583095714661     2.944796202202    12.000000000000
         C            2.022758318424     0.609095714661     0.787796202202    12.000000000000
         C            2.113758318424     0.802095714661     2.166796202202    12.000000000000
         O           -1.504241681576    -0.342904285339     0.497796202202    15.994914619570
         H           -2.160241681576    -0.410904285339     1.190796202202     1.007825032230
         H           -1.075241681576    -0.000904285339     2.990796202202     1.007825032230
         H            0.738758318424     0.097095714661    -0.882203797798     1.007825032230
         H            1.032758318424     0.726095714661     4.014796202202     1.007825032230
         H            2.894758318424     0.774095714661     0.168796202202     1.007825032230
         H            3.169758318424     2.002095714661     3.536796202202     1.007825032230
         H            4.078758318424     1.654095714661     2.078796202202     1.007825032230
         H            3.931658318424     0.403690714661     3.355626202202     1.007825032230

  Running in c1 symmetry.

  Rotational constants: A =      0.07389  B =      0.01219  C =      0.01087 [cm^-1]
  Rotational constants: A =   2215.26465  B =    365.38232  C =    325.93251 [MHz]
  Nuclear repulsion =  642.349438114585837

  Charge       = -1
  Multiplicity = 1
  Electrons    = 90
  Nalpha       = 45
  Nbeta        = 45

  ==> Algorithm <==

  SCF Algorithm Type is PK.
  DIIS enabled.
  MOM disabled.
  Fractional occupation disabled.
  Guess Type is SAD.
  Energy threshold   = 1.00e-06
  Density threshold  = 1.00e-10
  Integral threshold = 0.00e+00

  ==> Primary Basis <==

  Basis Set: CC-PVDZ
    Blend: CC-PVDZ
    Number of shells: 105
    Number of basis function: 223
    Number of Cartesian functions: 235
    Spherical Harmonics?: true
    Max angular momentum: 2

  ==> Pre-Iterations <==

   -------------------------------------------------------
    Irrep   Nso     Nmo     Nalpha   Nbeta   Ndocc  Nsocc
   -------------------------------------------------------
     A        223     223       0       0       0       0
   -------------------------------------------------------
    Total     223     223      45      45      45       0
   -------------------------------------------------------

  ==> Integral Setup <==

  Using integral reordering PK algorithm.
  Sizing the integral batches needed.
  Building batch lookup table.
   Calculation information:
      Number of atoms:                  23
      Number of AO shells:             105
      Number of primitives:            319
      Number of atomic orbitals:       235
      Number of basis functions:       223

      Integral cutoff                 1.00e-12
      Number of threads:                 1

	Batch   1 pq = [       0,    9405] index = [             0,44231715] size =     44231715
	Batch   2 pq = [    9405,   13301] index = [      44231715,88464951] size =     44233236
	Batch   3 pq = [   13301,   16290] index = [      88464951,132690195] size =     44225244
	Batch   4 pq = [   16290,   18810] index = [     132690195,176917455] size =     44227260
	Batch   5 pq = [   18810,   21030] index = [     176917455,221140965] size =     44223510
	Batch   6 pq = [   21030,   23037] index = [     221140965,265363203] size =     44222238
	Batch   7 pq = [   23037,   24976] index = [     265363203,311912776] size =     46549573
  Task number: 29
  Buffer size: 11059200
  Buffer per thread: 2
  We computed 12137075 shell quartets total.
  Whereas there are 15487395 unique shell quartets.

  ==> DiskJK: Disk-Based J/K Matrices <==

    J tasked:                  Yes
    K tasked:                  Yes
    wK tasked:                  No
    Memory [MiB]:              375
    Schwarz Cutoff:          1E-12

    OpenMP threads:              1

  Minimum eigenvalue in the overlap matrix is 3.1829147688E-04.
  Using Symmetric Orthogonalization.

  SCF Guess: Superposition of Atomic Densities via on-the-fly atomic UHF.

  ==> Iterations <==

                        Total Energy        Delta E     RMS |[F,P]|

   @RHF iter SAD:  -570.25050950156651   -5.70251e+02   0.00000e+00
   @RHF iter   1:  -571.48561345469682   -1.23510e+00   3.73806e-03 DIIS
   @RHF iter   2:  -571.77830363712326   -2.92690e-01   1.96361e-03 DIIS
   @RHF iter   3:  -571.84970211498444   -7.13985e-02   3.40851e-04 DIIS
   @RHF iter   4:  -571.85350812283275   -3.80601e-03   1.24014e-04 DIIS
   @RHF iter   5:  -571.85402078104698   -5.12658e-04   2.02026e-05 DIIS
   @RHF iter   6:  -571.85404231051962   -2.15295e-05   6.23148e-06 DIIS
   @RHF iter   7:  -571.85404460931704   -2.29880e-06   2.76287e-06 DIIS
   @RHF iter   8:  -571.85404503380653   -4.24489e-07   1.06506e-06 DIIS
   @RHF iter   9:  -571.85404513611024   -1.02304e-07   4.79435e-07 DIIS
   @RHF iter  10:  -571.85404515947619   -2.33659e-08   2.13096e-07 DIIS
   @RHF iter  11:  -571.85404516657150   -7.09531e-09   7.50841e-08 DIIS
   @RHF iter  12:  -571.85404516739140   -8.19909e-10   3.26716e-08 DIIS
   @RHF iter  13:  -571.85404516748872   -9.73159e-11   1.03267e-08 DIIS
   @RHF iter  14:  -571.85404516748986   -1.13687e-12   3.82222e-09 DIIS
   @RHF iter  15:  -571.85404516748940    4.54747e-13   1.42743e-09 DIIS
   @RHF iter  16:  -571.85404516749009   -6.82121e-13   7.21308e-10 DIIS
   @RHF iter  17:  -571.85404516749236   -2.27374e-12   2.87718e-10 DIIS
   @RHF iter  18:  -571.85404516748872    3.63798e-12   1.20500e-10 DIIS
   @RHF iter  19:  -571.85404516749179   -3.06954e-12   4.72536e-11 DIIS
  Energy and wave function converged.

  ==> Post-Iterations <==

    Orbital Energies [Eh]
    ---------------------

    Doubly Occupied:

       1A    -20.439250     2A    -20.252773     3A    -20.250026
       4A    -11.179932     5A    -11.142707     6A    -11.132806
       7A    -11.130327     8A    -11.127280     9A    -11.120040
      10A    -11.108651    11A    -11.106439    12A    -11.042050
      13A     -1.266776    14A     -1.144532    15A     -1.040271
      16A     -1.034331    17A     -0.930219    18A     -0.905936
      19A     -0.823658    20A     -0.790305    21A     -0.731715
      22A     -0.688939    23A     -0.610879    24A     -0.555391
      25A     -0.531247    26A     -0.498125    27A     -0.493685
      28A     -0.486912    29A     -0.474833    30A     -0.455503
      31A     -0.447821    32A     -0.414651    33A     -0.406519
      34A     -0.402527    35A     -0.396772    36A     -0.393538
      37A     -0.364943    38A     -0.352646    39A     -0.337031
      40A     -0.296442    41A     -0.228728    42A     -0.184179
      43A     -0.170855    44A     -0.167253    45A     -0.155485

    Virtual:

      46A      0.239760    47A      0.265562    48A      0.271805
      49A      0.290700    50A      0.316854    51A      0.322544
      52A      0.351519    53A      0.355329    54A      0.368737
      55A      0.378769    56A      0.400124    57A      0.414950
      58A      0.444713    59A      0.462117    60A      0.483005
      61A      0.498372    62A      0.549770    63A      0.567403
      64A      0.582821    65A      0.591586    66A      0.599169
      67A      0.619340    68A      0.709081    69A      0.712639
      70A      0.727188    71A      0.740534    72A      0.766831
      73A      0.773957    74A      0.798918    75A      0.807196
      76A      0.816171    77A      0.821989    78A      0.837969
      79A      0.846684    80A      0.850610    81A      0.871215
      82A      0.878144    83A      0.884552    84A      0.896332
      85A      0.902199    86A      0.933287    87A      0.957061
      88A      0.959517    89A      0.968633    90A      0.974938
      91A      0.984694    92A      0.993584    93A      1.007802
      94A      1.018479    95A      1.025330    96A      1.033875
      97A      1.042025    98A      1.045781    99A      1.047487
     100A      1.054114   101A      1.060712   102A      1.083743
     103A      1.136989   104A      1.139515   105A      1.158344
     106A      1.170711   107A      1.219963   108A      1.254464
     109A      1.262267   110A      1.273168   111A      1.291458
     112A      1.309243   113A      1.338039   114A      1.346824
     115A      1.359549   116A      1.361625   117A      1.389781
     118A      1.394052   119A      1.406124   120A      1.417535
     121A      1.430874   122A      1.451213   123A      1.479077
     124A      1.491457   125A      1.500694   126A      1.560450
     127A      1.576419   128A      1.577936   129A      1.604744
     130A      1.614494   131A      1.621226   132A      1.642767
     133A      1.661183   134A      1.693930   135A      1.736022
     136A      1.755409   137A      1.771243   138A      1.780824
     139A      1.790978   140A      1.832370   141A      1.842533
     142A      1.849505   143A      1.853104   144A      1.865895
     145A      1.884260   146A      1.913919   147A      1.919249
     148A      1.970444   149A      1.988667   150A      1.999952
     151A      2.022045   152A      2.024217   153A      2.042328
     154A      2.052418   155A      2.058662   156A      2.064085
     157A      2.073427   158A      2.080363   159A      2.103003
     160A      2.124175   161A      2.134074   162A      2.158324
     163A      2.168489   164A      2.173978   165A      2.177365
     166A      2.186399   167A      2.227363   168A      2.240994
     169A      2.269180   170A      2.272513   171A      2.287250
     172A      2.306205   173A      2.332621   174A      2.360222
     175A      2.386059   176A      2.398278   177A      2.409599
     178A      2.435384   179A      2.442001   180A      2.459476
     181A      2.500334   182A      2.516431   183A      2.575350
     184A      2.584289   185A      2.606025   186A      2.612401
     187A      2.626796   188A      2.685494   189A      2.699152
     190A      2.700403   191A      2.730864   192A      2.765819
     193A      2.794156   194A      2.848969   195A      2.865130
     196A      2.901658   197A      2.916727   198A      2.927413
     199A      2.935027   200A      2.979442   201A      2.992928
     202A      3.000502   203A      3.071618   204A      3.116509
     205A      3.197880   206A      3.219312   207A      3.250757
     208A      3.283147   209A      3.310879   210A      3.375536
     211A      3.397083   212A      3.409850   213A      3.495580
     214A      3.634307   215A      3.749727   216A      3.802628
     217A      3.810609   218A      3.895775   219A      4.079447
     220A      4.104542   221A      4.123513   222A      4.212911
     223A      4.347341

    Final Occupation by Irrep:
              A
    DOCC [    45 ]

  @RHF Final Energy:  -571.85404516749179

   => Energetics <=

    Nuclear Repulsion Energy =            642.3494381145858370
    One-Electron Energy =               -2069.9771109770331350
    Two-Electron Energy =                 855.7736276949555076
    Total Energy =                       -571.8540451674917904

Computation Completed

Properties will be evaluated at   0.000000,   0.000000,   0.000000 [a0]

Properties computed using the SCF density matrix

  Nuclear Dipole Moment: [e a0]
     X:     8.5964      Y:     2.7148      Z:     2.3611

  Electronic Dipole Moment: [e a0]
     X:    -5.8960      Y:    -1.5912      Z:     1.5110

  Dipole Moment: [e a0]
     X:     2.7004      Y:     1.1236      Z:     3.8721     Total:     4.8526

  Dipole Moment: [D]
     X:     6.8639      Y:     2.8559      Z:     9.8419     Total:    12.3342

*** tstop() called on ds3 at Mon Apr 27 16:08:24 2020
Module time:
	user time   =     106.96 seconds =       1.78 minutes
	system time =      54.37 seconds =       0.91 minutes
	total time  =        160 seconds =       2.67 minutes
Total time:
	user time   =     106.96 seconds =       1.78 minutes
	system time =      54.37 seconds =       0.91 minutes
	total time  =        160 seconds =       2.67 minutes
                                     G D M A

                                 by Anthony Stone

                           version 2.2.06, 22 June 2011

               Distributed Multipoles from Gaussian wavefunctions

Starting at 16:8:24 on 27 Apr 2020

Using SCF density matrix from file ./SSI/SSI-011GLU-062TYR-1-dimer.test.21980.fchk

                         Distributed Multipole Analysis

Standard DMA

Positions and radii in angstrom
Multipole moments in atomic units, ea_0^k for rank k

C          x = -1.226242  y = -0.750904  z = -4.274204 angstrom
           Maximum rank =  0   Radius =  0.650 angstrom
                   Q00  =  -0.264387

C          x = -1.606242  y = -0.702904  z = -2.813204 angstrom
           Maximum rank =  0   Radius =  0.650 angstrom
                   Q00  =   0.948633

O          x = -2.584242  y =  0.005096  z = -2.503204 angstrom
           Maximum rank =  0   Radius =  0.650 angstrom
                   Q00  =  -0.918027

O          x = -0.995242  y = -1.467904  z = -2.046204 angstrom
           Maximum rank =  0   Radius =  0.650 angstrom
                   Q00  =  -0.918746

H          x = -1.769242  y = -1.574904  z = -4.743204 angstrom
           Maximum rank =  0   Radius =  0.325 angstrom
                   Q00  =   0.078984

H          x = -0.160242  y = -0.949904  z = -4.380204 angstrom
           Maximum rank =  0   Radius =  0.325 angstrom
                   Q00  =   0.042984

H          x = -1.485592  y =  0.184601  z = -4.791474 angstrom
           Maximum rank =  0   Radius =  0.325 angstrom
                   Q00  =   0.041598

C          x =  3.413758  y =  1.216096  z =  2.824796 angstrom
           Maximum rank =  0   Radius =  0.650 angstrom
                   Q00  =  -0.195180

C          x = -0.297242  y =  0.005096  z =  0.991796 angstrom
           Maximum rank =  0   Radius =  0.650 angstrom
                   Q00  =   0.338656

C          x = -0.218242  y =  0.183096  z =  2.372796 angstrom
           Maximum rank =  0   Radius =  0.650 angstrom
                   Q00  =  -0.179257

C          x =  0.819758  y =  0.218096  z =  0.185796 angstrom
           Maximum rank =  0   Radius =  0.650 angstrom
                   Q00  =  -0.098629

C          x =  0.981758  y =  0.583096  z =  2.944796 angstrom
           Maximum rank =  0   Radius =  0.650 angstrom
                   Q00  =   0.014888

C          x =  2.022758  y =  0.609096  z =  0.787796 angstrom
           Maximum rank =  0   Radius =  0.650 angstrom
                   Q00  =  -0.026643

C          x =  2.113758  y =  0.802096  z =  2.166796 angstrom
           Maximum rank =  0   Radius =  0.650 angstrom
                   Q00  =  -0.154622

O          x = -1.504242  y = -0.342904  z =  0.497796 angstrom
           Maximum rank =  0   Radius =  0.650 angstrom
                   Q00  =  -0.568750

H          x = -2.160242  y = -0.410904  z =  1.190796 angstrom
           Maximum rank =  0   Radius =  0.325 angstrom
                   Q00  =   0.370424

H          x = -1.075242  y = -0.000904  z =  2.990796 angstrom
           Maximum rank =  0   Radius =  0.325 angstrom
                   Q00  =   0.049651

H          x =  0.738758  y =  0.097096  z = -0.882204 angstrom
           Maximum rank =  0   Radius =  0.325 angstrom
                   Q00  =   0.110786

H          x =  1.032758  y =  0.726096  z =  4.014796 angstrom
           Maximum rank =  0   Radius =  0.325 angstrom
                   Q00  =   0.036056

H          x =  2.894758  y =  0.774096  z =  0.168796 angstrom
           Maximum rank =  0   Radius =  0.325 angstrom
                   Q00  =   0.042392

H          x =  3.169758  y =  2.002096  z =  3.536796 angstrom
           Maximum rank =  0   Radius =  0.325 angstrom
                   Q00  =   0.078663

H          x =  4.078758  y =  1.654096  z =  2.078796 angstrom
           Maximum rank =  0   Radius =  0.325 angstrom
                   Q00  =   0.087807

H          x =  3.931658  y =  0.403691  z =  3.355626 angstrom
           Maximum rank =  0   Radius =  0.325 angstrom
                   Q00  =   0.082720

Total multipoles referred to origin at
           x =   0.000000,  y =    0.000000,  z =    0.000000 angstrom
                   Q00  =  -1.000000

Finished at 16:8:24 on 27 Apr 2020

  DMA results are available in the Python driver through the
	  variable('DMA DISTRIBUTED MULTIPOLES')
  and
	  variable('DMA TOTAL MULTIPOLES')
  commands.

    Psi4 stopped on: Monday, 27 April 2020 04:08PM
    Psi4 wall time for execution: 0:02:40.11

*** Psi4 exiting successfully. Buy a developer a beer!
