                               Psi4 1.3.2 release

  ==> Input File <==

--------------------------------------------------------------------------
import numpy as np
set {scf_type pk
basis cc-pvdz
d_convergence 10
gdma_switch   0
gdma_limit    0
gdma_origin   [ 0.0,  0.0,  0.0 ]
}
molecule test {
    units Angstrom
    0 1
    --
    0 1
    C                0.457379693183069     0.486080901283004     2.746953204259114
    C                0.973379693183069     1.968080901283005     0.642953204259114
    C                1.212379693183069     1.547080901283004     1.996953204259114
    C                1.907379693183070     2.986080901283004     0.331953204259114
    C                2.242379693183069     2.309080901283004     2.444953204259114
    C                0.078379693183070     1.550080901283005    -0.348046795740886
    C                0.120379693183069     2.150080901283004    -1.589046795740886
    C                1.041379693183069     3.164080901283004    -1.867046795740886
    C                1.949379693183069     3.598080901283004    -0.912046795740886
    N                2.675379693183070     3.166080901283004     1.452953204259114
    H               -0.644620306816930     0.776080901283004    -0.141046795740886
    H               -0.560620306816931     1.822080901283004    -2.356046795740886
    H                1.048379693183070     3.600080901283004    -2.850046795740886
    H                1.032379693183070    -0.433919098716996     2.740953204259114
    H               -0.445620306816930     0.299080901283004     2.171953204259114
    H                2.679379693183070     2.245080901283004     3.431953204259115
    H                3.438379693183069     3.828080901283004     1.559953204259114
    H                2.663379693183070     4.378080901283004    -1.122046795740886
    H                0.185639693183069     0.781670901283004     3.771053204259114
    C                1.124379693183069    -2.820919098716996    -1.860046795740886
    C               -0.531620306816931    -1.990919098716996    -0.151046795740886
    C               -0.240620306816931    -2.848919098716996    -1.205046795740886
    C               -1.777620306816931    -1.938919098716996     0.439953204259114
    C               -1.262620306816931    -3.621919098716996    -1.729046795740886
    C               -2.777620306816931    -2.729919098716996    -0.057046795740886
    C               -2.535620306816931    -3.563919098716996    -1.150046795740886
    O               -4.016620306816931    -2.619919098716996     0.518953204259114
    H                0.256379693183069    -1.360919098716995     0.237953204259114
    H               -1.974620306816931    -1.277919098716995     1.270953204259114
    H                1.553379693183069    -1.836919098716996    -1.670046795740886
    H                0.985379693183070    -2.894919098716996    -2.936046795740886
    H               -1.078620306816930    -4.270919098716996    -2.574046795740886
    H               -3.336620306816930    -4.166919098716996    -1.552046795740886
    H               -4.658620306816931    -3.203919098716996     0.100953204259114
    H                1.842359693183069    -3.591369098716996    -1.542380795740886

}
e, wfn = energy('scf', return_wfn=True)
gdma(wfn)
dmavals = variable('DMA DISTRIBUTED MULTIPOLES')
charges = np.array(dmavals)
print(charges)
np.save('SSI-038TRP-068TYR-1-dimer.npy', np.array(charges))--------------------------------------------------------------------------

*** tstart() called on ds3
*** at Tue Apr 28 04:28:34 2020

   => Loading Basis Set <=

    Name: CC-PVDZ
    Role: ORBITAL
    Keyword: BASIS
    atoms 1-9, 20-26   entry C          line   138 file /theoryfs2/ds/metcalf/miniconda2/envs/tf2gpu/share/psi4/basis/cc-pvdz.gbs
    atoms 10           entry N          line   168 file /theoryfs2/ds/metcalf/miniconda2/envs/tf2gpu/share/psi4/basis/cc-pvdz.gbs
    atoms 11-19, 28-35 entry H          line    22 file /theoryfs2/ds/metcalf/miniconda2/envs/tf2gpu/share/psi4/basis/cc-pvdz.gbs
    atoms 27           entry O          line   198 file /theoryfs2/ds/metcalf/miniconda2/envs/tf2gpu/share/psi4/basis/cc-pvdz.gbs

         ---------------------------------------------------------
                                   SCF
               by Justin Turney, Rob Parrish, Andy Simmonett
                          and Daniel G. A. Smith
                              RHF Reference
                        1 Threads,    500 MiB Core
         ---------------------------------------------------------

  ==> Geometry <==

    Molecular point group: c1
    Full point group: C1

    Geometry (in Angstrom), charge = 0, multiplicity = 1:

       Center              X                  Y                   Z               Mass
    ------------   -----------------  -----------------  -----------------  -----------------
         C            0.457379693183     0.486080901283     2.746953204259    12.000000000000
         C            0.973379693183     1.968080901283     0.642953204259    12.000000000000
         C            1.212379693183     1.547080901283     1.996953204259    12.000000000000
         C            1.907379693183     2.986080901283     0.331953204259    12.000000000000
         C            2.242379693183     2.309080901283     2.444953204259    12.000000000000
         C            0.078379693183     1.550080901283    -0.348046795741    12.000000000000
         C            0.120379693183     2.150080901283    -1.589046795741    12.000000000000
         C            1.041379693183     3.164080901283    -1.867046795741    12.000000000000
         C            1.949379693183     3.598080901283    -0.912046795741    12.000000000000
         N            2.675379693183     3.166080901283     1.452953204259    14.003074004430
         H           -0.644620306817     0.776080901283    -0.141046795741     1.007825032230
         H           -0.560620306817     1.822080901283    -2.356046795741     1.007825032230
         H            1.048379693183     3.600080901283    -2.850046795741     1.007825032230
         H            1.032379693183    -0.433919098717     2.740953204259     1.007825032230
         H           -0.445620306817     0.299080901283     2.171953204259     1.007825032230
         H            2.679379693183     2.245080901283     3.431953204259     1.007825032230
         H            3.438379693183     3.828080901283     1.559953204259     1.007825032230
         H            2.663379693183     4.378080901283    -1.122046795741     1.007825032230
         H            0.185639693183     0.781670901283     3.771053204259     1.007825032230
         C            1.124379693183    -2.820919098717    -1.860046795741    12.000000000000
         C           -0.531620306817    -1.990919098717    -0.151046795741    12.000000000000
         C           -0.240620306817    -2.848919098717    -1.205046795741    12.000000000000
         C           -1.777620306817    -1.938919098717     0.439953204259    12.000000000000
         C           -1.262620306817    -3.621919098717    -1.729046795741    12.000000000000
         C           -2.777620306817    -2.729919098717    -0.057046795741    12.000000000000
         C           -2.535620306817    -3.563919098717    -1.150046795741    12.000000000000
         O           -4.016620306817    -2.619919098717     0.518953204259    15.994914619570
         H            0.256379693183    -1.360919098717     0.237953204259     1.007825032230
         H           -1.974620306817    -1.277919098717     1.270953204259     1.007825032230
         H            1.553379693183    -1.836919098717    -1.670046795741     1.007825032230
         H            0.985379693183    -2.894919098717    -2.936046795741     1.007825032230
         H           -1.078620306817    -4.270919098717    -2.574046795741     1.007825032230
         H           -3.336620306817    -4.166919098717    -1.552046795741     1.007825032230
         H           -4.658620306817    -3.203919098717     0.100953204259     1.007825032230
         H            1.842359693183    -3.591369098717    -1.542380795741     1.007825032230

  Running in c1 symmetry.

  Rotational constants: A =      0.02292  B =      0.00649  C =      0.00598 [cm^-1]
  Rotational constants: A =    687.18978  B =    194.59388  C =    179.16462 [MHz]
  Nuclear repulsion = 1182.220302571460252

  Charge       = 0
  Multiplicity = 1
  Electrons    = 128
  Nalpha       = 64
  Nbeta        = 64

  ==> Algorithm <==

  SCF Algorithm Type is PK.
  DIIS enabled.
  MOM disabled.
  Fractional occupation disabled.
  Guess Type is SAD.
  Energy threshold   = 1.00e-06
  Density threshold  = 1.00e-10
  Integral threshold = 0.00e+00

  ==> Primary Basis <==

  Basis Set: CC-PVDZ
    Blend: CC-PVDZ
    Number of shells: 159
    Number of basis function: 337
    Number of Cartesian functions: 355
    Spherical Harmonics?: true
    Max angular momentum: 2

  ==> Pre-Iterations <==

   -------------------------------------------------------
    Irrep   Nso     Nmo     Nalpha   Nbeta   Ndocc  Nsocc
   -------------------------------------------------------
     A        337     337       0       0       0       0
   -------------------------------------------------------
    Total     337     337      64      64      64       0
   -------------------------------------------------------

  ==> Integral Setup <==

  Using integral reordering PK algorithm.
  Sizing the integral batches needed.
  Building batch lookup table.
   Calculation information:
      Number of atoms:                  35
      Number of AO shells:             159
      Number of primitives:            481
      Number of atomic orbitals:       355
      Number of basis functions:       337

      Integral cutoff                 1.00e-12
      Number of threads:                 1

	Batch   1 pq = [       0,    9405] index = [             0,44231715] size =     44231715
	Batch   2 pq = [    9405,   13301] index = [      44231715,88464951] size =     44233236
	Batch   3 pq = [   13301,   16290] index = [      88464951,132690195] size =     44225244
	Batch   4 pq = [   16290,   18810] index = [     132690195,176917455] size =     44227260
	Batch   5 pq = [   18810,   21030] index = [     176917455,221140965] size =     44223510
	Batch   6 pq = [   21030,   23037] index = [     221140965,265363203] size =     44222238
	Batch   7 pq = [   23037,   24883] index = [     265363203,309594286] size =     44231083
	Batch   8 pq = [   24883,   26601] index = [     309594286,353819901] size =     44225615
	Batch   9 pq = [   26601,   28214] index = [     353819901,398029005] size =     44209104
	Batch  10 pq = [   28214,   29740] index = [     398029005,442248670] size =     44219665
	Batch  11 pq = [   29740,   31191] index = [     442248670,486454836] size =     44206166
	Batch  12 pq = [   31191,   32578] index = [     486454836,530679331] size =     44224495
	Batch  13 pq = [   32578,   33908] index = [     530679331,574893186] size =     44213855
	Batch  14 pq = [   33908,   35188] index = [     574893186,619115266] size =     44222080
	Batch  15 pq = [   35188,   36423] index = [     619115266,663335676] size =     44220410
	Batch  16 pq = [   36423,   37617] index = [     663335676,707538153] size =     44202477
	Batch  17 pq = [   37617,   38775] index = [     707538153,751769700] size =     44231547
	Batch  18 pq = [   38775,   39899] index = [     751769700,795985050] size =     44215350
	Batch  19 pq = [   39899,   40992] index = [     795985050,840192528] size =     44207478
	Batch  20 pq = [   40992,   42057] index = [     840192528,884416653] size =     44224125
	Batch  21 pq = [   42057,   43095] index = [     884416653,928611060] size =     44194407
	Batch  22 pq = [   43095,   44109] index = [     928611060,972823995] size =     44212935
	Batch  23 pq = [   44109,   45100] index = [     972823995,1017027550] size =     44203555
	Batch  24 pq = [   45100,   46070] index = [    1017027550,1061245485] size =     44217935
	Batch  25 pq = [   46070,   47020] index = [    1061245485,1105463710] size =     44218225
	Batch  26 pq = [   47020,   47951] index = [    1105463710,1149673176] size =     44209466
	Batch  27 pq = [   47951,   48864] index = [    1149673176,1193869680] size =     44196504
	Batch  28 pq = [   48864,   49761] index = [    1193869680,1238103441] size =     44233761
	Batch  29 pq = [   49761,   50642] index = [    1238103441,1282331403] size =     44227962
	Batch  30 pq = [   50642,   51508] index = [    1282331403,1326562786] size =     44231383
	Batch  31 pq = [   51508,   52359] index = [    1326562786,1370758620] size =     44195834
	Batch  32 pq = [   52359,   53197] index = [    1370758620,1414987003] size =     44228383
	Batch  33 pq = [   53197,   54022] index = [    1414987003,1459215253] size =     44228250
	Batch  34 pq = [   54022,   54834] index = [    1459215253,1503411195] size =     44195942
	Batch  35 pq = [   54834,   55634] index = [    1503411195,1547598795] size =     44187600
	Batch  36 pq = [   55634,   56423] index = [    1547598795,1591805676] size =     44206881
	Batch  37 pq = [   56423,   56953] index = [    1591805676,1621850581] size =     30044905
  Task number: 147
  Buffer size: 11059200
  Buffer per thread: 2
  We computed 84899267 shell quartets total.
  Whereas there are 80905560 unique shell quartets.
     4.94 percent of shell quartets recomputed by reordering.

  ==> DiskJK: Disk-Based J/K Matrices <==

    J tasked:                  Yes
    K tasked:                  Yes
    wK tasked:                  No
    Memory [MiB]:              375
    Schwarz Cutoff:          1E-12

    OpenMP threads:              1

  Minimum eigenvalue in the overlap matrix is 2.2237301156E-04.
  Using Symmetric Orthogonalization.

  SCF Guess: Superposition of Atomic Densities via on-the-fly atomic UHF.

  ==> Iterations <==

                        Total Energy        Delta E     RMS |[F,P]|

   @RHF iter SAD:  -744.49408859395737   -7.44494e+02   0.00000e+00
   @RHF iter   1:  -744.77800970566034   -2.83921e-01   2.21283e-03 DIIS
   @RHF iter   2:  -745.09462139316997   -3.16612e-01   9.68205e-04 DIIS
   @RHF iter   3:  -745.14832935318111   -5.37080e-02   2.62118e-04 DIIS
   @RHF iter   4:  -745.15351569444852   -5.18634e-03   1.18178e-04 DIIS
   @RHF iter   5:  -745.15442856886511   -9.12874e-04   1.73546e-05 DIIS
   @RHF iter   6:  -745.15446756330186   -3.89944e-05   8.20382e-06 DIIS
   @RHF iter   7:  -745.15447585521270   -8.29191e-06   3.13435e-06 DIIS
   @RHF iter   8:  -745.15447793424516   -2.07903e-06   1.31532e-06 DIIS
   @RHF iter   9:  -745.15447835604402   -4.21799e-07   6.02036e-07 DIIS
   @RHF iter  10:  -745.15447845674805   -1.00704e-07   2.81952e-07 DIIS
   @RHF iter  11:  -745.15447848240228   -2.56542e-08   1.08924e-07 DIIS
   @RHF iter  12:  -745.15447848576673   -3.36445e-09   4.23639e-08 DIIS
   @RHF iter  13:  -745.15447848615509   -3.88354e-10   1.38387e-08 DIIS
   @RHF iter  14:  -745.15447848620113   -4.60432e-11   5.08688e-09 DIIS
   @RHF iter  15:  -745.15447848619408    7.04858e-12   2.06930e-09 DIIS
   @RHF iter  16:  -745.15447848619510   -1.02318e-12   9.44761e-10 DIIS
   @RHF iter  17:  -745.15447848620363   -8.52651e-12   5.17760e-10 DIIS
   @RHF iter  18:  -745.15447848620113    2.50111e-12   1.97929e-10 DIIS
   @RHF iter  19:  -745.15447848619760    3.52429e-12   8.00118e-11 DIIS
  Energy and wave function converged.

  ==> Post-Iterations <==

    Orbital Energies [Eh]
    ---------------------

    Doubly Occupied:

       1A    -20.580983     2A    -15.599596     3A    -11.295197
       4A    -11.261645     5A    -11.260855     6A    -11.237335
       7A    -11.232614     8A    -11.231863     9A    -11.229105
      10A    -11.228374    11A    -11.226428    12A    -11.226097
      13A    -11.224819    14A    -11.223762    15A    -11.222843
      16A    -11.218305    17A    -11.216209    18A    -11.215629
      19A     -1.394425    20A     -1.291912    21A     -1.152710
      22A     -1.128280    23A     -1.072597    24A     -1.036981
      25A     -1.016701    26A     -0.997225    27A     -0.985454
      28A     -0.932944    29A     -0.923712    30A     -0.844813
      31A     -0.838019    32A     -0.802738    33A     -0.799798
      34A     -0.751700    35A     -0.729681    36A     -0.716988
      37A     -0.665272    38A     -0.659811    39A     -0.641773
      40A     -0.638747    41A     -0.606326    42A     -0.603896
      43A     -0.591867    44A     -0.591677    45A     -0.584034
      46A     -0.582373    47A     -0.567926    48A     -0.566203
      49A     -0.561798    50A     -0.554045    51A     -0.534269
      52A     -0.524181    53A     -0.522882    54A     -0.493368
      55A     -0.492523    56A     -0.484329    57A     -0.472956
      58A     -0.465794    59A     -0.460134    60A     -0.372431
      61A     -0.336905    62A     -0.302578    63A     -0.294310
      64A     -0.273374

    Virtual:

      65A      0.124848    66A      0.135343    67A      0.156737
      68A      0.172062    69A      0.182290    70A      0.182740
      71A      0.185739    72A      0.199817    73A      0.206953
      74A      0.220395    75A      0.222933    76A      0.229787
      77A      0.236921    78A      0.249325    79A      0.264785
      80A      0.266802    81A      0.269869    82A      0.285376
      83A      0.293336    84A      0.311491    85A      0.324658
      86A      0.338770    87A      0.372435    88A      0.378333
      89A      0.390659    90A      0.393842    91A      0.404292
      92A      0.427214    93A      0.432278    94A      0.448148
      95A      0.469043    96A      0.471460    97A      0.482747
      98A      0.494581    99A      0.502219   100A      0.507294
     101A      0.527647   102A      0.538450   103A      0.604149
     104A      0.614429   105A      0.627250   106A      0.634604
     107A      0.640943   108A      0.652130   109A      0.654023
     110A      0.668938   111A      0.674085   112A      0.683325
     113A      0.694613   114A      0.695781   115A      0.704851
     116A      0.714445   117A      0.724105   118A      0.730783
     119A      0.733881   120A      0.736674   121A      0.740009
     122A      0.746034   123A      0.747250   124A      0.756340
     125A      0.760355   126A      0.769773   127A      0.774217
     128A      0.777692   129A      0.784830   130A      0.795935
     131A      0.797091   132A      0.808726   133A      0.812289
     134A      0.817732   135A      0.828832   136A      0.847226
     137A      0.852929   138A      0.860033   139A      0.870392
     140A      0.877467   141A      0.885002   142A      0.891751
     143A      0.894674   144A      0.901070   145A      0.904029
     146A      0.905945   147A      0.915100   148A      0.925799
     149A      0.932751   150A      0.937099   151A      0.946878
     152A      0.956805   153A      0.960420   154A      0.971021
     155A      0.979583   156A      0.994874   157A      1.005824
     158A      1.012603   159A      1.031439   160A      1.037115
     161A      1.056140   162A      1.065524   163A      1.080583
     164A      1.094844   165A      1.108269   166A      1.127794
     167A      1.138322   168A      1.140160   169A      1.146268
     170A      1.152241   171A      1.155975   172A      1.164252
     173A      1.184766   174A      1.196448   175A      1.210186
     176A      1.216819   177A      1.225120   178A      1.231429
     179A      1.238489   180A      1.252421   181A      1.259322
     182A      1.273956   183A      1.280056   184A      1.286751
     185A      1.288302   186A      1.301639   187A      1.307405
     188A      1.310659   189A      1.313292   190A      1.331987
     191A      1.337129   192A      1.360188   193A      1.367865
     194A      1.370870   195A      1.376408   196A      1.383476
     197A      1.413779   198A      1.436570   199A      1.468626
     200A      1.492010   201A      1.506667   202A      1.522791
     203A      1.540567   204A      1.552100   205A      1.566592
     206A      1.578561   207A      1.608935   208A      1.617195
     209A      1.626574   210A      1.633020   211A      1.645486
     212A      1.676191   213A      1.695765   214A      1.702234
     215A      1.712240   216A      1.718013   217A      1.738919
     218A      1.746152   219A      1.753426   220A      1.759340
     221A      1.766462   222A      1.784594   223A      1.794899
     224A      1.808181   225A      1.816335   226A      1.822113
     227A      1.836037   228A      1.848771   229A      1.876858
     230A      1.882469   231A      1.883870   232A      1.893232
     233A      1.897736   234A      1.904267   235A      1.909231
     236A      1.915135   237A      1.927495   238A      1.936108
     239A      1.938899   240A      1.952635   241A      1.960556
     242A      1.965354   243A      1.969014   244A      1.971806
     245A      1.986457   246A      1.989461   247A      1.999417
     248A      2.006398   249A      2.019646   250A      2.024416
     251A      2.032795   252A      2.046215   253A      2.057652
     254A      2.062839   255A      2.072165   256A      2.079817
     257A      2.086817   258A      2.097673   259A      2.101760
     260A      2.109412   261A      2.115633   262A      2.139622
     263A      2.144942   264A      2.160612   265A      2.165994
     266A      2.171154   267A      2.178410   268A      2.188823
     269A      2.206333   270A      2.222272   271A      2.241801
     272A      2.250491   273A      2.265462   274A      2.274313
     275A      2.285303   276A      2.292856   277A      2.314567
     278A      2.327057   279A      2.330145   280A      2.338737
     281A      2.349902   282A      2.364773   283A      2.400063
     284A      2.411564   285A      2.430025   286A      2.433335
     287A      2.457068   288A      2.466983   289A      2.481701
     290A      2.502277   291A      2.510359   292A      2.536117
     293A      2.545552   294A      2.552251   295A      2.591091
     296A      2.599005   297A      2.604084   298A      2.631702
     299A      2.652512   300A      2.672771   301A      2.689380
     302A      2.739121   303A      2.765646   304A      2.781059
     305A      2.784295   306A      2.792612   307A      2.801263
     308A      2.804877   309A      2.815354   310A      2.827772
     311A      2.849581   312A      2.862459   313A      2.870028
     314A      2.894010   315A      2.907377   316A      2.933766
     317A      2.972892   318A      2.981690   319A      3.021146
     320A      3.036863   321A      3.059392   322A      3.086275
     323A      3.096207   324A      3.128321   325A      3.130712
     326A      3.219067   327A      3.249141   328A      3.299423
     329A      3.313003   330A      3.347900   331A      3.379213
     332A      3.568188   333A      3.693161   334A      3.740808
     335A      3.955381   336A      3.971679   337A      4.209307

    Final Occupation by Irrep:
              A
    DOCC [    64 ]

  @RHF Final Energy:  -745.15447848619760

   => Energetics <=

    Nuclear Repulsion Energy =           1182.2203025714602518
    One-Electron Energy =               -3359.1613275860572685
    Two-Electron Energy =                1431.7865465283994126
    Total Energy =                       -745.1544784861976041

Computation Completed

Properties will be evaluated at   0.000000,   0.000000,   0.000000 [a0]

Properties computed using the SCF density matrix

  Nuclear Dipole Moment: [e a0]
     X:     2.7719      Y:    -4.9974      Z:    -1.3686

  Electronic Dipole Moment: [e a0]
     X:    -2.2251      Y:     4.9271      Z:     1.3769

  Dipole Moment: [e a0]
     X:     0.5469      Y:    -0.0703      Z:     0.0083     Total:     0.5514

  Dipole Moment: [D]
     X:     1.3900      Y:    -0.1788      Z:     0.0212     Total:     1.4016

*** tstop() called on ds3 at Tue Apr 28 08:08:52 2020
Module time:
	user time   =     795.28 seconds =      13.25 minutes
	system time =     316.22 seconds =       5.27 minutes
	total time  =      13218 seconds =     220.30 minutes
Total time:
	user time   =     795.28 seconds =      13.25 minutes
	system time =     316.22 seconds =       5.27 minutes
	total time  =      13218 seconds =     220.30 minutes
                                     G D M A

                                 by Anthony Stone

                           version 2.2.06, 22 June 2011

               Distributed Multipoles from Gaussian wavefunctions

Starting at 8:8:52 on 28 Apr 2020

Using SCF density matrix from file ./SSI/SSI-038TRP-068TYR-1-dimer.test.27651.fchk

                         Distributed Multipole Analysis

Standard DMA

Positions and radii in angstrom
Multipole moments in atomic units, ea_0^k for rank k

C          x =  0.457380  y =  0.486081  z =  2.746953 angstrom
           Maximum rank =  0   Radius =  0.650 angstrom
                   Q00  =  -0.217852

C          x =  0.973380  y =  1.968081  z =  0.642953 angstrom
           Maximum rank =  0   Radius =  0.650 angstrom
                   Q00  =  -0.062414

C          x =  1.212380  y =  1.547081  z =  1.996953 angstrom
           Maximum rank =  0   Radius =  0.650 angstrom
                   Q00  =  -0.125679

C          x =  1.907380  y =  2.986081  z =  0.331953 angstrom
           Maximum rank =  0   Radius =  0.650 angstrom
                   Q00  =   0.253312

C          x =  2.242380  y =  2.309081  z =  2.444953 angstrom
           Maximum rank =  0   Radius =  0.650 angstrom
                   Q00  =   0.076357

C          x =  0.078380  y =  1.550081  z = -0.348047 angstrom
           Maximum rank =  0   Radius =  0.650 angstrom
                   Q00  =  -0.097825

C          x =  0.120380  y =  2.150081  z = -1.589047 angstrom
           Maximum rank =  0   Radius =  0.650 angstrom
                   Q00  =  -0.092237

C          x =  1.041380  y =  3.164081  z = -1.867047 angstrom
           Maximum rank =  0   Radius =  0.650 angstrom
                   Q00  =  -0.005156

C          x =  1.949380  y =  3.598081  z = -0.912047 angstrom
           Maximum rank =  0   Radius =  0.650 angstrom
                   Q00  =  -0.122093

N          x =  2.675380  y =  3.166081  z =  1.452953 angstrom
           Maximum rank =  0   Radius =  0.650 angstrom
                   Q00  =  -0.506560

H          x = -0.644620  y =  0.776081  z = -0.141047 angstrom
           Maximum rank =  0   Radius =  0.325 angstrom
                   Q00  =   0.069946

H          x = -0.560620  y =  1.822081  z = -2.356047 angstrom
           Maximum rank =  0   Radius =  0.325 angstrom
                   Q00  =   0.058921

H          x =  1.048380  y =  3.600081  z = -2.850047 angstrom
           Maximum rank =  0   Radius =  0.325 angstrom
                   Q00  =   0.062500

H          x =  1.032380  y = -0.433919  z =  2.740953 angstrom
           Maximum rank =  0   Radius =  0.325 angstrom
                   Q00  =   0.104143

H          x = -0.445620  y =  0.299081  z =  2.171953 angstrom
           Maximum rank =  0   Radius =  0.325 angstrom
                   Q00  =   0.100884

H          x =  2.679380  y =  2.245081  z =  3.431953 angstrom
           Maximum rank =  0   Radius =  0.325 angstrom
                   Q00  =   0.097497

H          x =  3.438380  y =  3.828081  z =  1.559953 angstrom
           Maximum rank =  0   Radius =  0.325 angstrom
                   Q00  =   0.217268

H          x =  2.663380  y =  4.378081  z = -1.122047 angstrom
           Maximum rank =  0   Radius =  0.325 angstrom
                   Q00  =   0.073291

H          x =  0.185640  y =  0.781671  z =  3.771053 angstrom
           Maximum rank =  0   Radius =  0.325 angstrom
                   Q00  =   0.111520

C          x =  1.124380  y = -2.820919  z = -1.860047 angstrom
           Maximum rank =  0   Radius =  0.650 angstrom
                   Q00  =  -0.200308

C          x = -0.531620  y = -1.990919  z = -0.151047 angstrom
           Maximum rank =  0   Radius =  0.650 angstrom
                   Q00  =   0.068917

C          x = -0.240620  y = -2.848919  z = -1.205047 angstrom
           Maximum rank =  0   Radius =  0.650 angstrom
                   Q00  =  -0.134978

C          x = -1.777620  y = -1.938919  z =  0.439953 angstrom
           Maximum rank =  0   Radius =  0.650 angstrom
                   Q00  =  -0.124400

C          x = -1.262620  y = -3.621919  z = -1.729047 angstrom
           Maximum rank =  0   Radius =  0.650 angstrom
                   Q00  =  -0.054264

C          x = -2.777620  y = -2.729919  z = -0.057047 angstrom
           Maximum rank =  0   Radius =  0.650 angstrom
                   Q00  =   0.331800

C          x = -2.535620  y = -3.563919  z = -1.150047 angstrom
           Maximum rank =  0   Radius =  0.650 angstrom
                   Q00  =  -0.184443

O          x = -4.016620  y = -2.619919  z =  0.518953 angstrom
           Maximum rank =  0   Radius =  0.650 angstrom
                   Q00  =  -0.680133

H          x =  0.256380  y = -1.360919  z =  0.237953 angstrom
           Maximum rank =  0   Radius =  0.325 angstrom
                   Q00  =   0.066519

H          x = -1.974620  y = -1.277919  z =  1.270953 angstrom
           Maximum rank =  0   Radius =  0.325 angstrom
                   Q00  =   0.072342

H          x =  1.553380  y = -1.836919  z = -1.670047 angstrom
           Maximum rank =  0   Radius =  0.325 angstrom
                   Q00  =   0.101886

H          x =  0.985380  y = -2.894919  z = -2.936047 angstrom
           Maximum rank =  0   Radius =  0.325 angstrom
                   Q00  =   0.094428

H          x = -1.078620  y = -4.270919  z = -2.574047 angstrom
           Maximum rank =  0   Radius =  0.325 angstrom
                   Q00  =   0.070905

H          x = -3.336620  y = -4.166919  z = -1.552047 angstrom
           Maximum rank =  0   Radius =  0.325 angstrom
                   Q00  =   0.072788

H          x = -4.658620  y = -3.203919  z =  0.100953 angstrom
           Maximum rank =  0   Radius =  0.325 angstrom
                   Q00  =   0.403491

H          x =  1.842360  y = -3.591369  z = -1.542381 angstrom
           Maximum rank =  0   Radius =  0.325 angstrom
                   Q00  =   0.099625

Total multipoles referred to origin at
           x =   0.000000,  y =    0.000000,  z =    0.000000 angstrom
                   Q00  =  -0.000000

Finished at 8:8:52 on 28 Apr 2020

  DMA results are available in the Python driver through the
	  variable('DMA DISTRIBUTED MULTIPOLES')
  and
	  variable('DMA TOTAL MULTIPOLES')
  commands.

    Psi4 stopped on: Tuesday, 28 April 2020 08:08AM
    Psi4 wall time for execution: 3:40:17.72

*** Psi4 exiting successfully. Buy a developer a beer!
