                               Psi4 1.3.2 release

  ==> Input File <==

--------------------------------------------------------------------------
import numpy as np
set {scf_type pk
basis cc-pvdz
d_convergence 10
gdma_switch   0
gdma_limit    0
gdma_origin   [ 0.0,  0.0,  0.0 ]
}
molecule test {
    units Angstrom
    0 1
    --
    0 1
    C                1.040640913643111     2.349771938860387     1.905490306796314
    C                2.187640913643111     2.773771938860387     0.992490306796314
    H                1.314640913643111     1.454771938860387     2.464490306796314
    H                0.818640913643111     3.148771938860387     2.612490306796314
    H                0.157640913643111     2.154771938860387     1.302490306796314
    H                3.004640913643111     3.060771938860387     1.651490306796314
    H                2.474630913643111     1.937836938860387     0.337626706796314
    H                1.902870913643111     3.639632938860387     0.376703006796314
    C               -1.847359086356889     0.360771938860387     0.625490306796314
    C               -3.123359086356889    -0.464228061139613     0.745490306796314
    C               -0.742359086356889    -0.330228061139613    -0.122509693203686
    C                0.231640913643111    -1.050228061139613     0.570490306796314
    C               -0.671359086356889    -0.252228061139613    -1.514509693203686
    C                1.274640913643111    -1.685228061139613    -0.117509693203686
    C                0.369640913643111    -0.887228061139613    -2.209509693203686
    C                1.345640913643111    -1.604228061139613    -1.508509693203686
    H               -2.070359086356889     1.305771938860387     0.125490306796314
    H               -1.500359086356889     0.594771938860387     1.633490306796314
    H               -2.887359086356889    -1.378228061139613     1.285490306796314
    H                0.190640913643111    -1.114228061139613     1.648490306796314
    H               -1.415359086356889     0.302771938860387    -2.064509693203687
    H                2.033640913643111    -2.224228061139613     0.429490306796314
    H                0.415640913643111    -0.816228061139613    -3.283509693203686
    H                2.156640913643111    -2.085228061139613    -2.039509693203686
    H               -3.510489086356889    -0.699841061139613    -0.256813993203686
    H               -3.864519086356889     0.115936938860387     1.314777306796314

}
e, wfn = energy('scf', return_wfn=True)
gdma(wfn)
dmavals = variable('DMA DISTRIBUTED MULTIPOLES')
charges = np.array(dmavals)
print(charges)
np.save('SSI-106LEU-149PHE-1-dimer.npy', np.array(charges))--------------------------------------------------------------------------

*** tstart() called on ds3
*** at Mon Apr 27 22:56:37 2020

   => Loading Basis Set <=

    Name: CC-PVDZ
    Role: ORBITAL
    Keyword: BASIS
    atoms 1-2, 9-16  entry C          line   138 file /theoryfs2/ds/metcalf/miniconda2/envs/tf2gpu/share/psi4/basis/cc-pvdz.gbs
    atoms 3-8, 17-26 entry H          line    22 file /theoryfs2/ds/metcalf/miniconda2/envs/tf2gpu/share/psi4/basis/cc-pvdz.gbs

         ---------------------------------------------------------
                                   SCF
               by Justin Turney, Rob Parrish, Andy Simmonett
                          and Daniel G. A. Smith
                              RHF Reference
                        1 Threads,    500 MiB Core
         ---------------------------------------------------------

  ==> Geometry <==

    Molecular point group: c1
    Full point group: C1

    Geometry (in Angstrom), charge = 0, multiplicity = 1:

       Center              X                  Y                   Z               Mass
    ------------   -----------------  -----------------  -----------------  -----------------
         C            1.040640913643     2.349771938860     1.905490306796    12.000000000000
         C            2.187640913643     2.773771938860     0.992490306796    12.000000000000
         H            1.314640913643     1.454771938860     2.464490306796     1.007825032230
         H            0.818640913643     3.148771938860     2.612490306796     1.007825032230
         H            0.157640913643     2.154771938860     1.302490306796     1.007825032230
         H            3.004640913643     3.060771938860     1.651490306796     1.007825032230
         H            2.474630913643     1.937836938860     0.337626706796     1.007825032230
         H            1.902870913643     3.639632938860     0.376703006796     1.007825032230
         C           -1.847359086357     0.360771938860     0.625490306796    12.000000000000
         C           -3.123359086357    -0.464228061140     0.745490306796    12.000000000000
         C           -0.742359086357    -0.330228061140    -0.122509693204    12.000000000000
         C            0.231640913643    -1.050228061140     0.570490306796    12.000000000000
         C           -0.671359086357    -0.252228061140    -1.514509693204    12.000000000000
         C            1.274640913643    -1.685228061140    -0.117509693204    12.000000000000
         C            0.369640913643    -0.887228061140    -2.209509693204    12.000000000000
         C            1.345640913643    -1.604228061140    -1.508509693204    12.000000000000
         H           -2.070359086357     1.305771938860     0.125490306796     1.007825032230
         H           -1.500359086357     0.594771938860     1.633490306796     1.007825032230
         H           -2.887359086357    -1.378228061140     1.285490306796     1.007825032230
         H            0.190640913643    -1.114228061140     1.648490306796     1.007825032230
         H           -1.415359086357     0.302771938860    -2.064509693204     1.007825032230
         H            2.033640913643    -2.224228061140     0.429490306796     1.007825032230
         H            0.415640913643    -0.816228061140    -3.283509693204     1.007825032230
         H            2.156640913643    -2.085228061140    -2.039509693204     1.007825032230
         H           -3.510489086357    -0.699841061140    -0.256813993204     1.007825032230
         H           -3.864519086357     0.115936938860     1.314777306796     1.007825032230

  Running in c1 symmetry.

  Rotational constants: A =      0.03880  B =      0.03026  C =      0.02079 [cm^-1]
  Rotational constants: A =   1163.16193  B =    907.29347  C =    623.25948 [MHz]
  Nuclear repulsion =  499.827789151693082

  Charge       = 0
  Multiplicity = 1
  Electrons    = 76
  Nalpha       = 38
  Nbeta        = 38

  ==> Algorithm <==

  SCF Algorithm Type is PK.
  DIIS enabled.
  MOM disabled.
  Fractional occupation disabled.
  Guess Type is SAD.
  Energy threshold   = 1.00e-06
  Density threshold  = 1.00e-10
  Integral threshold = 0.00e+00

  ==> Primary Basis <==

  Basis Set: CC-PVDZ
    Blend: CC-PVDZ
    Number of shells: 108
    Number of basis function: 220
    Number of Cartesian functions: 230
    Spherical Harmonics?: true
    Max angular momentum: 2

  ==> Pre-Iterations <==

   -------------------------------------------------------
    Irrep   Nso     Nmo     Nalpha   Nbeta   Ndocc  Nsocc
   -------------------------------------------------------
     A        220     220       0       0       0       0
   -------------------------------------------------------
    Total     220     220      38      38      38       0
   -------------------------------------------------------

  ==> Integral Setup <==

  Using integral reordering PK algorithm.
  Sizing the integral batches needed.
  Building batch lookup table.
   Calculation information:
      Number of atoms:                  26
      Number of AO shells:             108
      Number of primitives:            300
      Number of atomic orbitals:       230
      Number of basis functions:       220

      Integral cutoff                 1.00e-12
      Number of threads:                 1

	Batch   1 pq = [       0,    9405] index = [             0,44231715] size =     44231715
	Batch   2 pq = [    9405,   13301] index = [      44231715,88464951] size =     44233236
	Batch   3 pq = [   13301,   16290] index = [      88464951,132690195] size =     44225244
	Batch   4 pq = [   16290,   18810] index = [     132690195,176917455] size =     44227260
	Batch   5 pq = [   18810,   21030] index = [     176917455,221140965] size =     44223510
	Batch   6 pq = [   21030,   23037] index = [     221140965,265363203] size =     44222238
	Batch   7 pq = [   23037,   24310] index = [     265363203,295500205] size =     30137002
  Task number: 27
  Buffer size: 11059200
  Buffer per thread: 2
  We computed 16641597 shell quartets total.
  Whereas there are 17325441 unique shell quartets.

  ==> DiskJK: Disk-Based J/K Matrices <==

    J tasked:                  Yes
    K tasked:                  Yes
    wK tasked:                  No
    Memory [MiB]:              375
    Schwarz Cutoff:          1E-12

    OpenMP threads:              1

  Minimum eigenvalue in the overlap matrix is 3.2014264789E-04.
  Using Symmetric Orthogonalization.

  SCF Guess: Superposition of Atomic Densities via on-the-fly atomic UHF.

  ==> Iterations <==

                        Total Energy        Delta E     RMS |[F,P]|

   @RHF iter SAD:  -386.85145718185748   -3.86851e+02   0.00000e+00
   @RHF iter   1:  -387.77683943751964   -9.25382e-01   2.72047e-03 DIIS
   @RHF iter   2:  -387.99080148383996   -2.13962e-01   1.13561e-03 DIIS
   @RHF iter   3:  -388.02496497144011   -3.41635e-02   2.50281e-04 DIIS
   @RHF iter   4:  -388.02782655505348   -2.86158e-03   6.38143e-05 DIIS
   @RHF iter   5:  -388.02794789035113   -1.21335e-04   2.17055e-05 DIIS
   @RHF iter   6:  -388.02796327147507   -1.53811e-05   3.94885e-06 DIIS
   @RHF iter   7:  -388.02796395722049   -6.85745e-07   1.22596e-06 DIIS
   @RHF iter   8:  -388.02796402385724   -6.66367e-08   3.78333e-07 DIIS
   @RHF iter   9:  -388.02796403778666   -1.39294e-08   1.78427e-07 DIIS
   @RHF iter  10:  -388.02796404212006   -4.33340e-09   9.34888e-08 DIIS
   @RHF iter  11:  -388.02796404329888   -1.17882e-09   2.81024e-08 DIIS
   @RHF iter  12:  -388.02796404338500   -8.61178e-11   1.13870e-08 DIIS
   @RHF iter  13:  -388.02796404339648   -1.14824e-11   4.61045e-09 DIIS
   @RHF iter  14:  -388.02796404339779   -1.30740e-12   1.17941e-09 DIIS
   @RHF iter  15:  -388.02796404339438    3.41061e-12   3.46794e-10 DIIS
   @RHF iter  16:  -388.02796404339568   -1.30740e-12   8.34538e-11 DIIS
  Energy and wave function converged.

  ==> Post-Iterations <==

    Orbital Energies [Eh]
    ---------------------

    Doubly Occupied:

       1A    -11.238284     2A    -11.238012     3A    -11.237520
       4A    -11.233792     5A    -11.232757     6A    -11.232372
       7A    -11.227855     8A    -11.223174     9A    -11.212177
      10A    -11.210004    11A     -1.151462    12A     -1.063865
      13A     -1.013843    14A     -1.009132    15A     -0.982513
      16A     -0.860652    17A     -0.829748    18A     -0.825415
      19A     -0.784388    20A     -0.689968    21A     -0.640152
      22A     -0.636734    23A     -0.598287    24A     -0.591910
      25A     -0.591064    26A     -0.587043    27A     -0.576903
      28A     -0.541895    29A     -0.518469    30A     -0.500457
      31A     -0.494238    32A     -0.483618    33A     -0.479692
      34A     -0.477097    35A     -0.472626    36A     -0.467728
      37A     -0.330253    38A     -0.322063

    Virtual:

      39A      0.133640    40A      0.137105    41A      0.176671
      42A      0.197472    43A      0.200877    44A      0.205093
      45A      0.230957    46A      0.238236    47A      0.241431
      48A      0.257092    49A      0.261696    50A      0.268004
      51A      0.279696    52A      0.283697    53A      0.286585
      54A      0.299203    55A      0.311524    56A      0.319600
      57A      0.362164    58A      0.389462    59A      0.403147
      60A      0.418904    61A      0.449726    62A      0.464764
      63A      0.490577    64A      0.499845    65A      0.570774
      66A      0.576224    67A      0.598637    68A      0.602596
      69A      0.610295    70A      0.620341    71A      0.635651
      72A      0.646929    73A      0.677766    74A      0.688580
      75A      0.705025    76A      0.722372    77A      0.725114
      78A      0.731364    79A      0.741468    80A      0.743819
      81A      0.752177    82A      0.760442    83A      0.787813
      84A      0.805769    85A      0.841822    86A      0.849891
      87A      0.853156    88A      0.867497    89A      0.868768
      90A      0.887702    91A      0.892604    92A      0.898081
      93A      0.901056    94A      0.905971    95A      0.908550
      96A      0.921091    97A      0.925682    98A      0.929667
      99A      0.947749   100A      0.950574   101A      0.956268
     102A      0.970845   103A      0.976276   104A      0.986434
     105A      0.991148   106A      1.026386   107A      1.036906
     108A      1.094911   109A      1.114680   110A      1.127809
     111A      1.135665   112A      1.140094   113A      1.153141
     114A      1.158674   115A      1.188146   116A      1.220075
     117A      1.239145   118A      1.244989   119A      1.252276
     120A      1.282552   121A      1.291377   122A      1.298797
     123A      1.309064   124A      1.318105   125A      1.397620
     126A      1.432665   127A      1.438309   128A      1.488281
     129A      1.500237   130A      1.513083   131A      1.537173
     132A      1.579418   133A      1.614319   134A      1.622535
     135A      1.674422   136A      1.679171   137A      1.685573
     138A      1.710470   139A      1.726694   140A      1.751071
     141A      1.764945   142A      1.773892   143A      1.849275
     144A      1.851233   145A      1.860914   146A      1.865087
     147A      1.873197   148A      1.881451   149A      1.886639
     150A      1.896242   151A      1.903627   152A      1.917474
     153A      1.920343   154A      1.931200   155A      1.933249
     156A      1.946483   157A      1.949092   158A      1.958125
     159A      1.960982   160A      1.963810   161A      1.972899
     162A      1.977712   163A      1.996864   164A      2.004626
     165A      2.010197   166A      2.019157   167A      2.042630
     168A      2.057854   169A      2.074021   170A      2.092226
     171A      2.110227   172A      2.129153   173A      2.148098
     174A      2.154946   175A      2.158071   176A      2.163819
     177A      2.165878   178A      2.190856   179A      2.243505
     180A      2.258567   181A      2.272431   182A      2.296655
     183A      2.309602   184A      2.316159   185A      2.320273
     186A      2.347469   187A      2.386595   188A      2.446158
     189A      2.462404   190A      2.482561   191A      2.486099
     192A      2.491158   193A      2.508263   194A      2.547026
     195A      2.568345   196A      2.580385   197A      2.609805
     198A      2.639510   199A      2.742094   200A      2.762220
     201A      2.768854   202A      2.777343   203A      2.779564
     204A      2.800909   205A      2.820933   206A      2.840868
     207A      2.851553   208A      2.853361   209A      2.866689
     210A      2.911421   211A      2.952917   212A      2.966089
     213A      2.989179   214A      2.989942   215A      3.024213
     216A      3.048359   217A      3.183608   218A      3.192924
     219A      3.297464   220A      3.953288

    Final Occupation by Irrep:
              A
    DOCC [    38 ]

  @RHF Final Energy:  -388.02796404339568

   => Energetics <=

    Nuclear Repulsion Energy =            499.8277891516930822
    One-Electron Energy =               -1514.0971892492434563
    Two-Electron Energy =                 626.2414360541547467
    Total Energy =                       -388.0279640433956274

Computation Completed

Properties will be evaluated at   0.000000,   0.000000,   0.000000 [a0]

Properties computed using the SCF density matrix

  Nuclear Dipole Moment: [e a0]
     X:    -0.7301      Y:     8.8102      Z:     7.0668

  Electronic Dipole Moment: [e a0]
     X:     0.6282      Y:    -8.7952      Z:    -7.0326

  Dipole Moment: [e a0]
     X:    -0.1019      Y:     0.0150      Z:     0.0343     Total:     0.1086

  Dipole Moment: [D]
     X:    -0.2591      Y:     0.0381      Z:     0.0871     Total:     0.2759

*** tstop() called on ds3 at Mon Apr 27 22:59:18 2020
Module time:
	user time   =     117.26 seconds =       1.95 minutes
	system time =      42.05 seconds =       0.70 minutes
	total time  =        161 seconds =       2.68 minutes
Total time:
	user time   =     117.26 seconds =       1.95 minutes
	system time =      42.05 seconds =       0.70 minutes
	total time  =        161 seconds =       2.68 minutes
                                     G D M A

                                 by Anthony Stone

                           version 2.2.06, 22 June 2011

               Distributed Multipoles from Gaussian wavefunctions

Starting at 22:59:18 on 27 Apr 2020

Using SCF density matrix from file ./SSI/SSI-106LEU-149PHE-1-dimer.test.5906.fchk

                         Distributed Multipole Analysis

Standard DMA

Positions and radii in angstrom
Multipole moments in atomic units, ea_0^k for rank k

C          x =  1.040641  y =  2.349772  z =  1.905490 angstrom
           Maximum rank =  0   Radius =  0.650 angstrom
                   Q00  =  -0.231773

C          x =  2.187641  y =  2.773772  z =  0.992490 angstrom
           Maximum rank =  0   Radius =  0.650 angstrom
                   Q00  =  -0.236660

H          x =  1.314641  y =  1.454772  z =  2.464490 angstrom
           Maximum rank =  0   Radius =  0.325 angstrom
                   Q00  =   0.076256

H          x =  0.818641  y =  3.148772  z =  2.612490 angstrom
           Maximum rank =  0   Radius =  0.325 angstrom
                   Q00  =   0.071905

H          x =  0.157641  y =  2.154772  z =  1.302490 angstrom
           Maximum rank =  0   Radius =  0.325 angstrom
                   Q00  =   0.079729

H          x =  3.004641  y =  3.060772  z =  1.651490 angstrom
           Maximum rank =  0   Radius =  0.325 angstrom
                   Q00  =   0.071997

H          x =  2.474631  y =  1.937837  z =  0.337627 angstrom
           Maximum rank =  0   Radius =  0.325 angstrom
                   Q00  =   0.088087

H          x =  1.902871  y =  3.639633  z =  0.376703 angstrom
           Maximum rank =  0   Radius =  0.325 angstrom
                   Q00  =   0.076749

C          x = -1.847359  y =  0.360772  z =  0.625490 angstrom
           Maximum rank =  0   Radius =  0.650 angstrom
                   Q00  =  -0.044679

C          x = -3.123359  y = -0.464228  z =  0.745490 angstrom
           Maximum rank =  0   Radius =  0.650 angstrom
                   Q00  =  -0.215747

C          x = -0.742359  y = -0.330228  z = -0.122510 angstrom
           Maximum rank =  0   Radius =  0.650 angstrom
                   Q00  =  -0.108257

C          x =  0.231641  y = -1.050228  z =  0.570490 angstrom
           Maximum rank =  0   Radius =  0.650 angstrom
                   Q00  =  -0.011778

C          x = -0.671359  y = -0.252228  z = -1.514510 angstrom
           Maximum rank =  0   Radius =  0.650 angstrom
                   Q00  =  -0.065042

C          x =  1.274641  y = -1.685228  z = -0.117510 angstrom
           Maximum rank =  0   Radius =  0.650 angstrom
                   Q00  =  -0.081814

C          x =  0.369641  y = -0.887228  z = -2.209510 angstrom
           Maximum rank =  0   Radius =  0.650 angstrom
                   Q00  =  -0.079445

C          x =  1.345641  y = -1.604228  z = -1.508510 angstrom
           Maximum rank =  0   Radius =  0.650 angstrom
                   Q00  =  -0.080371

H          x = -2.070359  y =  1.305772  z =  0.125490 angstrom
           Maximum rank =  0   Radius =  0.325 angstrom
                   Q00  =   0.063747

H          x = -1.500359  y =  0.594772  z =  1.633490 angstrom
           Maximum rank =  0   Radius =  0.325 angstrom
                   Q00  =   0.064875

H          x = -2.887359  y = -1.378228  z =  1.285490 angstrom
           Maximum rank =  0   Radius =  0.325 angstrom
                   Q00  =   0.084819

H          x =  0.190641  y = -1.114228  z =  1.648490 angstrom
           Maximum rank =  0   Radius =  0.325 angstrom
                   Q00  =   0.058171

H          x = -1.415359  y =  0.302772  z = -2.064510 angstrom
           Maximum rank =  0   Radius =  0.325 angstrom
                   Q00  =   0.057664

H          x =  2.033641  y = -2.224228  z =  0.429490 angstrom
           Maximum rank =  0   Radius =  0.325 angstrom
                   Q00  =   0.066287

H          x =  0.415641  y = -0.816228  z = -3.283510 angstrom
           Maximum rank =  0   Radius =  0.325 angstrom
                   Q00  =   0.066821

H          x =  2.156641  y = -2.085228  z = -2.039510 angstrom
           Maximum rank =  0   Radius =  0.325 angstrom
                   Q00  =   0.063736

H          x = -3.510489  y = -0.699841  z = -0.256814 angstrom
           Maximum rank =  0   Radius =  0.325 angstrom
                   Q00  =   0.082916

H          x = -3.864519  y =  0.115937  z =  1.314777 angstrom
           Maximum rank =  0   Radius =  0.325 angstrom
                   Q00  =   0.081806

Total multipoles referred to origin at
           x =   0.000000,  y =    0.000000,  z =    0.000000 angstrom
                   Q00  =  -0.000000

Finished at 22:59:18 on 27 Apr 2020

  DMA results are available in the Python driver through the
	  variable('DMA DISTRIBUTED MULTIPOLES')
  and
	  variable('DMA TOTAL MULTIPOLES')
  commands.

    Psi4 stopped on: Monday, 27 April 2020 10:59PM
    Psi4 wall time for execution: 0:02:41.86

*** Psi4 exiting successfully. Buy a developer a beer!
