                               Psi4 1.3.2 release

  ==> Input File <==

--------------------------------------------------------------------------
import numpy as np
set {scf_type pk
basis cc-pvdz
d_convergence 10
gdma_switch   0
gdma_limit    0
gdma_origin   [ 0.0,  0.0,  0.0 ]
}
molecule test {
    units Angstrom
    0 1
    --
    0 1
    C               -1.837485810733286    -1.578710036254785     0.079375790840633
    C               -0.661485810733286    -1.911710036254785     1.025375790840633
    C               -1.461485810733286    -1.903710036254785    -1.365624209159367
    C               -3.086485810733286    -2.374710036254785     0.487375790840633
    H               -2.055485810733286    -0.512710036254785     0.133375790840633
    H                0.250514189266714    -1.471710036254785     0.630375790840633
    H               -1.364485810733286    -2.977710036254785    -1.504624209159367
    H               -2.220485810733286    -1.525710036254785    -2.049624209159367
    H               -0.512485810733286    -1.431710036254785    -1.618624209159367
    H               -2.952485810733286    -3.431710036254785     0.251375790840633
    H               -3.222485810733286    -2.302710036254785     1.556375790840633
    H               -0.549985810733286    -2.999550036254785     1.144405790840633
    H               -0.820535810733286    -1.481560036254785     2.025215790840633
    H               -4.008985810733286    -2.038530036254786    -0.008574209159367
    C               -0.463485810733286     1.829289963745215    -0.776624209159367
    C               -0.210485810733286     3.336289963745215    -0.838624209159367
    C                0.704514189266714     1.077289963745215    -0.215624209159367
    C                1.637514189266714     0.311289963745215    -0.836624209159367
    C                2.181514189266714     0.459289963745215     1.290375790840633
    N                1.058514189266714     1.151289963745215     1.117375790840633
    N                2.551514189266714    -0.059710036254785     0.125375790840633
    H               -1.312485810733286     1.634289963745215    -0.125624209159367
    H               -0.707485810733286     1.443289963745215    -1.767624209159367
    H                0.361514189266714     3.623289963745215     0.049375790840633
    H                1.663514189266714     0.073289963745215    -1.889624209159367
    H                2.735514189266714     0.362289963745215     2.215375790840633
    H                3.387514189266714    -0.613710036254785    -0.025624209159367
    H               -1.155885810733286     3.898229963745215    -0.859804209159367
    H                0.396274189266714     3.580149963745215    -1.723144209159367

}
e, wfn = energy('scf', return_wfn=True)
gdma(wfn)
dmavals = variable('DMA DISTRIBUTED MULTIPOLES')
charges = np.array(dmavals)
print(charges)
np.save('SSI-017ILE-055HIE-1-dimer.npy', np.array(charges))--------------------------------------------------------------------------

*** tstart() called on ds3
*** at Tue Apr 28 08:56:37 2020

   => Loading Basis Set <=

    Name: CC-PVDZ
    Role: ORBITAL
    Keyword: BASIS
    atoms 1-4, 15-19  entry C          line   138 file /theoryfs2/ds/metcalf/miniconda2/envs/tf2gpu/share/psi4/basis/cc-pvdz.gbs
    atoms 5-14, 22-29 entry H          line    22 file /theoryfs2/ds/metcalf/miniconda2/envs/tf2gpu/share/psi4/basis/cc-pvdz.gbs
    atoms 20-21       entry N          line   168 file /theoryfs2/ds/metcalf/miniconda2/envs/tf2gpu/share/psi4/basis/cc-pvdz.gbs

         ---------------------------------------------------------
                                   SCF
               by Justin Turney, Rob Parrish, Andy Simmonett
                          and Daniel G. A. Smith
                              RHF Reference
                        1 Threads,    500 MiB Core
         ---------------------------------------------------------

  ==> Geometry <==

    Molecular point group: c1
    Full point group: C1

    Geometry (in Angstrom), charge = 0, multiplicity = 1:

       Center              X                  Y                   Z               Mass
    ------------   -----------------  -----------------  -----------------  -----------------
         C           -1.837485810733    -1.578710036255     0.079375790841    12.000000000000
         C           -0.661485810733    -1.911710036255     1.025375790841    12.000000000000
         C           -1.461485810733    -1.903710036255    -1.365624209159    12.000000000000
         C           -3.086485810733    -2.374710036255     0.487375790841    12.000000000000
         H           -2.055485810733    -0.512710036255     0.133375790841     1.007825032230
         H            0.250514189267    -1.471710036255     0.630375790841     1.007825032230
         H           -1.364485810733    -2.977710036255    -1.504624209159     1.007825032230
         H           -2.220485810733    -1.525710036255    -2.049624209159     1.007825032230
         H           -0.512485810733    -1.431710036255    -1.618624209159     1.007825032230
         H           -2.952485810733    -3.431710036255     0.251375790841     1.007825032230
         H           -3.222485810733    -2.302710036255     1.556375790841     1.007825032230
         H           -0.549985810733    -2.999550036255     1.144405790841     1.007825032230
         H           -0.820535810733    -1.481560036255     2.025215790841     1.007825032230
         H           -4.008985810733    -2.038530036255    -0.008574209159     1.007825032230
         C           -0.463485810733     1.829289963745    -0.776624209159    12.000000000000
         C           -0.210485810733     3.336289963745    -0.838624209159    12.000000000000
         C            0.704514189267     1.077289963745    -0.215624209159    12.000000000000
         C            1.637514189267     0.311289963745    -0.836624209159    12.000000000000
         C            2.181514189267     0.459289963745     1.290375790841    12.000000000000
         N            1.058514189267     1.151289963745     1.117375790841    14.003074004430
         N            2.551514189267    -0.059710036255     0.125375790841    14.003074004430
         H           -1.312485810733     1.634289963745    -0.125624209159     1.007825032230
         H           -0.707485810733     1.443289963745    -1.767624209159     1.007825032230
         H            0.361514189267     3.623289963745     0.049375790841     1.007825032230
         H            1.663514189267     0.073289963745    -1.889624209159     1.007825032230
         H            2.735514189267     0.362289963745     2.215375790841     1.007825032230
         H            3.387514189267    -0.613710036255    -0.025624209159     1.007825032230
         H           -1.155885810733     3.898229963745    -0.859804209159     1.007825032230
         H            0.396274189267     3.580149963745    -1.723144209159     1.007825032230

  Running in c1 symmetry.

  Rotational constants: A =      0.04397  B =      0.02089  C =      0.01711 [cm^-1]
  Rotational constants: A =   1318.26952  B =    626.29180  C =    512.80771 [MHz]
  Nuclear repulsion =  631.199353508936383

  Charge       = 0
  Multiplicity = 1
  Electrons    = 86
  Nalpha       = 43
  Nbeta        = 43

  ==> Algorithm <==

  SCF Algorithm Type is PK.
  DIIS enabled.
  MOM disabled.
  Fractional occupation disabled.
  Guess Type is SAD.
  Energy threshold   = 1.00e-06
  Density threshold  = 1.00e-10
  Integral threshold = 0.00e+00

  ==> Primary Basis <==

  Basis Set: CC-PVDZ
    Blend: CC-PVDZ
    Number of shells: 120
    Number of basis function: 244
    Number of Cartesian functions: 255
    Spherical Harmonics?: true
    Max angular momentum: 2

  ==> Pre-Iterations <==

   -------------------------------------------------------
    Irrep   Nso     Nmo     Nalpha   Nbeta   Ndocc  Nsocc
   -------------------------------------------------------
     A        244     244       0       0       0       0
   -------------------------------------------------------
    Total     244     244      43      43      43       0
   -------------------------------------------------------

  ==> Integral Setup <==

  Using integral reordering PK algorithm.
  Sizing the integral batches needed.
  Building batch lookup table.
   Calculation information:
      Number of atoms:                  29
      Number of AO shells:             120
      Number of primitives:            332
      Number of atomic orbitals:       255
      Number of basis functions:       244

      Integral cutoff                 1.00e-12
      Number of threads:                 1

	Batch   1 pq = [       0,    9405] index = [             0,44231715] size =     44231715
	Batch   2 pq = [    9405,   13301] index = [      44231715,88464951] size =     44233236
	Batch   3 pq = [   13301,   16290] index = [      88464951,132690195] size =     44225244
	Batch   4 pq = [   16290,   18810] index = [     132690195,176917455] size =     44227260
	Batch   5 pq = [   18810,   21030] index = [     176917455,221140965] size =     44223510
	Batch   6 pq = [   21030,   23037] index = [     221140965,265363203] size =     44222238
	Batch   7 pq = [   23037,   24883] index = [     265363203,309594286] size =     44231083
	Batch   8 pq = [   24883,   26601] index = [     309594286,353819901] size =     44225615
	Batch   9 pq = [   26601,   28214] index = [     353819901,398029005] size =     44209104
	Batch  10 pq = [   28214,   29740] index = [     398029005,442248670] size =     44219665
	Batch  11 pq = [   29740,   29890] index = [     442248670,446720995] size =      4472325
  Task number: 41
  Buffer size: 11059200
  Buffer per thread: 2
  We computed 28417749 shell quartets total.
  Whereas there are 26357430 unique shell quartets.
     7.82 percent of shell quartets recomputed by reordering.

  ==> DiskJK: Disk-Based J/K Matrices <==

    J tasked:                  Yes
    K tasked:                  Yes
    wK tasked:                  No
    Memory [MiB]:              375
    Schwarz Cutoff:          1E-12

    OpenMP threads:              1

  Minimum eigenvalue in the overlap matrix is 1.0286785339E-03.
  Using Symmetric Orthogonalization.

  SCF Guess: Superposition of Atomic Densities via on-the-fly atomic UHF.

  ==> Iterations <==

                        Total Energy        Delta E     RMS |[F,P]|

   @RHF iter SAD:  -459.30261298073572   -4.59303e+02   0.00000e+00
   @RHF iter   1:  -459.89722991646647   -5.94617e-01   2.81959e-03 DIIS
   @RHF iter   2:  -460.14739530697449   -2.50165e-01   1.42434e-03 DIIS
   @RHF iter   3:  -460.20612630775008   -5.87310e-02   3.70614e-04 DIIS
   @RHF iter   4:  -460.21116573480788   -5.03943e-03   1.56996e-04 DIIS
   @RHF iter   5:  -460.21197807669074   -8.12342e-04   2.20411e-05 DIIS
   @RHF iter   6:  -460.21200362135096   -2.55447e-05   8.83866e-06 DIIS
   @RHF iter   7:  -460.21200749280177   -3.87145e-06   2.73336e-06 DIIS
   @RHF iter   8:  -460.21200814569897   -6.52897e-07   1.19532e-06 DIIS
   @RHF iter   9:  -460.21200829539902   -1.49700e-07   4.60882e-07 DIIS
   @RHF iter  10:  -460.21200831658683   -2.11878e-08   1.48420e-07 DIIS
   @RHF iter  11:  -460.21200831923903   -2.65220e-09   5.58436e-08 DIIS
   @RHF iter  12:  -460.21200831953706   -2.98030e-10   2.29895e-08 DIIS
   @RHF iter  13:  -460.21200831958174   -4.46789e-11   7.76617e-09 DIIS
   @RHF iter  14:  -460.21200831958811   -6.36646e-12   2.78146e-09 DIIS
   @RHF iter  15:  -460.21200831958890   -7.95808e-13   9.28576e-10 DIIS
   @RHF iter  16:  -460.21200831958902   -1.13687e-13   3.72290e-10 DIIS
   @RHF iter  17:  -460.21200831958981   -7.95808e-13   1.37415e-10 DIIS
   @RHF iter  18:  -460.21200831959180   -1.98952e-12   4.21923e-11 DIIS
  Energy and wave function converged.

  ==> Post-Iterations <==

    Orbital Energies [Eh]
    ---------------------

    Doubly Occupied:

       1A    -15.624790     2A    -15.532074     3A    -11.297322
       4A    -11.252960     5A    -11.241078     6A    -11.224156
       7A    -11.215266     8A    -11.214047     9A    -11.205649
      10A    -11.204094    11A    -11.201541    12A     -1.345150
      13A     -1.157775    14A     -1.068858    15A     -1.051850
      16A     -0.986763    17A     -0.918554    18A     -0.912223
      19A     -0.858798    20A     -0.821796    21A     -0.762667
      22A     -0.756770    23A     -0.737807    24A     -0.625604
      25A     -0.625152    26A     -0.606666    27A     -0.601753
      28A     -0.585955    29A     -0.577527    30A     -0.572530
      31A     -0.561258    32A     -0.526931    33A     -0.519792
      34A     -0.513685    35A     -0.496713    36A     -0.489914
      37A     -0.481088    38A     -0.450892    39A     -0.446271
      40A     -0.445030    41A     -0.413545    42A     -0.380148
      43A     -0.312947

    Virtual:

      44A      0.169017    45A      0.177773    46A      0.186611
      47A      0.202691    48A      0.210911    49A      0.223596
      50A      0.226691    51A      0.239212    52A      0.242805
      53A      0.249172    54A      0.262301    55A      0.272094
      56A      0.278214    57A      0.290730    58A      0.297125
      59A      0.299011    60A      0.314409    61A      0.320484
      62A      0.348296    63A      0.354886    64A      0.380053
      65A      0.391574    66A      0.399857    67A      0.404521
      68A      0.421863    69A      0.428774    70A      0.442194
      71A      0.479836    72A      0.507158    73A      0.562288
      74A      0.589895    75A      0.593857    76A      0.612242
      77A      0.616275    78A      0.622400    79A      0.642901
      80A      0.648144    81A      0.663694    82A      0.687130
      83A      0.701393    84A      0.731121    85A      0.750685
      86A      0.774922    87A      0.779250    88A      0.787826
      89A      0.806989    90A      0.823740    91A      0.832931
      92A      0.840665    93A      0.847763    94A      0.861412
      95A      0.873174    96A      0.880433    97A      0.887766
      98A      0.896009    99A      0.897388   100A      0.910557
     101A      0.914698   102A      0.919674   103A      0.921619
     104A      0.927570   105A      0.931366   106A      0.941094
     107A      0.948754   108A      0.955622   109A      0.957641
     110A      0.972072   111A      0.977019   112A      0.979856
     113A      0.996103   114A      1.004194   115A      1.033488
     116A      1.036913   117A      1.055337   118A      1.074797
     119A      1.092509   120A      1.097282   121A      1.121280
     122A      1.135109   123A      1.150797   124A      1.170748
     125A      1.176275   126A      1.199142   127A      1.235337
     128A      1.262681   129A      1.302998   130A      1.319321
     131A      1.331374   132A      1.350032   133A      1.380124
     134A      1.399638   135A      1.406530   136A      1.426888
     137A      1.435526   138A      1.447731   139A      1.465248
     140A      1.504310   141A      1.540176   142A      1.555592
     143A      1.563734   144A      1.593520   145A      1.627057
     146A      1.660324   147A      1.671950   148A      1.678925
     149A      1.688637   150A      1.700538   151A      1.708537
     152A      1.719786   153A      1.730729   154A      1.751112
     155A      1.768571   156A      1.774941   157A      1.797539
     158A      1.827968   159A      1.849903   160A      1.856591
     161A      1.872036   162A      1.872335   163A      1.886361
     164A      1.912189   165A      1.922272   166A      1.928784
     167A      1.947335   168A      1.954735   169A      1.961918
     170A      1.963239   171A      1.968829   172A      1.977024
     173A      1.986020   174A      1.990758   175A      2.004633
     176A      2.011923   177A      2.022642   178A      2.025118
     179A      2.031226   180A      2.044656   181A      2.062948
     182A      2.080104   183A      2.083994   184A      2.094011
     185A      2.109550   186A      2.114851   187A      2.125086
     188A      2.145636   189A      2.160018   190A      2.188693
     191A      2.204299   192A      2.252266   193A      2.259881
     194A      2.265851   195A      2.278889   196A      2.286828
     197A      2.312306   198A      2.333688   199A      2.341188
     200A      2.364879   201A      2.370818   202A      2.385923
     203A      2.406256   204A      2.407025   205A      2.443405
     206A      2.457278   207A      2.486100   208A      2.508057
     209A      2.527786   210A      2.567231   211A      2.587500
     212A      2.589450   213A      2.604288   214A      2.613494
     215A      2.657307   216A      2.685997   217A      2.712266
     218A      2.740201   219A      2.742704   220A      2.765331
     221A      2.777079   222A      2.779273   223A      2.793432
     224A      2.804041   225A      2.812834   226A      2.831359
     227A      2.841933   228A      2.850646   229A      2.864142
     230A      2.877191   231A      2.887741   232A      2.901660
     233A      2.919208   234A      2.939295   235A      2.965297
     236A      3.019039   237A      3.040852   238A      3.055998
     239A      3.086594   240A      3.136831   241A      3.173244
     242A      3.258518   243A      3.475057   244A      3.803582

    Final Occupation by Irrep:
              A
    DOCC [    43 ]

  @RHF Final Energy:  -460.21200831959180

   => Energetics <=

    Nuclear Repulsion Energy =            631.1993535089363832
    One-Electron Energy =               -1875.1719413718578835
    Two-Electron Energy =                 783.7605795433296407
    Total Energy =                       -460.2120083195918596

Computation Completed

Properties will be evaluated at   0.000000,   0.000000,   0.000000 [a0]

Properties computed using the SCF density matrix

  Nuclear Dipole Moment: [e a0]
     X:   -11.3430      Y:    -5.7897      Z:    -3.3476

  Electronic Dipole Moment: [e a0]
     X:    12.4753      Y:     5.2320      Z:     2.8465

  Dipole Moment: [e a0]
     X:     1.1322      Y:    -0.5577      Z:    -0.5011     Total:     1.3580

  Dipole Moment: [D]
     X:     2.8779      Y:    -1.4175      Z:    -1.2736     Total:     3.4516

*** tstop() called on ds3 at Tue Apr 28 09:01:57 2020
Module time:
	user time   =     202.47 seconds =       3.37 minutes
	system time =      78.15 seconds =       1.30 minutes
	total time  =        320 seconds =       5.33 minutes
Total time:
	user time   =     202.47 seconds =       3.37 minutes
	system time =      78.15 seconds =       1.30 minutes
	total time  =        320 seconds =       5.33 minutes
                                     G D M A

                                 by Anthony Stone

                           version 2.2.06, 22 June 2011

               Distributed Multipoles from Gaussian wavefunctions

Starting at 9:1:57 on 28 Apr 2020

Using SCF density matrix from file ./SSI/SSI-017ILE-055HIE-1-dimer.test.13130.fchk

                         Distributed Multipole Analysis

Standard DMA

Positions and radii in angstrom
Multipole moments in atomic units, ea_0^k for rank k

C          x = -1.837486  y = -1.578710  z =  0.079376 angstrom
           Maximum rank =  0   Radius =  0.650 angstrom
                   Q00  =   0.021766

C          x = -0.661486  y = -1.911710  z =  1.025376 angstrom
           Maximum rank =  0   Radius =  0.650 angstrom
                   Q00  =  -0.255988

C          x = -1.461486  y = -1.903710  z = -1.365624 angstrom
           Maximum rank =  0   Radius =  0.650 angstrom
                   Q00  =  -0.246949

C          x = -3.086486  y = -2.374710  z =  0.487376 angstrom
           Maximum rank =  0   Radius =  0.650 angstrom
                   Q00  =  -0.251614

H          x = -2.055486  y = -0.512710  z =  0.133376 angstrom
           Maximum rank =  0   Radius =  0.325 angstrom
                   Q00  =   0.023017

H          x =  0.250514  y = -1.471710  z =  0.630376 angstrom
           Maximum rank =  0   Radius =  0.325 angstrom
                   Q00  =   0.087492

H          x = -1.364486  y = -2.977710  z = -1.504624 angstrom
           Maximum rank =  0   Radius =  0.325 angstrom
                   Q00  =   0.072410

H          x = -2.220486  y = -1.525710  z = -2.049624 angstrom
           Maximum rank =  0   Radius =  0.325 angstrom
                   Q00  =   0.075136

H          x = -0.512486  y = -1.431710  z = -1.618624 angstrom
           Maximum rank =  0   Radius =  0.325 angstrom
                   Q00  =   0.079030

H          x = -2.952486  y = -3.431710  z =  0.251376 angstrom
           Maximum rank =  0   Radius =  0.325 angstrom
                   Q00  =   0.072312

H          x = -3.222486  y = -2.302710  z =  1.556376 angstrom
           Maximum rank =  0   Radius =  0.325 angstrom
                   Q00  =   0.080322

H          x = -0.549986  y = -2.999550  z =  1.144406 angstrom
           Maximum rank =  0   Radius =  0.325 angstrom
                   Q00  =   0.063544

H          x = -0.820536  y = -1.481560  z =  2.025216 angstrom
           Maximum rank =  0   Radius =  0.325 angstrom
                   Q00  =   0.085901

H          x = -4.008986  y = -2.038530  z = -0.008574 angstrom
           Maximum rank =  0   Radius =  0.325 angstrom
                   Q00  =   0.079350

C          x = -0.463486  y =  1.829290  z = -0.776624 angstrom
           Maximum rank =  0   Radius =  0.650 angstrom
                   Q00  =  -0.031683

C          x = -0.210486  y =  3.336290  z = -0.838624 angstrom
           Maximum rank =  0   Radius =  0.650 angstrom
                   Q00  =  -0.231381

C          x =  0.704514  y =  1.077290  z = -0.215624 angstrom
           Maximum rank =  0   Radius =  0.650 angstrom
                   Q00  =   0.229013

C          x =  1.637514  y =  0.311290  z = -0.836624 angstrom
           Maximum rank =  0   Radius =  0.650 angstrom
                   Q00  =  -0.001917

C          x =  2.181514  y =  0.459290  z =  1.290376 angstrom
           Maximum rank =  0   Radius =  0.650 angstrom
                   Q00  =   0.464158

N          x =  1.058514  y =  1.151290  z =  1.117376 angstrom
           Maximum rank =  0   Radius =  0.650 angstrom
                   Q00  =  -0.781715

N          x =  2.551514  y = -0.059710  z =  0.125376 angstrom
           Maximum rank =  0   Radius =  0.650 angstrom
                   Q00  =  -0.480076

H          x = -1.312486  y =  1.634290  z = -0.125624 angstrom
           Maximum rank =  0   Radius =  0.325 angstrom
                   Q00  =   0.085392

H          x = -0.707486  y =  1.443290  z = -1.767624 angstrom
           Maximum rank =  0   Radius =  0.325 angstrom
                   Q00  =   0.060918

H          x =  0.361514  y =  3.623290  z =  0.049376 angstrom
           Maximum rank =  0   Radius =  0.325 angstrom
                   Q00  =   0.096284

H          x =  1.663514  y =  0.073290  z = -1.889624 angstrom
           Maximum rank =  0   Radius =  0.325 angstrom
                   Q00  =   0.103299

H          x =  2.735514  y =  0.362290  z =  2.215376 angstrom
           Maximum rank =  0   Radius =  0.325 angstrom
                   Q00  =   0.124233

H          x =  3.387514  y = -0.613710  z = -0.025624 angstrom
           Maximum rank =  0   Radius =  0.325 angstrom
                   Q00  =   0.223160

H          x = -1.155886  y =  3.898230  z = -0.859804 angstrom
           Maximum rank =  0   Radius =  0.325 angstrom
                   Q00  =   0.082253

H          x =  0.396274  y =  3.580150  z = -1.723144 angstrom
           Maximum rank =  0   Radius =  0.325 angstrom
                   Q00  =   0.072333

Total multipoles referred to origin at
           x =   0.000000,  y =    0.000000,  z =    0.000000 angstrom
                   Q00  =  -0.000000

Finished at 9:1:57 on 28 Apr 2020

  DMA results are available in the Python driver through the
	  variable('DMA DISTRIBUTED MULTIPOLES')
  and
	  variable('DMA TOTAL MULTIPOLES')
  commands.

    Psi4 stopped on: Tuesday, 28 April 2020 09:01AM
    Psi4 wall time for execution: 0:05:20.60

*** Psi4 exiting successfully. Buy a developer a beer!
