                               Psi4 1.3.2 release

  ==> Input File <==

--------------------------------------------------------------------------
import numpy as np
set {scf_type pk
basis cc-pvdz
d_convergence 10
gdma_switch   0
gdma_limit    0
gdma_origin   [ 0.0,  0.0,  0.0 ]
}
molecule test {
    units Angstrom
    0 1
    --
    0 1
    C               -0.167866691914312     1.386005253948234     1.698152060440970
    C               -0.648866691914311     2.482005253948234     2.645152060440970
    H                0.923133308085688     1.356005253948234     1.675152060440970
    H               -0.552866691914311     0.423005253948234     2.038152060440970
    H               -0.537866691914311     1.580005253948234     0.689152060440970
    H               -0.327866691914312     2.213005253948234     3.646152060440970
    H               -0.211176691914312     3.445505253948234     2.345002060440970
    H               -1.746776691914311     2.548153253948234     2.630052060440970
    C               -0.744866691914312    -1.848994746051766    -0.427847939559030
    C                0.216133308085688    -0.942994746051766    -1.175847939559030
    O               -0.023866691914312    -0.570994746051766    -2.320847939559031
    N                1.323133308085688    -0.592994746051766    -0.537847939559030
    H               -1.722866691914312    -1.800994746051766    -0.910847939559030
    H               -0.863866691914312    -1.491994746051766     0.595152060440970
    H                1.938133308085688     0.057005253948234    -1.002847939559030
    H                1.520133308085689    -0.945994746051766     0.386152060440970
    H               -0.403166691914312    -2.894320746051766    -0.404727939559030

}
e, wfn = energy('scf', return_wfn=True)
gdma(wfn)
dmavals = variable('DMA DISTRIBUTED MULTIPOLES')
charges = np.array(dmavals)
print(charges)
np.save('SSI-058LEU-094GLN-1-dimer.npy', np.array(charges))--------------------------------------------------------------------------

*** tstart() called on ds3
*** at Sun Apr 26 18:09:30 2020

   => Loading Basis Set <=

    Name: CC-PVDZ
    Role: ORBITAL
    Keyword: BASIS
    atoms 1-2, 9-10  entry C          line   138 file /theoryfs2/ds/metcalf/miniconda2/envs/tf2gpu/share/psi4/basis/cc-pvdz.gbs
    atoms 3-8, 13-17 entry H          line    22 file /theoryfs2/ds/metcalf/miniconda2/envs/tf2gpu/share/psi4/basis/cc-pvdz.gbs
    atoms 11         entry O          line   198 file /theoryfs2/ds/metcalf/miniconda2/envs/tf2gpu/share/psi4/basis/cc-pvdz.gbs
    atoms 12         entry N          line   168 file /theoryfs2/ds/metcalf/miniconda2/envs/tf2gpu/share/psi4/basis/cc-pvdz.gbs

         ---------------------------------------------------------
                                   SCF
               by Justin Turney, Rob Parrish, Andy Simmonett
                          and Daniel G. A. Smith
                              RHF Reference
                        1 Threads,    500 MiB Core
         ---------------------------------------------------------

  ==> Geometry <==

    Molecular point group: c1
    Full point group: C1

    Geometry (in Angstrom), charge = 0, multiplicity = 1:

       Center              X                  Y                   Z               Mass
    ------------   -----------------  -----------------  -----------------  -----------------
         C           -0.167866691914     1.386005253948     1.698152060441    12.000000000000
         C           -0.648866691914     2.482005253948     2.645152060441    12.000000000000
         H            0.923133308086     1.356005253948     1.675152060441     1.007825032230
         H           -0.552866691914     0.423005253948     2.038152060441     1.007825032230
         H           -0.537866691914     1.580005253948     0.689152060441     1.007825032230
         H           -0.327866691914     2.213005253948     3.646152060441     1.007825032230
         H           -0.211176691914     3.445505253948     2.345002060441     1.007825032230
         H           -1.746776691914     2.548153253948     2.630052060441     1.007825032230
         C           -0.744866691914    -1.848994746052    -0.427847939559    12.000000000000
         C            0.216133308086    -0.942994746052    -1.175847939559    12.000000000000
         O           -0.023866691914    -0.570994746052    -2.320847939559    15.994914619570
         N            1.323133308086    -0.592994746052    -0.537847939559    14.003074004430
         H           -1.722866691914    -1.800994746052    -0.910847939559     1.007825032230
         H           -0.863866691914    -1.491994746052     0.595152060441     1.007825032230
         H            1.938133308086     0.057005253948    -1.002847939559     1.007825032230
         H            1.520133308086    -0.945994746052     0.386152060441     1.007825032230
         H           -0.403166691914    -2.894320746052    -0.404727939559     1.007825032230

  Running in c1 symmetry.

  Rotational constants: A =      0.18193  B =      0.03655  C =      0.03511 [cm^-1]
  Rotational constants: A =   5454.24247  B =   1095.81303  C =   1052.56877 [MHz]
  Nuclear repulsion =  233.522362583442856

  Charge       = 0
  Multiplicity = 1
  Electrons    = 50
  Nalpha       = 25
  Nbeta        = 25

  ==> Algorithm <==

  SCF Algorithm Type is PK.
  DIIS enabled.
  MOM disabled.
  Fractional occupation disabled.
  Guess Type is SAD.
  Energy threshold   = 1.00e-06
  Density threshold  = 1.00e-10
  Integral threshold = 0.00e+00

  ==> Primary Basis <==

  Basis Set: CC-PVDZ
    Blend: CC-PVDZ
    Number of shells: 69
    Number of basis function: 139
    Number of Cartesian functions: 145
    Spherical Harmonics?: true
    Max angular momentum: 2

  ==> Pre-Iterations <==

   -------------------------------------------------------
    Irrep   Nso     Nmo     Nalpha   Nbeta   Ndocc  Nsocc
   -------------------------------------------------------
     A        139     139       0       0       0       0
   -------------------------------------------------------
    Total     139     139      25      25      25       0
   -------------------------------------------------------

  ==> Integral Setup <==

  Using integral reordering PK algorithm.
  Sizing the integral batches needed.
  Building batch lookup table.
   Calculation information:
      Number of atoms:                  17
      Number of AO shells:              69
      Number of primitives:            187
      Number of atomic orbitals:       145
      Number of basis functions:       139

      Integral cutoff                 1.00e-12
      Number of threads:                 1

	Batch   1 pq = [       0,    9730] index = [             0,47341315] size =     47341315
  Task number: 5
  Buffer size: 11059200
  Buffer per thread: 2
  We computed 2516091 shell quartets total.
  Whereas there are 2917320 unique shell quartets.

  ==> DiskJK: Disk-Based J/K Matrices <==

    J tasked:                  Yes
    K tasked:                  Yes
    wK tasked:                  No
    Memory [MiB]:              375
    Schwarz Cutoff:          1E-12

    OpenMP threads:              1

  Minimum eigenvalue in the overlap matrix is 4.5192857550E-03.
  Using Symmetric Orthogonalization.

  SCF Guess: Superposition of Atomic Densities via on-the-fly atomic UHF.

  ==> Iterations <==

                        Total Energy        Delta E     RMS |[F,P]|

   @RHF iter SAD:  -285.95328016003083   -2.85953e+02   0.00000e+00
   @RHF iter   1:  -286.99693405134860   -1.04365e+00   4.62815e-03 DIIS
   @RHF iter   2:  -287.17191394266951   -1.74980e-01   2.58948e-03 DIIS
   @RHF iter   3:  -287.22163005902871   -4.97161e-02   5.41533e-04 DIIS
   @RHF iter   4:  -287.22501914333657   -3.38908e-03   2.20160e-04 DIIS
   @RHF iter   5:  -287.22562588338229   -6.06740e-04   3.43926e-05 DIIS
   @RHF iter   6:  -287.22565722726637   -3.13439e-05   1.57360e-05 DIIS
   @RHF iter   7:  -287.22566221338917   -4.98612e-06   6.34456e-06 DIIS
   @RHF iter   8:  -287.22566334592011   -1.13253e-06   2.13807e-06 DIIS
   @RHF iter   9:  -287.22566347788938   -1.31969e-07   5.35336e-07 DIIS
   @RHF iter  10:  -287.22566348381872   -5.92934e-09   1.66323e-07 DIIS
   @RHF iter  11:  -287.22566348445537   -6.36646e-10   3.67824e-08 DIIS
   @RHF iter  12:  -287.22566348448794   -3.25713e-11   8.11488e-09 DIIS
   @RHF iter  13:  -287.22566348448981   -1.87583e-12   1.61611e-09 DIIS
   @RHF iter  14:  -287.22566348448959    2.27374e-13   6.10859e-10 DIIS
   @RHF iter  15:  -287.22566348448913    4.54747e-13   2.17650e-10 DIIS
   @RHF iter  16:  -287.22566348448925   -1.13687e-13   5.99577e-11 DIIS
  Energy and wave function converged.

  ==> Post-Iterations <==

    Orbital Energies [Eh]
    ---------------------

    Doubly Occupied:

       1A    -20.502728     2A    -15.586456     3A    -11.345424
       4A    -11.239566     5A    -11.225099     6A    -11.223895
       7A     -1.367068     8A     -1.215826     9A     -1.026424
      10A     -0.996831    11A     -0.842726    12A     -0.796985
      13A     -0.728746    14A     -0.652850    15A     -0.611837
      16A     -0.607904    17A     -0.604259    18A     -0.568277
      19A     -0.553124    20A     -0.523135    21A     -0.504843
      22A     -0.493301    23A     -0.491105    24A     -0.408780
      25A     -0.401466

    Virtual:

      26A      0.158274    27A      0.188666    28A      0.196254
      29A      0.208481    30A      0.231632    31A      0.246393
      32A      0.255446    33A      0.258026    34A      0.269821
      35A      0.276034    36A      0.288413    37A      0.347517
      38A      0.381260    39A      0.391463    40A      0.471801
      41A      0.535972    42A      0.591187    43A      0.596798
      44A      0.622209    45A      0.630798    46A      0.649179
      47A      0.668200    48A      0.701591    49A      0.709967
      50A      0.737380    51A      0.754627    52A      0.785455
      53A      0.859926    54A      0.861387    55A      0.872334
      56A      0.882775    57A      0.887530    58A      0.892002
      59A      0.906922    60A      0.909512    61A      0.924879
      62A      0.938753    63A      0.951482    64A      0.973617
      65A      1.030385    66A      1.059326    67A      1.102010
      68A      1.114809    69A      1.123676    70A      1.140667
      71A      1.143200    72A      1.237362    73A      1.327215
      74A      1.354480    75A      1.378662    76A      1.401384
      77A      1.429975    78A      1.463261    79A      1.474373
      80A      1.484454    81A      1.504408    82A      1.583255
      83A      1.638098    84A      1.661614    85A      1.671420
      86A      1.683669    87A      1.733041    88A      1.797741
      89A      1.840578    90A      1.857440    91A      1.878894
      92A      1.890397    93A      1.892884    94A      1.916941
      95A      1.919324    96A      1.937162    97A      1.944687
      98A      1.953254    99A      1.955990   100A      1.977678
     101A      1.986100   102A      2.041976   103A      2.061911
     104A      2.091232   105A      2.108816   106A      2.116283
     107A      2.164552   108A      2.202699   109A      2.269649
     110A      2.295741   111A      2.338831   112A      2.408873
     113A      2.444154   114A      2.453781   115A      2.466889
     116A      2.496527   117A      2.552942   118A      2.561476
     119A      2.568799   120A      2.577642   121A      2.621431
     122A      2.733158   123A      2.745481   124A      2.762338
     125A      2.778016   126A      2.806303   127A      2.839029
     128A      2.842235   129A      2.860946   130A      2.940109
     131A      2.958010   132A      2.989985   133A      3.090867
     134A      3.144234   135A      3.299286   136A      3.497081
     137A      3.540765   138A      3.862982   139A      3.902663

    Final Occupation by Irrep:
              A
    DOCC [    25 ]

  @RHF Final Energy:  -287.22566348448925

   => Energetics <=

    Nuclear Repulsion Energy =            233.5223625834428560
    One-Electron Energy =                -852.4587401496003167
    Two-Electron Energy =                 331.7107140816682431
    Total Energy =                       -287.2256634844892460

Computation Completed

Properties will be evaluated at   0.000000,   0.000000,   0.000000 [a0]

Properties computed using the SCF density matrix

  Nuclear Dipole Moment: [e a0]
     X:    -1.8649      Y:     4.2076      Z:    10.9462

  Electronic Dipole Moment: [e a0]
     X:     2.4458      Y:    -4.5131      Z:    -9.4223

  Dipole Moment: [e a0]
     X:     0.5809      Y:    -0.3055      Z:     1.5239     Total:     1.6592

  Dipole Moment: [D]
     X:     1.4764      Y:    -0.7765      Z:     3.8734     Total:     4.2174

*** tstop() called on ds3 at Sun Apr 26 18:09:53 2020
Module time:
	user time   =      16.39 seconds =       0.27 minutes
	system time =       6.98 seconds =       0.12 minutes
	total time  =         23 seconds =       0.38 minutes
Total time:
	user time   =      16.39 seconds =       0.27 minutes
	system time =       6.98 seconds =       0.12 minutes
	total time  =         23 seconds =       0.38 minutes
                                     G D M A

                                 by Anthony Stone

                           version 2.2.06, 22 June 2011

               Distributed Multipoles from Gaussian wavefunctions

Starting at 18:9:53 on 26 Apr 2020

Using SCF density matrix from file ./SSI/SSI-058LEU-094GLN-1-dimer.test.3130.fchk

                         Distributed Multipole Analysis

Standard DMA

Positions and radii in angstrom
Multipole moments in atomic units, ea_0^k for rank k

C          x = -0.167867  y =  1.386005  z =  1.698152 angstrom
           Maximum rank =  0   Radius =  0.650 angstrom
                   Q00  =  -0.235746

C          x = -0.648867  y =  2.482005  z =  2.645152 angstrom
           Maximum rank =  0   Radius =  0.650 angstrom
                   Q00  =  -0.238806

H          x =  0.923133  y =  1.356005  z =  1.675152 angstrom
           Maximum rank =  0   Radius =  0.325 angstrom
                   Q00  =   0.070800

H          x = -0.552867  y =  0.423005  z =  2.038152 angstrom
           Maximum rank =  0   Radius =  0.325 angstrom
                   Q00  =   0.068632

H          x = -0.537867  y =  1.580005  z =  0.689152 angstrom
           Maximum rank =  0   Radius =  0.325 angstrom
                   Q00  =   0.088169

H          x = -0.327867  y =  2.213005  z =  3.646152 angstrom
           Maximum rank =  0   Radius =  0.325 angstrom
                   Q00  =   0.077471

H          x = -0.211177  y =  3.445505  z =  2.345002 angstrom
           Maximum rank =  0   Radius =  0.325 angstrom
                   Q00  =   0.081872

H          x = -1.746777  y =  2.548153  z =  2.630052 angstrom
           Maximum rank =  0   Radius =  0.325 angstrom
                   Q00  =   0.082926

C          x = -0.744867  y = -1.848995  z = -0.427848 angstrom
           Maximum rank =  0   Radius =  0.650 angstrom
                   Q00  =  -0.273818

C          x =  0.216133  y = -0.942995  z = -1.175848 angstrom
           Maximum rank =  0   Radius =  0.650 angstrom
                   Q00  =   0.820525

O          x = -0.023867  y = -0.570995  z = -2.320848 angstrom
           Maximum rank =  0   Radius =  0.650 angstrom
                   Q00  =  -0.793876

N          x =  1.323133  y = -0.592995  z = -0.537848 angstrom
           Maximum rank =  0   Radius =  0.650 angstrom
                   Q00  =  -0.523307

H          x = -1.722867  y = -1.800995  z = -0.910848 angstrom
           Maximum rank =  0   Radius =  0.325 angstrom
                   Q00  =   0.128298

H          x = -0.863867  y = -1.491995  z =  0.595152 angstrom
           Maximum rank =  0   Radius =  0.325 angstrom
                   Q00  =   0.095308

H          x =  1.938133  y =  0.057005  z = -1.002848 angstrom
           Maximum rank =  0   Radius =  0.325 angstrom
                   Q00  =   0.220792

H          x =  1.520133  y = -0.945995  z =  0.386152 angstrom
           Maximum rank =  0   Radius =  0.325 angstrom
                   Q00  =   0.209738

H          x = -0.403167  y = -2.894321  z = -0.404728 angstrom
           Maximum rank =  0   Radius =  0.325 angstrom
                   Q00  =   0.121023

Total multipoles referred to origin at
           x =   0.000000,  y =    0.000000,  z =    0.000000 angstrom
                   Q00  =  -0.000000

Finished at 18:9:53 on 26 Apr 2020

  DMA results are available in the Python driver through the
	  variable('DMA DISTRIBUTED MULTIPOLES')
  and
	  variable('DMA TOTAL MULTIPOLES')
  commands.

    Psi4 stopped on: Sunday, 26 April 2020 06:09PM
    Psi4 wall time for execution: 0:00:22.96

*** Psi4 exiting successfully. Buy a developer a beer!
