                               Psi4 1.3.2 release

  ==> Input File <==

--------------------------------------------------------------------------
import numpy as np
set {scf_type pk
basis cc-pvdz
d_convergence 10
gdma_switch   0
gdma_limit    0
gdma_origin   [ 0.0,  0.0,  0.0 ]
}
molecule test {
    units Angstrom
    0 1
    --
    0 1
    C                1.882022029204904    -2.435526224459568    -0.892636871290313
    C               -0.730977970795096     0.254473775540433    -0.018636871290313
    C               -1.530977970795096    -0.390526224459567     0.916363128709688
    C                0.386022029204904    -0.398526224459567    -0.641636871290313
    C                0.690022029204904    -1.710526224459567    -0.299636871290313
    C               -1.233977970795096    -1.704526224459567     1.243363128709687
    C               -0.128977970795096    -2.348526224459567     0.633363128709687
    H               -0.992977970795096     1.253473775540433    -0.249636871290313
    H               -2.365977970795096     0.122473775540433     1.375363128709687
    H                0.998022029204904     0.113473775540433    -1.375636871290312
    H               -1.849977970795096    -2.218526224459568     1.966363128709687
    H                2.476022029204904    -2.810526224459567    -0.057636871290313
    H                2.469022029204904    -1.699526224459567    -1.442636871290313
    H                0.113022029204904    -3.370526224459567     0.883363128709687
    H                1.616382029204904    -3.256726224459567    -1.574586871290313
    C                0.348022029204904     3.427473775540433    -0.978636871290313
    C                0.016022029204904     4.343473775540433     0.264363128709687
    H                1.258022029204904     2.852473775540433    -0.796636871290312
    H               -0.468977970795096     2.761473775540432    -1.177636871290312
    H                0.486022029204904     4.032473775540433    -1.876636871290313
    H               -0.884977970795096     4.921473775540433     0.072363128709687
    H                0.875272029204904     5.019673775540432     0.384713128709687
    H               -0.123487970795096     3.741973775540433     1.174743128709687

}
e, wfn = energy('scf', return_wfn=True)
gdma(wfn)
dmavals = variable('DMA DISTRIBUTED MULTIPOLES')
charges = np.array(dmavals)
print(charges)
np.save('SSI-078PHE-218LEU-2-dimer.npy', np.array(charges))--------------------------------------------------------------------------

*** tstart() called on ds3
*** at Sun Apr 26 18:05:06 2020

   => Loading Basis Set <=

    Name: CC-PVDZ
    Role: ORBITAL
    Keyword: BASIS
    atoms 1-7, 16-17  entry C          line   138 file /theoryfs2/ds/metcalf/miniconda2/envs/tf2gpu/share/psi4/basis/cc-pvdz.gbs
    atoms 8-15, 18-23 entry H          line    22 file /theoryfs2/ds/metcalf/miniconda2/envs/tf2gpu/share/psi4/basis/cc-pvdz.gbs

         ---------------------------------------------------------
                                   SCF
               by Justin Turney, Rob Parrish, Andy Simmonett
                          and Daniel G. A. Smith
                              RHF Reference
                        1 Threads,    500 MiB Core
         ---------------------------------------------------------

  ==> Geometry <==

    Molecular point group: c1
    Full point group: C1

    Geometry (in Angstrom), charge = 0, multiplicity = 1:

       Center              X                  Y                   Z               Mass
    ------------   -----------------  -----------------  -----------------  -----------------
         C            1.882022029205    -2.435526224460    -0.892636871290    12.000000000000
         C           -0.730977970795     0.254473775540    -0.018636871290    12.000000000000
         C           -1.530977970795    -0.390526224460     0.916363128710    12.000000000000
         C            0.386022029205    -0.398526224460    -0.641636871290    12.000000000000
         C            0.690022029205    -1.710526224460    -0.299636871290    12.000000000000
         C           -1.233977970795    -1.704526224460     1.243363128710    12.000000000000
         C           -0.128977970795    -2.348526224460     0.633363128710    12.000000000000
         H           -0.992977970795     1.253473775540    -0.249636871290     1.007825032230
         H           -2.365977970795     0.122473775540     1.375363128710     1.007825032230
         H            0.998022029205     0.113473775540    -1.375636871290     1.007825032230
         H           -1.849977970795    -2.218526224460     1.966363128710     1.007825032230
         H            2.476022029205    -2.810526224460    -0.057636871290     1.007825032230
         H            2.469022029205    -1.699526224460    -1.442636871290     1.007825032230
         H            0.113022029205    -3.370526224460     0.883363128710     1.007825032230
         H            1.616382029205    -3.256726224460    -1.574586871290     1.007825032230
         C            0.348022029205     3.427473775540    -0.978636871290    12.000000000000
         C            0.016022029205     4.343473775540     0.264363128710    12.000000000000
         H            1.258022029205     2.852473775540    -0.796636871290     1.007825032230
         H           -0.468977970795     2.761473775540    -1.177636871290     1.007825032230
         H            0.486022029205     4.032473775540    -1.876636871290     1.007825032230
         H           -0.884977970795     4.921473775540     0.072363128710     1.007825032230
         H            0.875272029205     5.019673775540     0.384713128710     1.007825032230
         H           -0.123487970795     3.741973775540     1.174743128710     1.007825032230

  Running in c1 symmetry.

  Rotational constants: A =      0.07975  B =      0.02286  C =      0.01847 [cm^-1]
  Rotational constants: A =   2390.90380  B =    685.23836  C =    553.71852 [MHz]
  Nuclear repulsion =  402.054425255226533

  Charge       = 0
  Multiplicity = 1
  Electrons    = 68
  Nalpha       = 34
  Nbeta        = 34

  ==> Algorithm <==

  SCF Algorithm Type is PK.
  DIIS enabled.
  MOM disabled.
  Fractional occupation disabled.
  Guess Type is SAD.
  Energy threshold   = 1.00e-06
  Density threshold  = 1.00e-10
  Integral threshold = 0.00e+00

  ==> Primary Basis <==

  Basis Set: CC-PVDZ
    Blend: CC-PVDZ
    Number of shells: 96
    Number of basis function: 196
    Number of Cartesian functions: 205
    Spherical Harmonics?: true
    Max angular momentum: 2

  ==> Pre-Iterations <==

   -------------------------------------------------------
    Irrep   Nso     Nmo     Nalpha   Nbeta   Ndocc  Nsocc
   -------------------------------------------------------
     A        196     196       0       0       0       0
   -------------------------------------------------------
    Total     196     196      34      34      34       0
   -------------------------------------------------------

  ==> Integral Setup <==

  Using integral reordering PK algorithm.
  Sizing the integral batches needed.
  Building batch lookup table.
   Calculation information:
      Number of atoms:                  23
      Number of AO shells:              96
      Number of primitives:            268
      Number of atomic orbitals:       205
      Number of basis functions:       196

      Integral cutoff                 1.00e-12
      Number of threads:                 1

	Batch   1 pq = [       0,    9405] index = [             0,44231715] size =     44231715
	Batch   2 pq = [    9405,   13301] index = [      44231715,88464951] size =     44233236
	Batch   3 pq = [   13301,   16290] index = [      88464951,132690195] size =     44225244
	Batch   4 pq = [   16290,   18810] index = [     132690195,176917455] size =     44227260
	Batch   5 pq = [   18810,   19306] index = [     176917455,186370471] size =      9453016
  Task number: 17
  Buffer size: 11059200
  Buffer per thread: 2
  We computed 9006717 shell quartets total.
  Whereas there are 10841496 unique shell quartets.

  ==> DiskJK: Disk-Based J/K Matrices <==

    J tasked:                  Yes
    K tasked:                  Yes
    wK tasked:                  No
    Memory [MiB]:              375
    Schwarz Cutoff:          1E-12

    OpenMP threads:              1

  Minimum eigenvalue in the overlap matrix is 3.2081949101E-04.
  Using Symmetric Orthogonalization.

  SCF Guess: Superposition of Atomic Densities via on-the-fly atomic UHF.

  ==> Iterations <==

                        Total Energy        Delta E     RMS |[F,P]|

   @RHF iter SAD:  -347.73330534110676   -3.47733e+02   0.00000e+00
   @RHF iter   1:  -348.76688469880889   -1.03358e+00   2.81610e-03 DIIS
   @RHF iter   2:  -348.95329797387700   -1.86413e-01   1.13739e-03 DIIS
   @RHF iter   3:  -348.98074827988285   -2.74503e-02   2.54803e-04 DIIS
   @RHF iter   4:  -348.98316031817325   -2.41204e-03   4.97012e-05 DIIS
   @RHF iter   5:  -348.98322644985802   -6.61317e-05   1.73453e-05 DIIS
   @RHF iter   6:  -348.98323399108722   -7.54123e-06   4.68562e-06 DIIS
   @RHF iter   7:  -348.98323469773379   -7.06647e-07   1.46263e-06 DIIS
   @RHF iter   8:  -348.98323479884459   -1.01111e-07   5.13329e-07 DIIS
   @RHF iter   9:  -348.98323482788959   -2.90450e-08   2.51778e-07 DIIS
   @RHF iter  10:  -348.98323483579679   -7.90720e-09   1.16939e-07 DIIS
   @RHF iter  11:  -348.98323483730371   -1.50692e-09   3.65335e-08 DIIS
   @RHF iter  12:  -348.98323483740381   -1.00101e-10   1.51206e-08 DIIS
   @RHF iter  13:  -348.98323483741297   -9.15179e-12   4.96017e-09 DIIS
   @RHF iter  14:  -348.98323483741586   -2.89901e-12   1.71686e-09 DIIS
   @RHF iter  15:  -348.98323483741666   -7.95808e-13   8.36720e-10 DIIS
   @RHF iter  16:  -348.98323483741711   -4.54747e-13   3.85830e-10 DIIS
   @RHF iter  17:  -348.98323483741683    2.84217e-13   1.04400e-10 DIIS
   @RHF iter  18:  -348.98323483741518    1.64846e-12   3.90416e-11 DIIS
  Energy and wave function converged.

  ==> Post-Iterations <==

    Orbital Energies [Eh]
    ---------------------

    Doubly Occupied:

       1A    -11.240730     2A    -11.237377     3A    -11.235680
       4A    -11.234369     5A    -11.231711     6A    -11.231383
       7A    -11.230124     8A    -11.224276     9A    -11.219819
      10A     -1.146101    11A     -1.046018    12A     -1.009525
      13A     -0.998703    14A     -0.932031    15A     -0.844752
      16A     -0.829437    17A     -0.787157    18A     -0.689323
      19A     -0.635030    20A     -0.627126    21A     -0.598585
      22A     -0.594087    23A     -0.578788    24A     -0.570061
      25A     -0.563753    26A     -0.536631    27A     -0.498664
      28A     -0.493358    29A     -0.488129    30A     -0.482585
      31A     -0.481684    32A     -0.475292    33A     -0.327279
      34A     -0.321129

    Virtual:

      35A      0.130187    36A      0.143656    37A      0.177638
      38A      0.192119    39A      0.207066    40A      0.218402
      41A      0.233177    42A      0.251853    43A      0.257467
      44A      0.260689    45A      0.266766    46A      0.271715
      47A      0.279809    48A      0.286183    49A      0.313678
      50A      0.357638    51A      0.366324    52A      0.378224
      53A      0.385393    54A      0.450542    55A      0.461943
      56A      0.476808    57A      0.495811    58A      0.556311
      59A      0.590917    60A      0.596584    61A      0.620923
      62A      0.630814    63A      0.638227    64A      0.665807
      65A      0.680491    66A      0.689333    67A      0.701544
      68A      0.715635    69A      0.727327    70A      0.740029
      71A      0.744449    72A      0.750779    73A      0.758736
      74A      0.777540    75A      0.781351    76A      0.819690
      77A      0.826852    78A      0.833977    79A      0.857192
      80A      0.866908    81A      0.876125    82A      0.882514
      83A      0.892453    84A      0.896553    85A      0.898580
      86A      0.905682    87A      0.919211    88A      0.923404
      89A      0.936904    90A      0.940266    91A      0.952305
      92A      0.974274    93A      0.982109    94A      0.988491
      95A      1.043644    96A      1.056672    97A      1.114035
      98A      1.124480    99A      1.130139   100A      1.150965
     101A      1.151251   102A      1.166963   103A      1.197273
     104A      1.234122   105A      1.236610   106A      1.251045
     107A      1.258198   108A      1.288313   109A      1.294884
     110A      1.320624   111A      1.325062   112A      1.330448
     113A      1.417362   114A      1.461819   115A      1.471158
     116A      1.501667   117A      1.535232   118A      1.545423
     119A      1.596267   120A      1.625229   121A      1.676078
     122A      1.680417   123A      1.685113   124A      1.713339
     125A      1.722656   126A      1.738374   127A      1.764659
     128A      1.792019   129A      1.796178   130A      1.846577
     131A      1.861602   132A      1.875881   133A      1.880166
     134A      1.887210   135A      1.892945   136A      1.899943
     137A      1.917228   138A      1.926896   139A      1.928641
     140A      1.935859   141A      1.938994   142A      1.949846
     143A      1.957843   144A      1.966357   145A      1.971371
     146A      1.980462   147A      2.005995   148A      2.012497
     149A      2.034258   150A      2.041587   151A      2.073981
     152A      2.089123   153A      2.103281   154A      2.117571
     155A      2.125770   156A      2.157344   157A      2.172732
     158A      2.190401   159A      2.205656   160A      2.242640
     161A      2.267925   162A      2.279959   163A      2.290862
     164A      2.295067   165A      2.321301   166A      2.336791
     167A      2.345426   168A      2.443825   169A      2.449250
     170A      2.474093   171A      2.483800   172A      2.515981
     173A      2.530621   174A      2.563849   175A      2.581520
     176A      2.624381   177A      2.736266   178A      2.754317
     179A      2.765051   180A      2.773545   181A      2.778419
     182A      2.794776   183A      2.817728   184A      2.839751
     185A      2.845700   186A      2.858511   187A      2.871355
     188A      2.940161   189A      2.960324   190A      2.975455
     191A      2.984044   192A      3.056758   193A      3.132103
     194A      3.178854   195A      3.306637   196A      3.931883

    Final Occupation by Irrep:
              A
    DOCC [    34 ]

  @RHF Final Energy:  -348.98323483741518

   => Energetics <=

    Nuclear Repulsion Energy =            402.0544252552265334
    One-Electron Energy =               -1266.7939245401282733
    Two-Electron Energy =                 515.7562644474866147
    Total Energy =                       -348.9832348374151252

Computation Completed

Properties will be evaluated at   0.000000,   0.000000,   0.000000 [a0]

Properties computed using the SCF density matrix

  Nuclear Dipole Moment: [e a0]
     X:     3.3800      Y:    10.7463      Z:    -2.5257

  Electronic Dipole Moment: [e a0]
     X:    -3.2800      Y:   -10.7948      Z:     2.4811

  Dipole Moment: [e a0]
     X:     0.0999      Y:    -0.0484      Z:    -0.0446     Total:     0.1197

  Dipole Moment: [D]
     X:     0.2540      Y:    -0.1231      Z:    -0.1133     Total:     0.3042

*** tstop() called on ds3 at Sun Apr 26 18:06:43 2020
Module time:
	user time   =      69.49 seconds =       1.16 minutes
	system time =      30.81 seconds =       0.51 minutes
	total time  =         97 seconds =       1.62 minutes
Total time:
	user time   =      69.49 seconds =       1.16 minutes
	system time =      30.81 seconds =       0.51 minutes
	total time  =         97 seconds =       1.62 minutes
                                     G D M A

                                 by Anthony Stone

                           version 2.2.06, 22 June 2011

               Distributed Multipoles from Gaussian wavefunctions

Starting at 18:6:43 on 26 Apr 2020

Using SCF density matrix from file ./SSI/SSI-078PHE-218LEU-2-dimer.test.2867.fchk

                         Distributed Multipole Analysis

Standard DMA

Positions and radii in angstrom
Multipole moments in atomic units, ea_0^k for rank k

C          x =  1.882022  y = -2.435526  z = -0.892637 angstrom
           Maximum rank =  0   Radius =  0.650 angstrom
                   Q00  =  -0.203466

C          x = -0.730978  y =  0.254474  z = -0.018637 angstrom
           Maximum rank =  0   Radius =  0.650 angstrom
                   Q00  =  -0.051686

C          x = -1.530978  y = -0.390526  z =  0.916363 angstrom
           Maximum rank =  0   Radius =  0.650 angstrom
                   Q00  =  -0.085954

C          x =  0.386022  y = -0.398526  z = -0.641637 angstrom
           Maximum rank =  0   Radius =  0.650 angstrom
                   Q00  =  -0.098423

C          x =  0.690022  y = -1.710526  z = -0.299637 angstrom
           Maximum rank =  0   Radius =  0.650 angstrom
                   Q00  =  -0.101263

C          x = -1.233978  y = -1.704526  z =  1.243363 angstrom
           Maximum rank =  0   Radius =  0.650 angstrom
                   Q00  =  -0.082766

C          x = -0.128978  y = -2.348526  z =  0.633363 angstrom
           Maximum rank =  0   Radius =  0.650 angstrom
                   Q00  =   0.003366

H          x = -0.992978  y =  1.253474  z = -0.249637 angstrom
           Maximum rank =  0   Radius =  0.325 angstrom
                   Q00  =   0.064618

H          x = -2.365978  y =  0.122474  z =  1.375363 angstrom
           Maximum rank =  0   Radius =  0.325 angstrom
                   Q00  =   0.062589

H          x =  0.998022  y =  0.113474  z = -1.375637 angstrom
           Maximum rank =  0   Radius =  0.325 angstrom
                   Q00  =   0.063600

H          x = -1.849978  y = -2.218526  z =  1.966363 angstrom
           Maximum rank =  0   Radius =  0.325 angstrom
                   Q00  =   0.065456

H          x =  2.476022  y = -2.810526  z = -0.057637 angstrom
           Maximum rank =  0   Radius =  0.325 angstrom
                   Q00  =   0.102196

H          x =  2.469022  y = -1.699526  z = -1.442637 angstrom
           Maximum rank =  0   Radius =  0.325 angstrom
                   Q00  =   0.097443

H          x =  0.113022  y = -3.370526  z =  0.883363 angstrom
           Maximum rank =  0   Radius =  0.325 angstrom
                   Q00  =   0.054097

H          x =  1.616382  y = -3.256726  z = -1.574587 angstrom
           Maximum rank =  0   Radius =  0.325 angstrom
                   Q00  =   0.106589

C          x =  0.348022  y =  3.427474  z = -0.978637 angstrom
           Maximum rank =  0   Radius =  0.650 angstrom
                   Q00  =  -0.254375

C          x =  0.016022  y =  4.343474  z =  0.264363 angstrom
           Maximum rank =  0   Radius =  0.650 angstrom
                   Q00  =  -0.241726

H          x =  1.258022  y =  2.852474  z = -0.796637 angstrom
           Maximum rank =  0   Radius =  0.325 angstrom
                   Q00  =   0.085334

H          x = -0.468978  y =  2.761474  z = -1.177637 angstrom
           Maximum rank =  0   Radius =  0.325 angstrom
                   Q00  =   0.077148

H          x =  0.486022  y =  4.032474  z = -1.876637 angstrom
           Maximum rank =  0   Radius =  0.325 angstrom
                   Q00  =   0.082697

H          x = -0.884978  y =  4.921474  z =  0.072363 angstrom
           Maximum rank =  0   Radius =  0.325 angstrom
                   Q00  =   0.085126

H          x =  0.875272  y =  5.019674  z =  0.384713 angstrom
           Maximum rank =  0   Radius =  0.325 angstrom
                   Q00  =   0.082859

H          x = -0.123488  y =  3.741974  z =  1.174743 angstrom
           Maximum rank =  0   Radius =  0.325 angstrom
                   Q00  =   0.086541

Total multipoles referred to origin at
           x =   0.000000,  y =    0.000000,  z =    0.000000 angstrom
                   Q00  =  -0.000000

Finished at 18:6:43 on 26 Apr 2020

  DMA results are available in the Python driver through the
	  variable('DMA DISTRIBUTED MULTIPOLES')
  and
	  variable('DMA TOTAL MULTIPOLES')
  commands.

    Psi4 stopped on: Sunday, 26 April 2020 06:06PM
    Psi4 wall time for execution: 0:01:37.25

*** Psi4 exiting successfully. Buy a developer a beer!
