                               Psi4 1.3.2 release

  ==> Input File <==

--------------------------------------------------------------------------
import numpy as np
set {scf_type pk
basis cc-pvdz
d_convergence 10
gdma_switch   0
gdma_limit    0
gdma_origin   [ 0.0,  0.0,  0.0 ]
}
molecule test {
    units Angstrom
    0 1
    --
    0 1
    C                3.512574683931667     0.958774841405709    -0.450313155740818
    C                3.673574683931667     2.281774841405709    -1.200313155740818
    H                2.485574683931667     0.844774841405709    -0.106313155740818
    H                3.740574683931667     0.123774841405709    -1.114313155740818
    H                4.154574683931667     0.912774841405709     0.413686844259182
    H                2.850574683931667     2.387774841405709    -1.902313155740818
    H                3.652154683931666     3.137214841405709    -0.509103155740818
    H                4.612914683931667     2.283214841405708    -1.772713155740818
    C               -3.112425316068333    -0.097225158594291     1.704686844259182
    C               -0.188425316068333     0.443774841405709    -0.673313155740818
    C               -1.285425316068333     0.687774841405709     0.158686844259182
    C                0.292574683931667    -0.856225158594291    -0.832313155740818
    C               -1.911425316068333    -0.361225158594291     0.834686844259182
    C               -0.328425316068333    -1.910225158594291    -0.159313155740818
    C               -1.426425316068333    -1.660225158594291     0.670686844259182
    H                0.285574683931667     1.267774841405709    -1.190313155740818
    H               -1.648425316068334     1.698774841405709     0.275686844259182
    H                1.145574683931667    -1.051225158594291    -1.468313155740818
    H                0.041574683931667    -2.920225158594292    -0.276313155740818
    H               -2.848425316068333     0.667774841405709     2.436686844259182
    H               -3.359425316068333    -1.004225158594291     2.255686844259182
    H               -1.905425316068333    -2.481225158594291     1.184686844259182
    H               -3.993555316068333     0.241564841405709     1.140036844259182

}
e, wfn = energy('scf', return_wfn=True)
gdma(wfn)
dmavals = variable('DMA DISTRIBUTED MULTIPOLES')
charges = np.array(dmavals)
print(charges)
np.save('SSI-113VAL-143PHE-1-dimer.npy', np.array(charges))--------------------------------------------------------------------------

*** tstart() called on ds3
*** at Tue Apr 28 03:09:44 2020

   => Loading Basis Set <=

    Name: CC-PVDZ
    Role: ORBITAL
    Keyword: BASIS
    atoms 1-2, 9-15  entry C          line   138 file /theoryfs2/ds/metcalf/miniconda2/envs/tf2gpu/share/psi4/basis/cc-pvdz.gbs
    atoms 3-8, 16-23 entry H          line    22 file /theoryfs2/ds/metcalf/miniconda2/envs/tf2gpu/share/psi4/basis/cc-pvdz.gbs

         ---------------------------------------------------------
                                   SCF
               by Justin Turney, Rob Parrish, Andy Simmonett
                          and Daniel G. A. Smith
                              RHF Reference
                        1 Threads,    500 MiB Core
         ---------------------------------------------------------

  ==> Geometry <==

    Molecular point group: c1
    Full point group: C1

    Geometry (in Angstrom), charge = 0, multiplicity = 1:

       Center              X                  Y                   Z               Mass
    ------------   -----------------  -----------------  -----------------  -----------------
         C            3.512574683932     0.958774841406    -0.450313155741    12.000000000000
         C            3.673574683932     2.281774841406    -1.200313155741    12.000000000000
         H            2.485574683932     0.844774841406    -0.106313155741     1.007825032230
         H            3.740574683932     0.123774841406    -1.114313155741     1.007825032230
         H            4.154574683932     0.912774841406     0.413686844259     1.007825032230
         H            2.850574683932     2.387774841406    -1.902313155741     1.007825032230
         H            3.652154683932     3.137214841406    -0.509103155741     1.007825032230
         H            4.612914683932     2.283214841406    -1.772713155741     1.007825032230
         C           -3.112425316068    -0.097225158594     1.704686844259    12.000000000000
         C           -0.188425316068     0.443774841406    -0.673313155741    12.000000000000
         C           -1.285425316068     0.687774841406     0.158686844259    12.000000000000
         C            0.292574683932    -0.856225158594    -0.832313155741    12.000000000000
         C           -1.911425316068    -0.361225158594     0.834686844259    12.000000000000
         C           -0.328425316068    -1.910225158594    -0.159313155741    12.000000000000
         C           -1.426425316068    -1.660225158594     0.670686844259    12.000000000000
         H            0.285574683932     1.267774841406    -1.190313155741     1.007825032230
         H           -1.648425316068     1.698774841406     0.275686844259     1.007825032230
         H            1.145574683932    -1.051225158594    -1.468313155741     1.007825032230
         H            0.041574683932    -2.920225158594    -0.276313155741     1.007825032230
         H           -2.848425316068     0.667774841406     2.436686844259     1.007825032230
         H           -3.359425316068    -1.004225158594     2.255686844259     1.007825032230
         H           -1.905425316068    -2.481225158594     1.184686844259     1.007825032230
         H           -3.993555316068     0.241564841406     1.140036844259     1.007825032230

  Running in c1 symmetry.

  Rotational constants: A =      0.10145  B =      0.02030  C =      0.01812 [cm^-1]
  Rotational constants: A =   3041.34343  B =    608.53489  C =    543.25019 [MHz]
  Nuclear repulsion =  401.958341324350954

  Charge       = 0
  Multiplicity = 1
  Electrons    = 68
  Nalpha       = 34
  Nbeta        = 34

  ==> Algorithm <==

  SCF Algorithm Type is PK.
  DIIS enabled.
  MOM disabled.
  Fractional occupation disabled.
  Guess Type is SAD.
  Energy threshold   = 1.00e-06
  Density threshold  = 1.00e-10
  Integral threshold = 0.00e+00

  ==> Primary Basis <==

  Basis Set: CC-PVDZ
    Blend: CC-PVDZ
    Number of shells: 96
    Number of basis function: 196
    Number of Cartesian functions: 205
    Spherical Harmonics?: true
    Max angular momentum: 2

  ==> Pre-Iterations <==

   -------------------------------------------------------
    Irrep   Nso     Nmo     Nalpha   Nbeta   Ndocc  Nsocc
   -------------------------------------------------------
     A        196     196       0       0       0       0
   -------------------------------------------------------
    Total     196     196      34      34      34       0
   -------------------------------------------------------

  ==> Integral Setup <==

  Using integral reordering PK algorithm.
  Sizing the integral batches needed.
  Building batch lookup table.
   Calculation information:
      Number of atoms:                  23
      Number of AO shells:              96
      Number of primitives:            268
      Number of atomic orbitals:       205
      Number of basis functions:       196

      Integral cutoff                 1.00e-12
      Number of threads:                 1

	Batch   1 pq = [       0,    9405] index = [             0,44231715] size =     44231715
	Batch   2 pq = [    9405,   13301] index = [      44231715,88464951] size =     44233236
	Batch   3 pq = [   13301,   16290] index = [      88464951,132690195] size =     44225244
	Batch   4 pq = [   16290,   18810] index = [     132690195,176917455] size =     44227260
	Batch   5 pq = [   18810,   19306] index = [     176917455,186370471] size =      9453016
  Task number: 17
  Buffer size: 11059200
  Buffer per thread: 2
  We computed 8752284 shell quartets total.
  Whereas there are 10841496 unique shell quartets.

  ==> DiskJK: Disk-Based J/K Matrices <==

    J tasked:                  Yes
    K tasked:                  Yes
    wK tasked:                  No
    Memory [MiB]:              375
    Schwarz Cutoff:          1E-12

    OpenMP threads:              1

  Minimum eigenvalue in the overlap matrix is 3.1482274127E-04.
  Using Symmetric Orthogonalization.

  SCF Guess: Superposition of Atomic Densities via on-the-fly atomic UHF.

  ==> Iterations <==

                        Total Energy        Delta E     RMS |[F,P]|

   @RHF iter SAD:  -347.83396671593715   -3.47834e+02   0.00000e+00
   @RHF iter   1:  -348.76858160760071   -9.34615e-01   2.87876e-03 DIIS
   @RHF iter   2:  -348.95997283761039   -1.91391e-01   1.18372e-03 DIIS
   @RHF iter   3:  -348.98940525319813   -2.94324e-02   2.57476e-04 DIIS
   @RHF iter   4:  -348.99185679878724   -2.45155e-03   5.43247e-05 DIIS
   @RHF iter   5:  -348.99193258500316   -7.57862e-05   1.88288e-05 DIIS
   @RHF iter   6:  -348.99194123828767   -8.65328e-06   4.91711e-06 DIIS
   @RHF iter   7:  -348.99194196108522   -7.22798e-07   1.28701e-06 DIIS
   @RHF iter   8:  -348.99194203185317   -7.07680e-08   3.93898e-07 DIIS
   @RHF iter   9:  -348.99194204673802   -1.48848e-08   1.84244e-07 DIIS
   @RHF iter  10:  -348.99194205084808   -4.11006e-09   8.47598e-08 DIIS
   @RHF iter  11:  -348.99194205193925   -1.09117e-09   2.58152e-08 DIIS
   @RHF iter  12:  -348.99194205201036   -7.11111e-11   9.47143e-09 DIIS
   @RHF iter  13:  -348.99194205201547   -5.11591e-12   3.75867e-09 DIIS
   @RHF iter  14:  -348.99194205201673   -1.25056e-12   9.34520e-10 DIIS
   @RHF iter  15:  -348.99194205201718   -4.54747e-13   3.52874e-10 DIIS
   @RHF iter  16:  -348.99194205201968   -2.50111e-12   1.10669e-10 DIIS
   @RHF iter  17:  -348.99194205201786    1.81899e-12   4.80387e-11 DIIS
  Energy and wave function converged.

  ==> Post-Iterations <==

    Orbital Energies [Eh]
    ---------------------

    Doubly Occupied:

       1A    -11.241510     2A    -11.237349     3A    -11.236935
       4A    -11.232577     5A    -11.231905     6A    -11.231648
       7A    -11.229796     8A    -11.218297     9A    -11.211269
      10A     -1.150373    11A     -1.043721    12A     -1.016432
      13A     -1.009763    14A     -0.930850    15A     -0.837246
      16A     -0.824598    17A     -0.794731    18A     -0.690153
      19A     -0.632126    20A     -0.629427    21A     -0.597240
      22A     -0.595112    23A     -0.581014    24A     -0.576323
      25A     -0.562521    26A     -0.535833    27A     -0.500527
      28A     -0.489386    29A     -0.487061    30A     -0.484777
      31A     -0.480996    32A     -0.477243    33A     -0.331123
      34A     -0.321311

    Virtual:

      35A      0.132790    36A      0.141169    37A      0.169912
      38A      0.191281    39A      0.208042    40A      0.220861
      41A      0.228534    42A      0.245002    43A      0.251953
      44A      0.255852    45A      0.269070    46A      0.274361
      47A      0.293449    48A      0.298515    49A      0.324528
      50A      0.331529    51A      0.364773    52A      0.377725
      53A      0.400587    54A      0.447708    55A      0.464260
      56A      0.472249    57A      0.498880    58A      0.561379
      59A      0.592953    60A      0.601783    61A      0.607115
      62A      0.620633    63A      0.627435    64A      0.670808
      65A      0.687115    66A      0.693534    67A      0.702450
      68A      0.718640    69A      0.719678    70A      0.737808
      71A      0.741369    72A      0.748270    73A      0.754434
      74A      0.758741    75A      0.786331    76A      0.815479
      77A      0.836373    78A      0.861410    79A      0.862704
      80A      0.869934    81A      0.880897    82A      0.888198
      83A      0.894323    84A      0.895905    85A      0.901268
      86A      0.910148    87A      0.915906    88A      0.927246
      89A      0.931032    90A      0.937442    91A      0.943019
      92A      0.961633    93A      0.980885    94A      0.999551
      95A      1.028430    96A      1.073581    97A      1.102108
      98A      1.129259    99A      1.138058   100A      1.150207
     101A      1.154904   102A      1.174426   103A      1.202590
     104A      1.225125   105A      1.236335   106A      1.248143
     107A      1.259039   108A      1.282087   109A      1.302023
     110A      1.312669   111A      1.321754   112A      1.324438
     113A      1.414978   114A      1.474230   115A      1.484465
     116A      1.516221   117A      1.521499   118A      1.552905
     119A      1.577021   120A      1.618948   121A      1.677535
     122A      1.684289   123A      1.690080   124A      1.710055
     125A      1.733724   126A      1.749171   127A      1.757371
     128A      1.788435   129A      1.812499   130A      1.857972
     131A      1.865261   132A      1.878610   133A      1.889970
     134A      1.893541   135A      1.901427   136A      1.904984
     137A      1.911053   138A      1.920362   139A      1.938141
     140A      1.942096   141A      1.945259   142A      1.949506
     143A      1.961064   144A      1.964364   145A      1.975862
     146A      1.979607   147A      1.991025   148A      2.025941
     149A      2.032933   150A      2.047049   151A      2.075592
     152A      2.104040   153A      2.119739   154A      2.125137
     155A      2.134812   156A      2.154207   157A      2.167647
     158A      2.172720   159A      2.197175   160A      2.241247
     161A      2.267423   162A      2.284501   163A      2.299183
     164A      2.306605   165A      2.314580   166A      2.346267
     167A      2.355126   168A      2.442690   169A      2.452791
     170A      2.456474   171A      2.471924   172A      2.519515
     173A      2.527271   174A      2.581567   175A      2.588660
     176A      2.627727   177A      2.725826   178A      2.752713
     179A      2.768771   180A      2.771820   181A      2.781907
     182A      2.801715   183A      2.812173   184A      2.843488
     185A      2.856373   186A      2.869184   187A      2.874369
     188A      2.958741   189A      2.969580   190A      2.981670
     191A      3.003101   192A      3.026025   193A      3.153016
     194A      3.192762   195A      3.291802   196A      3.952486

    Final Occupation by Irrep:
              A
    DOCC [    34 ]

  @RHF Final Energy:  -348.99194205201786

   => Energetics <=

    Nuclear Repulsion Energy =            401.9583413243509540
    One-Electron Energy =               -1266.5982207771403409
    Two-Electron Energy =                 515.6479374007715251
    Total Energy =                       -348.9919420520178619

Computation Completed

Properties will be evaluated at   0.000000,   0.000000,   0.000000 [a0]

Properties computed using the SCF density matrix

  Nuclear Dipole Moment: [e a0]
     X:     8.6377      Y:     5.7265      Z:    -0.5936

  Electronic Dipole Moment: [e a0]
     X:    -8.7820      Y:    -5.7254      Z:     0.6938

  Dipole Moment: [e a0]
     X:    -0.1443      Y:     0.0012      Z:     0.1002     Total:     0.1757

  Dipole Moment: [D]
     X:    -0.3669      Y:     0.0030      Z:     0.2546     Total:     0.4466

*** tstop() called on ds3 at Tue Apr 28 03:11:12 2020
Module time:
	user time   =      61.73 seconds =       1.03 minutes
	system time =      29.98 seconds =       0.50 minutes
	total time  =         88 seconds =       1.47 minutes
Total time:
	user time   =      61.73 seconds =       1.03 minutes
	system time =      29.98 seconds =       0.50 minutes
	total time  =         88 seconds =       1.47 minutes
                                     G D M A

                                 by Anthony Stone

                           version 2.2.06, 22 June 2011

               Distributed Multipoles from Gaussian wavefunctions

Starting at 3:11:12 on 28 Apr 2020

Using SCF density matrix from file ./SSI/SSI-113VAL-143PHE-1-dimer.test.23413.fchk

                         Distributed Multipole Analysis

Standard DMA

Positions and radii in angstrom
Multipole moments in atomic units, ea_0^k for rank k

C          x =  3.512575  y =  0.958775  z = -0.450313 angstrom
           Maximum rank =  0   Radius =  0.650 angstrom
                   Q00  =  -0.237403

C          x =  3.673575  y =  2.281775  z = -1.200313 angstrom
           Maximum rank =  0   Radius =  0.650 angstrom
                   Q00  =  -0.241097

H          x =  2.485575  y =  0.844775  z = -0.106313 angstrom
           Maximum rank =  0   Radius =  0.325 angstrom
                   Q00  =   0.089696

H          x =  3.740575  y =  0.123775  z = -1.114313 angstrom
           Maximum rank =  0   Radius =  0.325 angstrom
                   Q00  =   0.073444

H          x =  4.154575  y =  0.912775  z =  0.413687 angstrom
           Maximum rank =  0   Radius =  0.325 angstrom
                   Q00  =   0.082566

H          x =  2.850575  y =  2.387775  z = -1.902313 angstrom
           Maximum rank =  0   Radius =  0.325 angstrom
                   Q00  =   0.073841

H          x =  3.652155  y =  3.137215  z = -0.509103 angstrom
           Maximum rank =  0   Radius =  0.325 angstrom
                   Q00  =   0.080039

H          x =  4.612915  y =  2.283215  z = -1.772713 angstrom
           Maximum rank =  0   Radius =  0.325 angstrom
                   Q00  =   0.078202

C          x = -3.112425  y = -0.097225  z =  1.704687 angstrom
           Maximum rank =  0   Radius =  0.650 angstrom
                   Q00  =  -0.200877

C          x = -0.188425  y =  0.443775  z = -0.673313 angstrom
           Maximum rank =  0   Radius =  0.650 angstrom
                   Q00  =  -0.082372

C          x = -1.285425  y =  0.687775  z =  0.158687 angstrom
           Maximum rank =  0   Radius =  0.650 angstrom
                   Q00  =  -0.018165

C          x =  0.292575  y = -0.856225  z = -0.832313 angstrom
           Maximum rank =  0   Radius =  0.650 angstrom
                   Q00  =  -0.087265

C          x = -1.911425  y = -0.361225  z =  0.834687 angstrom
           Maximum rank =  0   Radius =  0.650 angstrom
                   Q00  =  -0.100846

C          x = -0.328425  y = -1.910225  z = -0.159313 angstrom
           Maximum rank =  0   Radius =  0.650 angstrom
                   Q00  =  -0.070515

C          x = -1.426425  y = -1.660225  z =  0.670687 angstrom
           Maximum rank =  0   Radius =  0.650 angstrom
                   Q00  =  -0.053375

H          x =  0.285575  y =  1.267775  z = -1.190313 angstrom
           Maximum rank =  0   Radius =  0.325 angstrom
                   Q00  =   0.065749

H          x = -1.648425  y =  1.698775  z =  0.275687 angstrom
           Maximum rank =  0   Radius =  0.325 angstrom
                   Q00  =   0.055921

H          x =  1.145575  y = -1.051225  z = -1.468313 angstrom
           Maximum rank =  0   Radius =  0.325 angstrom
                   Q00  =   0.064166

H          x =  0.041575  y = -2.920225  z = -0.276313 angstrom
           Maximum rank =  0   Radius =  0.325 angstrom
                   Q00  =   0.066600

H          x = -2.848425  y =  0.667775  z =  2.436687 angstrom
           Maximum rank =  0   Radius =  0.325 angstrom
                   Q00  =   0.100409

H          x = -3.359425  y = -1.004225  z =  2.255687 angstrom
           Maximum rank =  0   Radius =  0.325 angstrom
                   Q00  =   0.097311

H          x = -1.905425  y = -2.481225  z =  1.184687 angstrom
           Maximum rank =  0   Radius =  0.325 angstrom
                   Q00  =   0.059663

H          x = -3.993555  y =  0.241565  z =  1.140037 angstrom
           Maximum rank =  0   Radius =  0.325 angstrom
                   Q00  =   0.104306

Total multipoles referred to origin at
           x =   0.000000,  y =    0.000000,  z =    0.000000 angstrom
                   Q00  =  -0.000000

Finished at 3:11:12 on 28 Apr 2020

  DMA results are available in the Python driver through the
	  variable('DMA DISTRIBUTED MULTIPOLES')
  and
	  variable('DMA TOTAL MULTIPOLES')
  commands.

    Psi4 stopped on: Tuesday, 28 April 2020 03:11AM
    Psi4 wall time for execution: 0:01:28.39

*** Psi4 exiting successfully. Buy a developer a beer!
