                               Psi4 1.3.2 release

  ==> Input File <==

--------------------------------------------------------------------------
import numpy as np
set {scf_type pk
basis cc-pvdz
d_convergence 10
gdma_switch   0
gdma_limit    0
gdma_origin   [ 0.0,  0.0,  0.0 ]
}
molecule test {
    units Angstrom
    -1 1
    --
    -1 1
    C                2.389328673183469    -0.922057165896395     0.104508878675183
    C                2.968328673183469    -0.086057165896395    -1.046491121324818
    O                1.844328673183469    -0.065057165896395     1.107508878675182
    H                1.608328673183469    -1.582057165896395    -0.274491121324818
    H                3.173328673183469    -1.534057165896395     0.545508878675182
    H                2.185328673183469     0.546942834103605    -1.465491121324817
    H                0.892328673183469    -0.291057165896395     1.224508878675183
    H                3.359768673183469    -0.774667165896395    -1.809771121324817
    H                3.811938673183469     0.534782834103605    -0.710511121324818
    C               -0.778671326816531     0.396942834103605    -0.804491121324818
    C               -1.681671326816531     0.658942834103605    -2.012491121324818
    C               -1.503671326816531     0.103942834103605     0.501508878675182
    O               -2.673671326816531     0.460942834103605     0.698508878675183
    O               -0.791671326816531    -0.498057165896395     1.336508878675183
    H               -0.179671326816531    -0.484057165896395    -1.039491121324817
    H               -0.095671326816531     1.233942834103605    -0.658491121324817
    H               -2.479671326816531    -0.083057165896395    -2.053491121324817
    H               -1.041891326816531     0.575002834103605    -2.903351121324818
    H               -2.101321326816531     1.673382834103605    -1.943141121324817

}
e, wfn = energy('scf', return_wfn=True)
gdma(wfn)
dmavals = variable('DMA DISTRIBUTED MULTIPOLES')
charges = np.array(dmavals)
print(charges)
np.save('SSI-178SER-239ASP-1-dimer.npy', np.array(charges))--------------------------------------------------------------------------

*** tstart() called on ds3
*** at Mon Apr 27 14:39:36 2020

   => Loading Basis Set <=

    Name: CC-PVDZ
    Role: ORBITAL
    Keyword: BASIS
    atoms 1-2, 10-12 entry C          line   138 file /theoryfs2/ds/metcalf/miniconda2/envs/tf2gpu/share/psi4/basis/cc-pvdz.gbs
    atoms 3, 13-14   entry O          line   198 file /theoryfs2/ds/metcalf/miniconda2/envs/tf2gpu/share/psi4/basis/cc-pvdz.gbs
    atoms 4-9, 15-19 entry H          line    22 file /theoryfs2/ds/metcalf/miniconda2/envs/tf2gpu/share/psi4/basis/cc-pvdz.gbs

         ---------------------------------------------------------
                                   SCF
               by Justin Turney, Rob Parrish, Andy Simmonett
                          and Daniel G. A. Smith
                              RHF Reference
                        1 Threads,    500 MiB Core
         ---------------------------------------------------------

  ==> Geometry <==

    Molecular point group: c1
    Full point group: C1

    Geometry (in Angstrom), charge = -1, multiplicity = 1:

       Center              X                  Y                   Z               Mass
    ------------   -----------------  -----------------  -----------------  -----------------
         C            2.389328673183    -0.922057165896     0.104508878675    12.000000000000
         C            2.968328673183    -0.086057165896    -1.046491121325    12.000000000000
         O            1.844328673183    -0.065057165896     1.107508878675    15.994914619570
         H            1.608328673183    -1.582057165896    -0.274491121325     1.007825032230
         H            3.173328673183    -1.534057165896     0.545508878675     1.007825032230
         H            2.185328673183     0.546942834104    -1.465491121325     1.007825032230
         H            0.892328673183    -0.291057165896     1.224508878675     1.007825032230
         H            3.359768673183    -0.774667165896    -1.809771121325     1.007825032230
         H            3.811938673183     0.534782834104    -0.710511121325     1.007825032230
         C           -0.778671326817     0.396942834104    -0.804491121325    12.000000000000
         C           -1.681671326817     0.658942834104    -2.012491121325    12.000000000000
         C           -1.503671326817     0.103942834104     0.501508878675    12.000000000000
         O           -2.673671326817     0.460942834104     0.698508878675    15.994914619570
         O           -0.791671326817    -0.498057165896     1.336508878675    15.994914619570
         H           -0.179671326817    -0.484057165896    -1.039491121325     1.007825032230
         H           -0.095671326817     1.233942834104    -0.658491121325     1.007825032230
         H           -2.479671326817    -0.083057165896    -2.053491121325     1.007825032230
         H           -1.041891326817     0.575002834104    -2.903351121325     1.007825032230
         H           -2.101321326817     1.673382834104    -1.943141121325     1.007825032230

  Running in c1 symmetry.

  Rotational constants: A =      0.09453  B =      0.03331  C =      0.02586 [cm^-1]
  Rotational constants: A =   2834.00302  B =    998.49904  C =    775.23797 [MHz]
  Nuclear repulsion =  383.339162653932249

  Charge       = -1
  Multiplicity = 1
  Electrons    = 66
  Nalpha       = 33
  Nbeta        = 33

  ==> Algorithm <==

  SCF Algorithm Type is PK.
  DIIS enabled.
  MOM disabled.
  Fractional occupation disabled.
  Guess Type is SAD.
  Energy threshold   = 1.00e-06
  Density threshold  = 1.00e-10
  Integral threshold = 0.00e+00

  ==> Primary Basis <==

  Basis Set: CC-PVDZ
    Blend: CC-PVDZ
    Number of shells: 81
    Number of basis function: 167
    Number of Cartesian functions: 175
    Spherical Harmonics?: true
    Max angular momentum: 2

  ==> Pre-Iterations <==

   -------------------------------------------------------
    Irrep   Nso     Nmo     Nalpha   Nbeta   Ndocc  Nsocc
   -------------------------------------------------------
     A        167     167       0       0       0       0
   -------------------------------------------------------
    Total     167     167      33      33      33       0
   -------------------------------------------------------

  ==> Integral Setup <==

  Using integral reordering PK algorithm.
  Sizing the integral batches needed.
  Building batch lookup table.
   Calculation information:
      Number of atoms:                  19
      Number of AO shells:              81
      Number of primitives:            231
      Number of atomic orbitals:       175
      Number of basis functions:       167

      Integral cutoff                 1.00e-12
      Number of threads:                 1

	Batch   1 pq = [       0,    9405] index = [             0,44231715] size =     44231715
	Batch   2 pq = [    9405,   13301] index = [      44231715,88464951] size =     44233236
	Batch   3 pq = [   13301,   14028] index = [      88464951,98399406] size =      9934455
  Task number: 9
  Buffer size: 11059200
  Buffer per thread: 2
  We computed 4996748 shell quartets total.
  Whereas there are 5516181 unique shell quartets.

  ==> DiskJK: Disk-Based J/K Matrices <==

    J tasked:                  Yes
    K tasked:                  Yes
    wK tasked:                  No
    Memory [MiB]:              375
    Schwarz Cutoff:          1E-12

    OpenMP threads:              1

  Minimum eigenvalue in the overlap matrix is 3.5833261873E-03.
  Using Symmetric Orthogonalization.

  SCF Guess: Superposition of Atomic Densities via on-the-fly atomic UHF.

  ==> Iterations <==

                        Total Energy        Delta E     RMS |[F,P]|

   @RHF iter SAD:  -418.70779871575735   -4.18708e+02   0.00000e+00
   @RHF iter   1:  -420.09875417629689   -1.39096e+00   4.58364e-03 DIIS
   @RHF iter   2:  -420.32496531874790   -2.26211e-01   2.49967e-03 DIIS
   @RHF iter   3:  -420.38882568503010   -6.38604e-02   3.96150e-04 DIIS
   @RHF iter   4:  -420.39184194427020   -3.01626e-03   1.55923e-04 DIIS
   @RHF iter   5:  -420.39226132193289   -4.19378e-04   2.94765e-05 DIIS
   @RHF iter   6:  -420.39227872178827   -1.73999e-05   1.29777e-05 DIIS
   @RHF iter   7:  -420.39228127178478   -2.55000e-06   2.82044e-06 DIIS
   @RHF iter   8:  -420.39228152220250   -2.50418e-07   1.15156e-06 DIIS
   @RHF iter   9:  -420.39228155927174   -3.70692e-08   4.87074e-07 DIIS
   @RHF iter  10:  -420.39228156797316   -8.70142e-09   1.78474e-07 DIIS
   @RHF iter  11:  -420.39228156920160   -1.22844e-09   5.86437e-08 DIIS
   @RHF iter  12:  -420.39228156932148   -1.19883e-10   1.83123e-08 DIIS
   @RHF iter  13:  -420.39228156933768   -1.62004e-11   4.31789e-09 DIIS
   @RHF iter  14:  -420.39228156933547    2.21689e-12   1.07223e-09 DIIS
   @RHF iter  15:  -420.39228156933717   -1.70530e-12   3.37522e-10 DIIS
   @RHF iter  16:  -420.39228156933643    7.38964e-13   1.34944e-10 DIIS
   @RHF iter  17:  -420.39228156933575    6.82121e-13   5.30620e-11 DIIS
  Energy and wave function converged.

  ==> Post-Iterations <==

    Orbital Energies [Eh]
    ---------------------

    Doubly Occupied:

       1A    -20.371478     2A    -20.288521     3A    -20.288434
       4A    -11.140322     5A    -11.137555     6A    -11.105179
       7A    -11.083120     8A    -11.062457     9A     -1.184787
      10A     -1.173039    11A     -1.071171    12A     -0.883026
      13A     -0.877462    14A     -0.713663    15A     -0.702639
      16A     -0.550453    17A     -0.518790    18A     -0.497938
      19A     -0.471488    20A     -0.454706    21A     -0.422184
      22A     -0.417112    23A     -0.411279    24A     -0.393577
      25A     -0.381102    26A     -0.375619    27A     -0.340044
      28A     -0.329888    29A     -0.319855    30A     -0.276956
      31A     -0.204536    32A     -0.201537    33A     -0.192814

    Virtual:

      34A      0.299632    35A      0.323607    36A      0.347969
      37A      0.362162    38A      0.367424    39A      0.379037
      40A      0.386824    41A      0.400767    42A      0.436876
      43A      0.449524    44A      0.477814    45A      0.487683
      46A      0.522824    47A      0.540953    48A      0.593980
      49A      0.622737    50A      0.684860    51A      0.707279
      52A      0.734806    53A      0.737005    54A      0.760193
      55A      0.791285    56A      0.828260    57A      0.871638
      58A      0.878168    59A      0.886370    60A      0.945620
      61A      0.952280    62A      0.963378    63A      0.975289
      64A      0.992352    65A      1.003683    66A      1.007269
      67A      1.021421    68A      1.029362    69A      1.031798
      70A      1.040680    71A      1.043681    72A      1.048974
      73A      1.074825    74A      1.086703    75A      1.108400
      76A      1.136511    77A      1.159268    78A      1.229183
      79A      1.267433    80A      1.275984    81A      1.294313
      82A      1.297952    83A      1.331476    84A      1.378767
      85A      1.445821    86A      1.488201    87A      1.492806
      88A      1.533279    89A      1.551985    90A      1.576124
      91A      1.588791    92A      1.619794    93A      1.635718
      94A      1.654897    95A      1.675609    96A      1.714604
      97A      1.743909    98A      1.793361    99A      1.798986
     100A      1.809374   101A      1.827319   102A      1.866589
     103A      1.884157   104A      1.892210   105A      1.934042
     106A      1.979036   107A      1.990814   108A      2.014862
     109A      2.015293   110A      2.031877   111A      2.051191
     112A      2.059196   113A      2.087317   114A      2.089501
     115A      2.107280   116A      2.126763   117A      2.138534
     118A      2.157196   119A      2.186810   120A      2.206604
     121A      2.226617   122A      2.231399   123A      2.248050
     124A      2.261501   125A      2.301190   126A      2.304598
     127A      2.375845   128A      2.389739   129A      2.418830
     130A      2.443127   131A      2.487351   132A      2.520330
     133A      2.549594   134A      2.586696   135A      2.618622
     136A      2.644346   137A      2.654847   138A      2.669202
     139A      2.695411   140A      2.728509   141A      2.768938
     142A      2.878390   143A      2.900479   144A      2.903710
     145A      2.935239   146A      2.959424   147A      2.967460
     148A      2.984045   149A      3.006360   150A      3.054652
     151A      3.092119   152A      3.120044   153A      3.239649
     154A      3.272827   155A      3.310198   156A      3.421464
     157A      3.484248   158A      3.575131   159A      3.611035
     160A      3.637895   161A      3.782460   162A      3.798172
     163A      3.825398   164A      4.035695   165A      4.097523
     166A      4.176302   167A      4.342290

    Final Occupation by Irrep:
              A
    DOCC [    33 ]

  @RHF Final Energy:  -420.39228156933575

   => Energetics <=

    Nuclear Repulsion Energy =            383.3391626539322488
    One-Electron Energy =               -1347.7774232462779764
    Two-Electron Energy =                 544.0459790230099770
    Total Energy =                       -420.3922815693357506

Computation Completed

Properties will be evaluated at   0.000000,   0.000000,   0.000000 [a0]

Properties computed using the SCF density matrix

  Nuclear Dipole Moment: [e a0]
     X:     8.5539      Y:    -0.1738      Z:   -10.3798

  Electronic Dipole Moment: [e a0]
     X:    -6.4659      Y:    -0.0989      Z:     8.2679

  Dipole Moment: [e a0]
     X:     2.0881      Y:    -0.2727      Z:    -2.1118     Total:     2.9823

  Dipole Moment: [D]
     X:     5.3073      Y:    -0.6932      Z:    -5.3678     Total:     7.5803

*** tstop() called on ds3 at Mon Apr 27 14:40:59 2020
Module time:
	user time   =      34.89 seconds =       0.58 minutes
	system time =      13.87 seconds =       0.23 minutes
	total time  =         83 seconds =       1.38 minutes
Total time:
	user time   =      34.89 seconds =       0.58 minutes
	system time =      13.87 seconds =       0.23 minutes
	total time  =         83 seconds =       1.38 minutes
                                     G D M A

                                 by Anthony Stone

                           version 2.2.06, 22 June 2011

               Distributed Multipoles from Gaussian wavefunctions

Starting at 14:40:59 on 27 Apr 2020

Using SCF density matrix from file ./SSI/SSI-178SER-239ASP-1-dimer.test.10122.fchk

                         Distributed Multipole Analysis

Standard DMA

Positions and radii in angstrom
Multipole moments in atomic units, ea_0^k for rank k

C          x =  2.389329  y = -0.922057  z =  0.104509 angstrom
           Maximum rank =  0   Radius =  0.650 angstrom
                   Q00  =   0.160760

C          x =  2.968329  y = -0.086057  z = -1.046491 angstrom
           Maximum rank =  0   Radius =  0.650 angstrom
                   Q00  =  -0.255553

O          x =  1.844329  y = -0.065057  z =  1.107509 angstrom
           Maximum rank =  0   Radius =  0.650 angstrom
                   Q00  =  -0.728222

H          x =  1.608329  y = -1.582057  z = -0.274491 angstrom
           Maximum rank =  0   Radius =  0.325 angstrom
                   Q00  =   0.029396

H          x =  3.173329  y = -1.534057  z =  0.545509 angstrom
           Maximum rank =  0   Radius =  0.325 angstrom
                   Q00  =   0.017706

H          x =  2.185329  y =  0.546943  z = -1.465491 angstrom
           Maximum rank =  0   Radius =  0.325 angstrom
                   Q00  =   0.096682

H          x =  0.892329  y = -0.291057  z =  1.224509 angstrom
           Maximum rank =  0   Radius =  0.325 angstrom
                   Q00  =   0.549712

H          x =  3.359769  y = -0.774667  z = -1.809771 angstrom
           Maximum rank =  0   Radius =  0.325 angstrom
                   Q00  =   0.040045

H          x =  3.811939  y =  0.534783  z = -0.710511 angstrom
           Maximum rank =  0   Radius =  0.325 angstrom
                   Q00  =   0.067610

C          x = -0.778671  y =  0.396943  z = -0.804491 angstrom
           Maximum rank =  0   Radius =  0.650 angstrom
                   Q00  =  -0.163462

C          x = -1.681671  y =  0.658943  z = -2.012491 angstrom
           Maximum rank =  0   Radius =  0.650 angstrom
                   Q00  =  -0.239195

C          x = -1.503671  y =  0.103943  z =  0.501509 angstrom
           Maximum rank =  0   Radius =  0.650 angstrom
                   Q00  =   0.987542

O          x = -2.673671  y =  0.460943  z =  0.698509 angstrom
           Maximum rank =  0   Radius =  0.650 angstrom
                   Q00  =  -0.917931

O          x = -0.791671  y = -0.498057  z =  1.336509 angstrom
           Maximum rank =  0   Radius =  0.650 angstrom
                   Q00  =  -0.947326

H          x = -0.179671  y = -0.484057  z = -1.039491 angstrom
           Maximum rank =  0   Radius =  0.325 angstrom
                   Q00  =   0.038688

H          x = -0.095671  y =  1.233943  z = -0.658491 angstrom
           Maximum rank =  0   Radius =  0.325 angstrom
                   Q00  =   0.072816

H          x = -2.479671  y = -0.083057  z = -2.053491 angstrom
           Maximum rank =  0   Radius =  0.325 angstrom
                   Q00  =   0.085527

H          x = -1.041891  y =  0.575003  z = -2.903351 angstrom
           Maximum rank =  0   Radius =  0.325 angstrom
                   Q00  =   0.030342

H          x = -2.101321  y =  1.673383  z = -1.943141 angstrom
           Maximum rank =  0   Radius =  0.325 angstrom
                   Q00  =   0.074862

Total multipoles referred to origin at
           x =   0.000000,  y =    0.000000,  z =    0.000000 angstrom
                   Q00  =  -1.000000

Finished at 14:40:59 on 27 Apr 2020

  DMA results are available in the Python driver through the
	  variable('DMA DISTRIBUTED MULTIPOLES')
  and
	  variable('DMA TOTAL MULTIPOLES')
  commands.

    Psi4 stopped on: Monday, 27 April 2020 02:40PM
    Psi4 wall time for execution: 0:01:23.79

*** Psi4 exiting successfully. Buy a developer a beer!
