                               Psi4 1.3.2 release

  ==> Input File <==

--------------------------------------------------------------------------
import numpy as np
set {scf_type pk
basis cc-pvdz
d_convergence 10
gdma_switch   0
gdma_limit    0
gdma_origin   [ 0.0,  0.0,  0.0 ]
}
molecule test {
    units Angstrom
    0 1
    --
    0 1
    C                0.830880812531735     0.177887917620494    -1.892811492433435
    C                2.295880812531735     0.656887917620494    -1.628811492433435
    H                0.699880812531735    -0.850112082379506    -1.553811492433435
    H                0.144880812531735     0.825887917620494    -1.348811492433435
    H                0.595880812531735     0.256887917620494    -2.947811492433436
    H                2.424880812531735     1.645887917620494    -2.062811492433435
    H                3.016700812531735    -0.046032082379506    -2.071895692433436
    H                2.485790812531735     0.712867917620494    -0.546775492433436
    C               -0.975119187468265    -0.522112082379506     1.267188507566565
    C               -2.151119187468265    -0.314112082379506     2.255188507566564
    H               -0.095119187468265     0.026887917620494     1.605188507566565
    H               -0.735119187468265    -1.584112082379506     1.204188507566565
    H               -1.266119187468265    -0.173112082379506     0.277188507566564
    H               -3.010119187468264    -0.874112082379506     1.887188507566564
    H               -2.385249187468265     0.760007917620494     2.293369507566565
    H               -1.882519187468265    -0.683702082379506     3.255815507566564

}
e, wfn = energy('scf', return_wfn=True)
gdma(wfn)
dmavals = variable('DMA DISTRIBUTED MULTIPOLES')
charges = np.array(dmavals)
print(charges)
np.save('SSI-111LEU-169LEU-1-dimer.npy', np.array(charges))--------------------------------------------------------------------------

*** tstart() called on ds3
*** at Mon Apr 27 13:22:49 2020

   => Loading Basis Set <=

    Name: CC-PVDZ
    Role: ORBITAL
    Keyword: BASIS
    atoms 1-2, 9-10  entry C          line   138 file /theoryfs2/ds/metcalf/miniconda2/envs/tf2gpu/share/psi4/basis/cc-pvdz.gbs
    atoms 3-8, 11-16 entry H          line    22 file /theoryfs2/ds/metcalf/miniconda2/envs/tf2gpu/share/psi4/basis/cc-pvdz.gbs

         ---------------------------------------------------------
                                   SCF
               by Justin Turney, Rob Parrish, Andy Simmonett
                          and Daniel G. A. Smith
                              RHF Reference
                        1 Threads,    500 MiB Core
         ---------------------------------------------------------

  ==> Geometry <==

    Molecular point group: c1
    Full point group: C1

    Geometry (in Angstrom), charge = 0, multiplicity = 1:

       Center              X                  Y                   Z               Mass
    ------------   -----------------  -----------------  -----------------  -----------------
         C            0.830880812532     0.177887917620    -1.892811492433    12.000000000000
         C            2.295880812532     0.656887917620    -1.628811492433    12.000000000000
         H            0.699880812532    -0.850112082380    -1.553811492433     1.007825032230
         H            0.144880812532     0.825887917620    -1.348811492433     1.007825032230
         H            0.595880812532     0.256887917620    -2.947811492433     1.007825032230
         H            2.424880812532     1.645887917620    -2.062811492433     1.007825032230
         H            3.016700812532    -0.046032082380    -2.071895692433     1.007825032230
         H            2.485790812532     0.712867917620    -0.546775492433     1.007825032230
         C           -0.975119187468    -0.522112082380     1.267188507567    12.000000000000
         C           -2.151119187468    -0.314112082380     2.255188507567    12.000000000000
         H           -0.095119187468     0.026887917620     1.605188507567     1.007825032230
         H           -0.735119187468    -1.584112082380     1.204188507567     1.007825032230
         H           -1.266119187468    -0.173112082380     0.277188507567     1.007825032230
         H           -3.010119187468    -0.874112082380     1.887188507567     1.007825032230
         H           -2.385249187468     0.760007917620     2.293369507567     1.007825032230
         H           -1.882519187468    -0.683702082380     3.255815507567     1.007825032230

  Running in c1 symmetry.

  Rotational constants: A =      0.59376  B =      0.04422  C =      0.04292 [cm^-1]
  Rotational constants: A =  17800.51161  B =   1325.73613  C =   1286.72288 [MHz]
  Nuclear repulsion =  120.521452583364393

  Charge       = 0
  Multiplicity = 1
  Electrons    = 36
  Nalpha       = 18
  Nbeta        = 18

  ==> Algorithm <==

  SCF Algorithm Type is PK.
  DIIS enabled.
  MOM disabled.
  Fractional occupation disabled.
  Guess Type is SAD.
  Energy threshold   = 1.00e-06
  Density threshold  = 1.00e-10
  Integral threshold = 0.00e+00

  ==> Primary Basis <==

  Basis Set: CC-PVDZ
    Blend: CC-PVDZ
    Number of shells: 60
    Number of basis function: 116
    Number of Cartesian functions: 120
    Spherical Harmonics?: true
    Max angular momentum: 2

  ==> Pre-Iterations <==

   -------------------------------------------------------
    Irrep   Nso     Nmo     Nalpha   Nbeta   Ndocc  Nsocc
   -------------------------------------------------------
     A        116     116       0       0       0       0
   -------------------------------------------------------
    Total     116     116      18      18      18       0
   -------------------------------------------------------

  ==> Integral Setup <==

  Using integral reordering PK algorithm.
  Sizing the integral batches needed.
  Building batch lookup table.
   Calculation information:
      Number of atoms:                  16
      Number of AO shells:              60
      Number of primitives:            148
      Number of atomic orbitals:       120
      Number of basis functions:       116

      Integral cutoff                 1.00e-12
      Number of threads:                 1

	Batch   1 pq = [       0,    6786] index = [             0,23028291] size =     23028291
  Task number: 3
  Buffer size: 11059200
  Buffer per thread: 2
  We computed 1387867 shell quartets total.
  Whereas there are 1675365 unique shell quartets.

  ==> DiskJK: Disk-Based J/K Matrices <==

    J tasked:                  Yes
    K tasked:                  Yes
    wK tasked:                  No
    Memory [MiB]:              375
    Schwarz Cutoff:          1E-12

    OpenMP threads:              1

  Minimum eigenvalue in the overlap matrix is 7.3525353982E-03.
  Using Symmetric Orthogonalization.

  SCF Guess: Superposition of Atomic Densities via on-the-fly atomic UHF.

  ==> Iterations <==

                        Total Energy        Delta E     RMS |[F,P]|

   @RHF iter SAD:  -157.26308103082064   -1.57263e+02   0.00000e+00
   @RHF iter   1:  -158.31201109822928   -1.04893e+00   4.12915e-03 DIIS
   @RHF iter   2:  -158.44176570685141   -1.29755e-01   1.73511e-03 DIIS
   @RHF iter   3:  -158.46377162133393   -2.20059e-02   3.44965e-04 DIIS
   @RHF iter   4:  -158.46555507699452   -1.78346e-03   3.85186e-05 DIIS
   @RHF iter   5:  -158.46557845358032   -2.33766e-05   6.66866e-06 DIIS
   @RHF iter   6:  -158.46557910799459   -6.54414e-07   1.19167e-06 DIIS
   @RHF iter   7:  -158.46557912189510   -1.39005e-08   3.29605e-07 DIIS
   @RHF iter   8:  -158.46557912291246   -1.01736e-09   4.02669e-08 DIIS
   @RHF iter   9:  -158.46557912293781   -2.53522e-11   7.82613e-09 DIIS
   @RHF iter  10:  -158.46557912293915   -1.33582e-12   1.95789e-09 DIIS
   @RHF iter  11:  -158.46557912293886    2.84217e-13   5.54246e-10 DIIS
   @RHF iter  12:  -158.46557912293895   -8.52651e-14   1.60529e-10 DIIS
   @RHF iter  13:  -158.46557912293866    2.84217e-13   2.31052e-11 DIIS
  Energy and wave function converged.

  ==> Post-Iterations <==

    Orbital Energies [Eh]
    ---------------------

    Doubly Occupied:

       1A    -11.221095     2A    -11.220608     3A    -11.217738
       4A    -11.217544     5A     -1.013595     6A     -1.009150
       7A     -0.841250     8A     -0.835201     9A     -0.598138
      10A     -0.597222    11A     -0.596262    12A     -0.589788
      13A     -0.498227    14A     -0.493068    15A     -0.490388
      16A     -0.489212    17A     -0.486760    18A     -0.479772

    Virtual:

      19A      0.173072    20A      0.193959    21A      0.226097
      22A      0.233840    23A      0.239255    24A      0.262419
      25A      0.266338    26A      0.274812    27A      0.280542
      28A      0.296020    29A      0.309732    30A      0.320182
      31A      0.383558    32A      0.396444    33A      0.564678
      34A      0.595151    35A      0.598328    36A      0.602927
      37A      0.618197    38A      0.631536    39A      0.677746
      40A      0.686328    41A      0.693008    42A      0.772237
      43A      0.827331    44A      0.862744    45A      0.884462
      46A      0.892861    47A      0.893115    48A      0.895630
      49A      0.897578    50A      0.909371    51A      0.913836
      52A      0.922298    53A      0.932841    54A      0.952447
      55A      0.974743    56A      0.981617    57A      1.120020
      58A      1.125146    59A      1.127722    60A      1.161606
      61A      1.224893    62A      1.246185    63A      1.463714
      64A      1.469033    65A      1.477238    66A      1.482846
      67A      1.569719    68A      1.581913    69A      1.675792
      70A      1.682047    71A      1.688782    72A      1.699296
      73A      1.854343    74A      1.864455    75A      1.869937
      76A      1.872618    77A      1.877400    78A      1.918335
      79A      1.934860    80A      1.935979    81A      1.938780
      82A      1.940811    83A      1.942211    84A      1.947892
      85A      1.952639    86A      1.960131    87A      1.973626
      88A      2.042246    89A      2.100175    90A      2.106631
      91A      2.112922    92A      2.118420    93A      2.281339
      94A      2.292620    95A      2.300813    96A      2.324730
      97A      2.446375    98A      2.452037    99A      2.457622
     100A      2.476509   101A      2.561002   102A      2.563347
     103A      2.569031   104A      2.574027   105A      2.760591
     106A      2.765837   107A      2.787482   108A      2.792003
     109A      2.832627   110A      2.837322   111A      2.845225
     112A      2.853612   113A      2.936347   114A      2.949087
     115A      2.957469   116A      2.963539

    Final Occupation by Irrep:
              A
    DOCC [    18 ]

  @RHF Final Energy:  -158.46557912293866

   => Energetics <=

    Nuclear Repulsion Energy =            120.5214525833643933
    One-Electron Energy =                -450.1840293659930694
    Two-Electron Energy =                 171.1969976596899983
    Total Energy =                       -158.4655791229386637

Computation Completed

Properties will be evaluated at   0.000000,   0.000000,   0.000000 [a0]

Properties computed using the SCF density matrix

  Nuclear Dipole Moment: [e a0]
     X:    -0.0058      Y:     0.0162      Z:    -0.0084

  Electronic Dipole Moment: [e a0]
     X:    -0.0045      Y:    -0.0168      Z:    -0.0058

  Dipole Moment: [e a0]
     X:    -0.0103      Y:    -0.0006      Z:    -0.0142     Total:     0.0176

  Dipole Moment: [D]
     X:    -0.0263      Y:    -0.0016      Z:    -0.0362     Total:     0.0448

*** tstop() called on ds3 at Mon Apr 27 13:23:02 2020
Module time:
	user time   =       9.35 seconds =       0.16 minutes
	system time =       4.23 seconds =       0.07 minutes
	total time  =         13 seconds =       0.22 minutes
Total time:
	user time   =       9.35 seconds =       0.16 minutes
	system time =       4.23 seconds =       0.07 minutes
	total time  =         13 seconds =       0.22 minutes
                                     G D M A

                                 by Anthony Stone

                           version 2.2.06, 22 June 2011

               Distributed Multipoles from Gaussian wavefunctions

Starting at 13:23:2 on 27 Apr 2020

Using SCF density matrix from file ./SSI/SSI-111LEU-169LEU-1-dimer.test.6389.fchk

                         Distributed Multipole Analysis

Standard DMA

Positions and radii in angstrom
Multipole moments in atomic units, ea_0^k for rank k

C          x =  0.830881  y =  0.177888  z = -1.892811 angstrom
           Maximum rank =  0   Radius =  0.650 angstrom
                   Q00  =  -0.241822

C          x =  2.295881  y =  0.656888  z = -1.628811 angstrom
           Maximum rank =  0   Radius =  0.650 angstrom
                   Q00  =  -0.250109

H          x =  0.699881  y = -0.850112  z = -1.553811 angstrom
           Maximum rank =  0   Radius =  0.325 angstrom
                   Q00  =   0.084122

H          x =  0.144881  y =  0.825888  z = -1.348811 angstrom
           Maximum rank =  0   Radius =  0.325 angstrom
                   Q00  =   0.080624

H          x =  0.595881  y =  0.256888  z = -2.947811 angstrom
           Maximum rank =  0   Radius =  0.325 angstrom
                   Q00  =   0.082197

H          x =  2.424881  y =  1.645888  z = -2.062811 angstrom
           Maximum rank =  0   Radius =  0.325 angstrom
                   Q00  =   0.082583

H          x =  3.016701  y = -0.046032  z = -2.071896 angstrom
           Maximum rank =  0   Radius =  0.325 angstrom
                   Q00  =   0.081255

H          x =  2.485791  y =  0.712868  z = -0.546775 angstrom
           Maximum rank =  0   Radius =  0.325 angstrom
                   Q00  =   0.080775

C          x = -0.975119  y = -0.522112  z =  1.267189 angstrom
           Maximum rank =  0   Radius =  0.650 angstrom
                   Q00  =  -0.244456

C          x = -2.151119  y = -0.314112  z =  2.255189 angstrom
           Maximum rank =  0   Radius =  0.650 angstrom
                   Q00  =  -0.239886

H          x = -0.095119  y =  0.026888  z =  1.605189 angstrom
           Maximum rank =  0   Radius =  0.325 angstrom
                   Q00  =   0.080010

H          x = -0.735119  y = -1.584112  z =  1.204189 angstrom
           Maximum rank =  0   Radius =  0.325 angstrom
                   Q00  =   0.079435

H          x = -1.266119  y = -0.173112  z =  0.277189 angstrom
           Maximum rank =  0   Radius =  0.325 angstrom
                   Q00  =   0.083032

H          x = -3.010119  y = -0.874112  z =  1.887189 angstrom
           Maximum rank =  0   Radius =  0.325 angstrom
                   Q00  =   0.081411

H          x = -2.385249  y =  0.760008  z =  2.293370 angstrom
           Maximum rank =  0   Radius =  0.325 angstrom
                   Q00  =   0.079606

H          x = -1.882519  y = -0.683702  z =  3.255816 angstrom
           Maximum rank =  0   Radius =  0.325 angstrom
                   Q00  =   0.081222

Total multipoles referred to origin at
           x =   0.000000,  y =    0.000000,  z =    0.000000 angstrom
                   Q00  =  -0.000000

Finished at 13:23:2 on 27 Apr 2020

  DMA results are available in the Python driver through the
	  variable('DMA DISTRIBUTED MULTIPOLES')
  and
	  variable('DMA TOTAL MULTIPOLES')
  commands.

    Psi4 stopped on: Monday, 27 April 2020 01:23PM
    Psi4 wall time for execution: 0:00:13.25

*** Psi4 exiting successfully. Buy a developer a beer!
