                               Psi4 1.3.2 release

  ==> Input File <==

--------------------------------------------------------------------------
import numpy as np
set {scf_type pk
basis cc-pvdz
d_convergence 10
gdma_switch   0
gdma_limit    0
gdma_origin   [ 0.0,  0.0,  0.0 ]
}
molecule test {
    units Angstrom
    1 1
    --
    1 1
    C                1.138596733906790     0.077609644685424    -2.240752464545201
    C                0.870596733906790     0.900609644685424     0.088247535454799
    N                1.319596733906790    -0.023390355314576    -0.769752464545201
    N                0.240596733906790     1.963609644685425    -0.357752464545201
    N                1.016596733906790     0.772609644685424     1.390247535454799
    H                1.837596733906790    -0.807390355314576    -0.398752464545201
    H                0.147596733906790     2.109609644685424    -1.347752464545200
    H               -0.103403266093210     2.660609644685424     0.283247535454799
    H                1.482596733906790    -0.035390355314576     1.768247535454799
    H                0.673596733906790     1.483609644685424     2.016247535454800
    H                1.910596733906790     0.745609644685424    -2.628752464545201
    H                0.167596733906790     0.514609644685424    -2.481752464545201
    H                1.219676733906790    -0.873324355314576    -2.787702464545200
    C               -1.551403266093210    -1.522390355314575     1.016247535454799
    C               -2.949403266093210    -2.172390355314576     0.832247535454799
    H               -0.816403266093210    -2.283390355314576     1.281247535454799
    H               -1.256403266093211    -1.049390355314576     0.081247535454799
    H               -1.591403266093210    -0.767390355314576     1.802247535454799
    H               -2.860403266093210    -2.958390355314576     0.083247535454799
    H               -3.225013266093210    -2.624301355314576     1.796517535454799
    H               -3.721843266093211    -1.462444355314575     0.501617535454799

}
e, wfn = energy('scf', return_wfn=True)
gdma(wfn)
dmavals = variable('DMA DISTRIBUTED MULTIPOLES')
charges = np.array(dmavals)
print(charges)
np.save('SSI-009ARG-092LEU-1-dimer.npy', np.array(charges))--------------------------------------------------------------------------

*** tstart() called on ds3
*** at Sun Apr 26 21:56:35 2020

   => Loading Basis Set <=

    Name: CC-PVDZ
    Role: ORBITAL
    Keyword: BASIS
    atoms 1-2, 14-15  entry C          line   138 file /theoryfs2/ds/metcalf/miniconda2/envs/tf2gpu/share/psi4/basis/cc-pvdz.gbs
    atoms 3-5         entry N          line   168 file /theoryfs2/ds/metcalf/miniconda2/envs/tf2gpu/share/psi4/basis/cc-pvdz.gbs
    atoms 6-13, 16-21 entry H          line    22 file /theoryfs2/ds/metcalf/miniconda2/envs/tf2gpu/share/psi4/basis/cc-pvdz.gbs

         ---------------------------------------------------------
                                   SCF
               by Justin Turney, Rob Parrish, Andy Simmonett
                          and Daniel G. A. Smith
                              RHF Reference
                        1 Threads,    500 MiB Core
         ---------------------------------------------------------

  ==> Geometry <==

    Molecular point group: c1
    Full point group: C1

    Geometry (in Angstrom), charge = 1, multiplicity = 1:

       Center              X                  Y                   Z               Mass
    ------------   -----------------  -----------------  -----------------  -----------------
         C            1.138596733907     0.077609644685    -2.240752464545    12.000000000000
         C            0.870596733907     0.900609644685     0.088247535455    12.000000000000
         N            1.319596733907    -0.023390355315    -0.769752464545    14.003074004430
         N            0.240596733907     1.963609644685    -0.357752464545    14.003074004430
         N            1.016596733907     0.772609644685     1.390247535455    14.003074004430
         H            1.837596733907    -0.807390355315    -0.398752464545     1.007825032230
         H            0.147596733907     2.109609644685    -1.347752464545     1.007825032230
         H           -0.103403266093     2.660609644685     0.283247535455     1.007825032230
         H            1.482596733907    -0.035390355315     1.768247535455     1.007825032230
         H            0.673596733907     1.483609644685     2.016247535455     1.007825032230
         H            1.910596733907     0.745609644685    -2.628752464545     1.007825032230
         H            0.167596733907     0.514609644685    -2.481752464545     1.007825032230
         H            1.219676733907    -0.873324355315    -2.787702464545     1.007825032230
         C           -1.551403266093    -1.522390355315     1.016247535455    12.000000000000
         C           -2.949403266093    -2.172390355315     0.832247535455    12.000000000000
         H           -0.816403266093    -2.283390355315     1.281247535455     1.007825032230
         H           -1.256403266093    -1.049390355315     0.081247535455     1.007825032230
         H           -1.591403266093    -0.767390355315     1.802247535455     1.007825032230
         H           -2.860403266093    -2.958390355315     0.083247535455     1.007825032230
         H           -3.225013266093    -2.624301355315     1.796517535455     1.007825032230
         H           -3.721843266093    -1.462444355315     0.501617535455     1.007825032230

  Running in c1 symmetry.

  Rotational constants: A =      0.09378  B =      0.03562  C =      0.03071 [cm^-1]
  Rotational constants: A =   2811.45408  B =   1067.90456  C =    920.68848 [MHz]
  Nuclear repulsion =  323.359788837885219

  Charge       = 1
  Multiplicity = 1
  Electrons    = 58
  Nalpha       = 29
  Nbeta        = 29

  ==> Algorithm <==

  SCF Algorithm Type is PK.
  DIIS enabled.
  MOM disabled.
  Fractional occupation disabled.
  Guess Type is SAD.
  Energy threshold   = 1.00e-06
  Density threshold  = 1.00e-10
  Integral threshold = 0.00e+00

  ==> Primary Basis <==

  Basis Set: CC-PVDZ
    Blend: CC-PVDZ
    Number of shells: 84
    Number of basis function: 168
    Number of Cartesian functions: 175
    Spherical Harmonics?: true
    Max angular momentum: 2

  ==> Pre-Iterations <==

   -------------------------------------------------------
    Irrep   Nso     Nmo     Nalpha   Nbeta   Ndocc  Nsocc
   -------------------------------------------------------
     A        168     168       0       0       0       0
   -------------------------------------------------------
    Total     168     168      29      29      29       0
   -------------------------------------------------------

  ==> Integral Setup <==

  Using integral reordering PK algorithm.
  Sizing the integral batches needed.
  Building batch lookup table.
   Calculation information:
      Number of atoms:                  21
      Number of AO shells:              84
      Number of primitives:            224
      Number of atomic orbitals:       175
      Number of basis functions:       168

      Integral cutoff                 1.00e-12
      Number of threads:                 1

	Batch   1 pq = [       0,    9405] index = [             0,44231715] size =     44231715
	Batch   2 pq = [    9405,   13301] index = [      44231715,88464951] size =     44233236
	Batch   3 pq = [   13301,   14196] index = [      88464951,100770306] size =     12305355
  Task number: 10
  Buffer size: 11059200
  Buffer per thread: 2
  We computed 5693837 shell quartets total.
  Whereas there are 6374235 unique shell quartets.

  ==> DiskJK: Disk-Based J/K Matrices <==

    J tasked:                  Yes
    K tasked:                  Yes
    wK tasked:                  No
    Memory [MiB]:              375
    Schwarz Cutoff:          1E-12

    OpenMP threads:              1

  Minimum eigenvalue in the overlap matrix is 3.4377452003E-03.
  Using Symmetric Orthogonalization.

  SCF Guess: Superposition of Atomic Densities via on-the-fly atomic UHF.

  ==> Iterations <==

                        Total Energy        Delta E     RMS |[F,P]|

   @RHF iter SAD:  -322.05234094309202   -3.22052e+02   0.00000e+00
   @RHF iter   1:  -322.61549391543059   -5.63153e-01   3.39776e-03 DIIS
   @RHF iter   2:  -322.78550519737109   -1.70011e-01   1.33310e-03 DIIS
   @RHF iter   3:  -322.81035819895362   -2.48530e-02   3.19599e-04 DIIS
   @RHF iter   4:  -322.81275445632275   -2.39626e-03   5.22205e-05 DIIS
   @RHF iter   5:  -322.81282029133752   -6.58350e-05   2.11294e-05 DIIS
   @RHF iter   6:  -322.81282965341961   -9.36208e-06   4.38532e-06 DIIS
   @RHF iter   7:  -322.81283030101639   -6.47597e-07   1.46975e-06 DIIS
   @RHF iter   8:  -322.81283034933375   -4.83174e-08   4.60202e-07 DIIS
   @RHF iter   9:  -322.81283035414458   -4.81083e-09   9.49897e-08 DIIS
   @RHF iter  10:  -322.81283035440134   -2.56762e-10   3.10077e-08 DIIS
   @RHF iter  11:  -322.81283035442561   -2.42721e-11   6.92966e-09 DIIS
   @RHF iter  12:  -322.81283035442539    2.27374e-13   2.76712e-09 DIIS
   @RHF iter  13:  -322.81283035442709   -1.70530e-12   9.15808e-10 DIIS
   @RHF iter  14:  -322.81283035442590    1.19371e-12   2.93226e-10 DIIS
   @RHF iter  15:  -322.81283035442664   -7.38964e-13   5.80882e-11 DIIS
  Energy and wave function converged.

  ==> Post-Iterations <==

    Orbital Energies [Eh]
    ---------------------

    Doubly Occupied:

       1A    -15.788527     2A    -15.787378     3A    -15.787155
       4A    -11.590469     5A    -11.445079     6A    -11.334369
       7A    -11.318992     8A     -1.544965     9A     -1.399575
      10A     -1.391531    11A     -1.138141    12A     -1.120368
      13A     -1.040940    14A     -0.980865    15A     -0.945776
      16A     -0.942370    17A     -0.859050    18A     -0.856518
      19A     -0.823235    20A     -0.794971    21A     -0.742736
      22A     -0.724133    23A     -0.705184    24A     -0.702470
      25A     -0.618955    26A     -0.603800    27A     -0.595955
      28A     -0.590010    29A     -0.582449

    Virtual:

      30A     -0.011303    31A      0.023790    32A      0.025702
      33A      0.030953    34A      0.061665    35A      0.076857
      36A      0.091432    37A      0.109488    38A      0.118340
      39A      0.128475    40A      0.147427    41A      0.153167
      42A      0.157506    43A      0.182692    44A      0.186956
      45A      0.207022    46A      0.261625    47A      0.292037
      48A      0.329839    49A      0.339730    50A      0.440065
      51A      0.467522    52A      0.470487    53A      0.481618
      54A      0.493154    55A      0.516380    56A      0.524724
      57A      0.531121    58A      0.543011    59A      0.560109
      60A      0.589472    61A      0.590188    62A      0.670730
      63A      0.683626    64A      0.702149    65A      0.705513
      66A      0.711923    67A      0.736878    68A      0.744853
      69A      0.755655    70A      0.786981    71A      0.787662
      72A      0.797337    73A      0.797799    74A      0.803293
      75A      0.825981    76A      0.843522    77A      0.859296
      78A      0.871423    79A      0.892160    80A      0.908884
      81A      0.929136    82A      0.944259    83A      1.000457
      84A      1.014464    85A      1.032739    86A      1.051832
      87A      1.100847    88A      1.122862    89A      1.140059
      90A      1.163481    91A      1.199489    92A      1.209646
      93A      1.226136    94A      1.291362    95A      1.352881
      96A      1.367819    97A      1.377033    98A      1.468273
      99A      1.472576   100A      1.494649   101A      1.531081
     102A      1.555227   103A      1.579204   104A      1.582172
     105A      1.589879   106A      1.611292   107A      1.659211
     108A      1.677472   109A      1.716038   110A      1.726805
     111A      1.752743   112A      1.759013   113A      1.766525
     114A      1.776184   115A      1.782183   116A      1.791845
     117A      1.812018   118A      1.825529   119A      1.838083
     120A      1.846850   121A      1.851209   122A      1.852356
     123A      1.882242   124A      1.900022   125A      1.915229
     126A      1.974620   127A      2.003286   128A      2.026095
     129A      2.034734   130A      2.056547   131A      2.120988
     132A      2.138086   133A      2.158456   134A      2.180947
     135A      2.220722   136A      2.232879   137A      2.269848
     138A      2.300615   139A      2.322889   140A      2.335919
     141A      2.341198   142A      2.363583   143A      2.382440
     144A      2.426413   145A      2.442805   146A      2.463632
     147A      2.477987   148A      2.537056   149A      2.575376
     150A      2.609348   151A      2.616734   152A      2.666096
     153A      2.680977   154A      2.717294   155A      2.734314
     156A      2.742338   157A      2.747749   158A      2.770728
     159A      2.822836   160A      2.830394   161A      2.845254
     162A      2.857615   163A      2.882713   164A      3.067542
     165A      3.098577   166A      3.138889   167A      3.545409
     168A      3.669116

    Final Occupation by Irrep:
              A
    DOCC [    29 ]

  @RHF Final Energy:  -322.81283035442664

   => Energetics <=

    Nuclear Repulsion Energy =            323.3597888378852190
    One-Electron Energy =               -1066.8333009346313247
    Two-Electron Energy =                 420.6606817423195253
    Total Energy =                       -322.8128303544266373

Computation Completed

Properties will be evaluated at   0.000000,   0.000000,   0.000000 [a0]

Properties computed using the SCF density matrix

  Nuclear Dipole Moment: [e a0]
     X:    -5.7594      Y:    -5.0209      Z:    -0.0297

  Electronic Dipole Moment: [e a0]
     X:     7.2673      Y:     6.5189      Z:    -0.1241

  Dipole Moment: [e a0]
     X:     1.5078      Y:     1.4980      Z:    -0.1538     Total:     2.1310

  Dipole Moment: [D]
     X:     3.8325      Y:     3.8076      Z:    -0.3909     Total:     5.4166

*** tstop() called on ds3 at Sun Apr 26 21:57:24 2020
Module time:
	user time   =      35.91 seconds =       0.60 minutes
	system time =      14.95 seconds =       0.25 minutes
	total time  =         49 seconds =       0.82 minutes
Total time:
	user time   =      35.91 seconds =       0.60 minutes
	system time =      14.95 seconds =       0.25 minutes
	total time  =         49 seconds =       0.82 minutes
                                     G D M A

                                 by Anthony Stone

                           version 2.2.06, 22 June 2011

               Distributed Multipoles from Gaussian wavefunctions

Starting at 21:57:24 on 26 Apr 2020

Using SCF density matrix from file ./SSI/SSI-009ARG-092LEU-1-dimer.test.26321.fchk

                         Distributed Multipole Analysis

Standard DMA

Positions and radii in angstrom
Multipole moments in atomic units, ea_0^k for rank k

C          x =  1.138597  y =  0.077610  z = -2.240752 angstrom
           Maximum rank =  0   Radius =  0.650 angstrom
                   Q00  =  -0.126581

C          x =  0.870597  y =  0.900610  z =  0.088248 angstrom
           Maximum rank =  0   Radius =  0.650 angstrom
                   Q00  =   1.071862

N          x =  1.319597  y = -0.023390  z = -0.769752 angstrom
           Maximum rank =  0   Radius =  0.650 angstrom
                   Q00  =  -0.500944

N          x =  0.240597  y =  1.963610  z = -0.357752 angstrom
           Maximum rank =  0   Radius =  0.650 angstrom
                   Q00  =  -0.574587

N          x =  1.016597  y =  0.772610  z =  1.390248 angstrom
           Maximum rank =  0   Radius =  0.650 angstrom
                   Q00  =  -0.583945

H          x =  1.837597  y = -0.807390  z = -0.398752 angstrom
           Maximum rank =  0   Radius =  0.325 angstrom
                   Q00  =   0.242195

H          x =  0.147597  y =  2.109610  z = -1.347752 angstrom
           Maximum rank =  0   Radius =  0.325 angstrom
                   Q00  =   0.268536

H          x = -0.103403  y =  2.660610  z =  0.283248 angstrom
           Maximum rank =  0   Radius =  0.325 angstrom
                   Q00  =   0.267429

H          x =  1.482597  y = -0.035390  z =  1.768248 angstrom
           Maximum rank =  0   Radius =  0.325 angstrom
                   Q00  =   0.266345

H          x =  0.673597  y =  1.483610  z =  2.016248 angstrom
           Maximum rank =  0   Radius =  0.325 angstrom
                   Q00  =   0.268453

H          x =  1.910597  y =  0.745610  z = -2.628752 angstrom
           Maximum rank =  0   Radius =  0.325 angstrom
                   Q00  =   0.122253

H          x =  0.167597  y =  0.514610  z = -2.481752 angstrom
           Maximum rank =  0   Radius =  0.325 angstrom
                   Q00  =   0.111388

H          x =  1.219677  y = -0.873324  z = -2.787702 angstrom
           Maximum rank =  0   Radius =  0.325 angstrom
                   Q00  =   0.170699

C          x = -1.551403  y = -1.522390  z =  1.016248 angstrom
           Maximum rank =  0   Radius =  0.650 angstrom
                   Q00  =  -0.275114

C          x = -2.949403  y = -2.172390  z =  0.832248 angstrom
           Maximum rank =  0   Radius =  0.650 angstrom
                   Q00  =  -0.220614

H          x = -0.816403  y = -2.283390  z =  1.281248 angstrom
           Maximum rank =  0   Radius =  0.325 angstrom
                   Q00  =   0.086770

H          x = -1.256403  y = -1.049390  z =  0.081248 angstrom
           Maximum rank =  0   Radius =  0.325 angstrom
                   Q00  =   0.050713

H          x = -1.591403  y = -0.767390  z =  1.802248 angstrom
           Maximum rank =  0   Radius =  0.325 angstrom
                   Q00  =   0.074285

H          x = -2.860403  y = -2.958390  z =  0.083248 angstrom
           Maximum rank =  0   Radius =  0.325 angstrom
                   Q00  =   0.091509

H          x = -3.225013  y = -2.624301  z =  1.796518 angstrom
           Maximum rank =  0   Radius =  0.325 angstrom
                   Q00  =   0.097044

H          x = -3.721843  y = -1.462444  z =  0.501618 angstrom
           Maximum rank =  0   Radius =  0.325 angstrom
                   Q00  =   0.092305

Total multipoles referred to origin at
           x =   0.000000,  y =    0.000000,  z =    0.000000 angstrom
                   Q00  =   1.000000

Finished at 21:57:24 on 26 Apr 2020

  DMA results are available in the Python driver through the
	  variable('DMA DISTRIBUTED MULTIPOLES')
  and
	  variable('DMA TOTAL MULTIPOLES')
  commands.

    Psi4 stopped on: Sunday, 26 April 2020 09:57PM
    Psi4 wall time for execution: 0:00:49.39

*** Psi4 exiting successfully. Buy a developer a beer!
