                               Psi4 1.3.2 release

  ==> Input File <==

--------------------------------------------------------------------------
import numpy as np
set {scf_type pk
basis cc-pvdz
d_convergence 10
gdma_switch   0
gdma_limit    0
gdma_origin   [ 0.0,  0.0,  0.0 ]
}
molecule test {
    units Angstrom
    0 1
    --
    0 1
    C               -0.150753435888535    -0.964316593535937    -1.076825078568346
    C               -0.463753435888536    -2.305316593535938    -1.734825078568346
    C               -1.390753435888535    -0.345316593535937    -0.441825078568346
    O               -2.513753435888536    -0.821316593535937    -0.693825078568346
    O               -1.246753435888535     0.628683406464063     0.328174921431654
    H                0.595246564111464    -1.102316593535937    -0.292825078568346
    H                0.257246564111465    -0.284316593535937    -1.827825078568345
    H               -1.187753435888536    -2.156316593535938    -2.537825078568346
    H               -0.898753435888536    -2.972316593535937    -0.988825078568346
    H                0.425506564111464    -2.791156593535937    -2.162825078568346
    C                1.897246564111464     1.549683406464063     0.644174921431654
    C                3.003246564111465     0.626683406464063     1.057174921431654
    N                0.784246564111464     1.455683406464062     1.639174921431654
    H                2.268246564111464     2.576683406464063     0.564174921431654
    H                1.537246564111465     1.237683406464062    -0.341825078568346
    H                2.602246564111464    -0.376316593535937     1.226174921431654
    H                3.454246564111464     0.991683406464063     1.982174921431654
    H                0.890246564111464     2.125683406464062     2.390174921431654
    H               -0.115753435888535     1.608683406464062     1.183174921431654
    H                0.716246564111464     0.532683406464063     2.046174921431654
    H                3.768116564111464     0.570053406464063     0.268654921431654

}
e, wfn = energy('scf', return_wfn=True)
gdma(wfn)
dmavals = variable('DMA DISTRIBUTED MULTIPOLES')
charges = np.array(dmavals)
print(charges)
np.save('SSI-015GLU-019LYS-1-dimer.npy', np.array(charges))--------------------------------------------------------------------------

*** tstart() called on ds3
*** at Mon Apr 27 12:46:47 2020

   => Loading Basis Set <=

    Name: CC-PVDZ
    Role: ORBITAL
    Keyword: BASIS
    atoms 1-3, 11-12  entry C          line   138 file /theoryfs2/ds/metcalf/miniconda2/envs/tf2gpu/share/psi4/basis/cc-pvdz.gbs
    atoms 4-5         entry O          line   198 file /theoryfs2/ds/metcalf/miniconda2/envs/tf2gpu/share/psi4/basis/cc-pvdz.gbs
    atoms 6-10, 14-21 entry H          line    22 file /theoryfs2/ds/metcalf/miniconda2/envs/tf2gpu/share/psi4/basis/cc-pvdz.gbs
    atoms 13          entry N          line   168 file /theoryfs2/ds/metcalf/miniconda2/envs/tf2gpu/share/psi4/basis/cc-pvdz.gbs

         ---------------------------------------------------------
                                   SCF
               by Justin Turney, Rob Parrish, Andy Simmonett
                          and Daniel G. A. Smith
                              RHF Reference
                        1 Threads,    500 MiB Core
         ---------------------------------------------------------

  ==> Geometry <==

    Molecular point group: c1
    Full point group: C1

    Geometry (in Angstrom), charge = 0, multiplicity = 1:

       Center              X                  Y                   Z               Mass
    ------------   -----------------  -----------------  -----------------  -----------------
         C           -0.150753435889    -0.964316593536    -1.076825078568    12.000000000000
         C           -0.463753435889    -2.305316593536    -1.734825078568    12.000000000000
         C           -1.390753435889    -0.345316593536    -0.441825078568    12.000000000000
         O           -2.513753435889    -0.821316593536    -0.693825078568    15.994914619570
         O           -1.246753435889     0.628683406464     0.328174921432    15.994914619570
         H            0.595246564111    -1.102316593536    -0.292825078568     1.007825032230
         H            0.257246564111    -0.284316593536    -1.827825078568     1.007825032230
         H           -1.187753435889    -2.156316593536    -2.537825078568     1.007825032230
         H           -0.898753435889    -2.972316593536    -0.988825078568     1.007825032230
         H            0.425506564111    -2.791156593536    -2.162825078568     1.007825032230
         C            1.897246564111     1.549683406464     0.644174921432    12.000000000000
         C            3.003246564111     0.626683406464     1.057174921432    12.000000000000
         N            0.784246564111     1.455683406464     1.639174921432    14.003074004430
         H            2.268246564111     2.576683406464     0.564174921432     1.007825032230
         H            1.537246564111     1.237683406464    -0.341825078568     1.007825032230
         H            2.602246564111    -0.376316593536     1.226174921432     1.007825032230
         H            3.454246564111     0.991683406464     1.982174921432     1.007825032230
         H            0.890246564111     2.125683406464     2.390174921432     1.007825032230
         H           -0.115753435889     1.608683406464     1.183174921432     1.007825032230
         H            0.716246564111     0.532683406464     2.046174921432     1.007825032230
         H            3.768116564111     0.570053406464     0.268654921432     1.007825032230

  Running in c1 symmetry.

  Rotational constants: A =      0.09585  B =      0.03089  C =      0.02453 [cm^-1]
  Rotational constants: A =   2873.54122  B =    926.17974  C =    735.48213 [MHz]
  Nuclear repulsion =  394.420562902410040

  Charge       = 0
  Multiplicity = 1
  Electrons    = 66
  Nalpha       = 33
  Nbeta        = 33

  ==> Algorithm <==

  SCF Algorithm Type is PK.
  DIIS enabled.
  MOM disabled.
  Fractional occupation disabled.
  Guess Type is SAD.
  Energy threshold   = 1.00e-06
  Density threshold  = 1.00e-10
  Integral threshold = 0.00e+00

  ==> Primary Basis <==

  Basis Set: CC-PVDZ
    Blend: CC-PVDZ
    Number of shells: 87
    Number of basis function: 177
    Number of Cartesian functions: 185
    Spherical Harmonics?: true
    Max angular momentum: 2

  ==> Pre-Iterations <==

   -------------------------------------------------------
    Irrep   Nso     Nmo     Nalpha   Nbeta   Ndocc  Nsocc
   -------------------------------------------------------
     A        177     177       0       0       0       0
   -------------------------------------------------------
    Total     177     177      33      33      33       0
   -------------------------------------------------------

  ==> Integral Setup <==

  Using integral reordering PK algorithm.
  Sizing the integral batches needed.
  Building batch lookup table.
   Calculation information:
      Number of atoms:                  21
      Number of AO shells:              87
      Number of primitives:            241
      Number of atomic orbitals:       185
      Number of basis functions:       177

      Integral cutoff                 1.00e-12
      Number of threads:                 1

	Batch   1 pq = [       0,    9405] index = [             0,44231715] size =     44231715
	Batch   2 pq = [    9405,   13301] index = [      44231715,88464951] size =     44233236
	Batch   3 pq = [   13301,   15753] index = [      88464951,124086381] size =     35621430
  Task number: 12
  Buffer size: 11059200
  Buffer per thread: 2
  We computed 6562710 shell quartets total.
  Whereas there are 7328706 unique shell quartets.

  ==> DiskJK: Disk-Based J/K Matrices <==

    J tasked:                  Yes
    K tasked:                  Yes
    wK tasked:                  No
    Memory [MiB]:              375
    Schwarz Cutoff:          1E-12

    OpenMP threads:              1

  Minimum eigenvalue in the overlap matrix is 3.5627967633E-03.
  Using Symmetric Orthogonalization.

  SCF Guess: Superposition of Atomic Densities via on-the-fly atomic UHF.

  ==> Iterations <==

                        Total Energy        Delta E     RMS |[F,P]|

   @RHF iter SAD:  -399.87376545839993   -3.99874e+02   0.00000e+00
   @RHF iter   1:  -400.78302604008087   -9.09261e-01   4.17550e-03 DIIS
   @RHF iter   2:  -401.00854874686922   -2.25523e-01   2.25953e-03 DIIS
   @RHF iter   3:  -401.06833123824015   -5.97825e-02   4.26873e-04 DIIS
   @RHF iter   4:  -401.07194694438761   -3.61571e-03   1.67587e-04 DIIS
   @RHF iter   5:  -401.07245313543194   -5.06191e-04   3.19483e-05 DIIS
   @RHF iter   6:  -401.07247754758112   -2.44121e-05   1.58166e-05 DIIS
   @RHF iter   7:  -401.07248212910224   -4.58152e-06   3.78605e-06 DIIS
   @RHF iter   8:  -401.07248282655792   -6.97456e-07   1.78559e-06 DIIS
   @RHF iter   9:  -401.07248297752596   -1.50968e-07   5.48061e-07 DIIS
   @RHF iter  10:  -401.07248299218907   -1.46631e-08   1.55581e-07 DIIS
   @RHF iter  11:  -401.07248299319826   -1.00920e-09   3.56264e-08 DIIS
   @RHF iter  12:  -401.07248299324664   -4.83737e-11   8.41282e-09 DIIS
   @RHF iter  13:  -401.07248299324817   -1.53477e-12   2.04784e-09 DIIS
   @RHF iter  14:  -401.07248299324993   -1.76215e-12   7.26396e-10 DIIS
   @RHF iter  15:  -401.07248299325016   -2.27374e-13   2.38335e-10 DIIS
   @RHF iter  16:  -401.07248299325022   -5.68434e-14   9.26605e-11 DIIS
  Energy and wave function converged.

  ==> Post-Iterations <==

    Orbital Energies [Eh]
    ---------------------

    Doubly Occupied:

       1A    -20.430739     2A    -20.409495     3A    -15.721228
       4A    -11.340869     5A    -11.286629     6A    -11.269658
       7A    -11.195802     8A    -11.184297     9A     -1.353984
      10A     -1.313223    11A     -1.197120    12A     -1.092709
      13A     -1.000956    14A     -0.919363    15A     -0.832412
      16A     -0.818085    17A     -0.793844    18A     -0.714171
      19A     -0.670535    20A     -0.652967    21A     -0.599976
      22A     -0.592719    23A     -0.584793    24A     -0.576043
      25A     -0.558356    26A     -0.536152    27A     -0.495482
      28A     -0.489387    29A     -0.460149    30A     -0.447870
      31A     -0.346837    32A     -0.324616    33A     -0.321365

    Virtual:

      34A      0.104451    35A      0.151286    36A      0.155015
      37A      0.191232    38A      0.204609    39A      0.216992
      40A      0.228777    41A      0.241020    42A      0.275498
      43A      0.286822    44A      0.291627    45A      0.298149
      46A      0.306828    47A      0.331002    48A      0.342315
      49A      0.368654    50A      0.427957    51A      0.462651
      52A      0.525346    53A      0.543926    54A      0.554706
      55A      0.561103    56A      0.576696    57A      0.592213
      58A      0.622756    59A      0.642500    60A      0.705391
      61A      0.724917    62A      0.749140    63A      0.773506
      64A      0.783916    65A      0.797888    66A      0.816204
      67A      0.819052    68A      0.832210    69A      0.842644
      70A      0.849134    71A      0.871048    72A      0.880314
      73A      0.892080    74A      0.911915    75A      0.920527
      76A      0.934014    77A      0.941493    78A      0.955200
      79A      0.959409    80A      0.967685    81A      0.977265
      82A      1.003814    83A      1.027388    84A      1.040778
      85A      1.064014    86A      1.080098    87A      1.121724
      88A      1.158845    89A      1.182290    90A      1.208556
      91A      1.310472    92A      1.340538    93A      1.350908
      94A      1.391924    95A      1.393408    96A      1.409250
      97A      1.451195    98A      1.487931    99A      1.500202
     100A      1.519970   101A      1.526710   102A      1.575960
     103A      1.582898   104A      1.621753   105A      1.637315
     106A      1.677112   107A      1.708246   108A      1.729849
     109A      1.753133   110A      1.764429   111A      1.814142
     112A      1.815568   113A      1.847683   114A      1.856198
     115A      1.874140   116A      1.888186   117A      1.901017
     118A      1.913161   119A      1.922381   120A      1.943159
     121A      1.951689   122A      1.973002   123A      1.999244
     124A      2.005011   125A      2.018202   126A      2.038195
     127A      2.054085   128A      2.065425   129A      2.078022
     130A      2.099995   131A      2.112411   132A      2.133794
     133A      2.159083   134A      2.175601   135A      2.209101
     136A      2.241514   137A      2.250716   138A      2.290260
     139A      2.300918   140A      2.352793   141A      2.355704
     142A      2.396756   143A      2.419086   144A      2.427911
     145A      2.451111   146A      2.481227   147A      2.505184
     148A      2.536460   149A      2.588167   150A      2.601768
     151A      2.645361   152A      2.657241   153A      2.704608
     154A      2.715240   155A      2.757117   156A      2.776654
     157A      2.807522   158A      2.816948   159A      2.873651
     160A      2.884241   161A      2.893307   162A      2.958185
     163A      2.967122   164A      3.004113   165A      3.008525
     166A      3.085504   167A      3.138135   168A      3.150083
     169A      3.214347   170A      3.295465   171A      3.357297
     172A      3.488946   173A      3.630683   174A      3.667115
     175A      3.928215   176A      3.967083   177A      4.065020

    Final Occupation by Irrep:
              A
    DOCC [    33 ]

  @RHF Final Energy:  -401.07248299325022

   => Energetics <=

    Nuclear Repulsion Energy =            394.4205629024100404
    One-Electron Energy =               -1329.9224316744284806
    Two-Electron Energy =                 534.4293857787682782
    Total Energy =                       -401.0724829932502189

Computation Completed

Properties will be evaluated at   0.000000,   0.000000,   0.000000 [a0]

Properties computed using the SCF density matrix

  Nuclear Dipole Moment: [e a0]
     X:    13.3970      Y:    -0.0423      Z:     1.4079

  Electronic Dipole Moment: [e a0]
     X:    -8.7536      Y:     2.1710      Z:     0.9134

  Dipole Moment: [e a0]
     X:     4.6434      Y:     2.1288      Z:     2.3213     Total:     5.6108

  Dipole Moment: [D]
     X:    11.8024      Y:     5.4108      Z:     5.9001     Total:    14.2613

*** tstop() called on ds3 at Mon Apr 27 12:47:58 2020
Module time:
	user time   =      52.49 seconds =       0.87 minutes
	system time =      21.72 seconds =       0.36 minutes
	total time  =         71 seconds =       1.18 minutes
Total time:
	user time   =      52.49 seconds =       0.87 minutes
	system time =      21.72 seconds =       0.36 minutes
	total time  =         71 seconds =       1.18 minutes
                                     G D M A

                                 by Anthony Stone

                           version 2.2.06, 22 June 2011

               Distributed Multipoles from Gaussian wavefunctions

Starting at 12:47:58 on 27 Apr 2020

Using SCF density matrix from file ./SSI/SSI-015GLU-019LYS-1-dimer.test.4038.fchk

                         Distributed Multipole Analysis

Standard DMA

Positions and radii in angstrom
Multipole moments in atomic units, ea_0^k for rank k

C          x = -0.150753  y = -0.964317  z = -1.076825 angstrom
           Maximum rank =  0   Radius =  0.650 angstrom
                   Q00  =  -0.196648

C          x = -0.463753  y = -2.305317  z = -1.734825 angstrom
           Maximum rank =  0   Radius =  0.650 angstrom
                   Q00  =  -0.197719

C          x = -1.390753  y = -0.345317  z = -0.441825 angstrom
           Maximum rank =  0   Radius =  0.650 angstrom
                   Q00  =   0.988563

O          x = -2.513753  y = -0.821317  z = -0.693825 angstrom
           Maximum rank =  0   Radius =  0.650 angstrom
                   Q00  =  -0.887108

O          x = -1.246753  y =  0.628683  z =  0.328175 angstrom
           Maximum rank =  0   Radius =  0.650 angstrom
                   Q00  =  -0.957537

H          x =  0.595247  y = -1.102317  z = -0.292825 angstrom
           Maximum rank =  0   Radius =  0.325 angstrom
                   Q00  =   0.007413

H          x =  0.257247  y = -0.284317  z = -1.827825 angstrom
           Maximum rank =  0   Radius =  0.325 angstrom
                   Q00  =   0.070282

H          x = -1.187753  y = -2.156317  z = -2.537825 angstrom
           Maximum rank =  0   Radius =  0.325 angstrom
                   Q00  =   0.109270

H          x = -0.898753  y = -2.972317  z = -0.988825 angstrom
           Maximum rank =  0   Radius =  0.325 angstrom
                   Q00  =   0.094122

H          x =  0.425507  y = -2.791157  z = -2.162825 angstrom
           Maximum rank =  0   Radius =  0.325 angstrom
                   Q00  =   0.043512

C          x =  1.897247  y =  1.549683  z =  0.644175 angstrom
           Maximum rank =  0   Radius =  0.650 angstrom
                   Q00  =   0.032684

C          x =  3.003247  y =  0.626683  z =  1.057175 angstrom
           Maximum rank =  0   Radius =  0.650 angstrom
                   Q00  =  -0.232745

N          x =  0.784247  y =  1.455683  z =  1.639175 angstrom
           Maximum rank =  0   Radius =  0.650 angstrom
                   Q00  =  -0.172606

H          x =  2.268247  y =  2.576683  z =  0.564175 angstrom
           Maximum rank =  0   Radius =  0.325 angstrom
                   Q00  =   0.097597

H          x =  1.537247  y =  1.237683  z = -0.341825 angstrom
           Maximum rank =  0   Radius =  0.325 angstrom
                   Q00  =   0.139072

H          x =  2.602247  y = -0.376317  z =  1.226175 angstrom
           Maximum rank =  0   Radius =  0.325 angstrom
                   Q00  =   0.096859

H          x =  3.454247  y =  0.991683  z =  1.982175 angstrom
           Maximum rank =  0   Radius =  0.325 angstrom
                   Q00  =   0.081827

H          x =  0.890247  y =  2.125683  z =  2.390175 angstrom
           Maximum rank =  0   Radius =  0.325 angstrom
                   Q00  =   0.203156

H          x = -0.115753  y =  1.608683  z =  1.183175 angstrom
           Maximum rank =  0   Radius =  0.325 angstrom
                   Q00  =   0.311672

H          x =  0.716247  y =  0.532683  z =  2.046175 angstrom
           Maximum rank =  0   Radius =  0.325 angstrom
                   Q00  =   0.240843

H          x =  3.768117  y =  0.570053  z =  0.268655 angstrom
           Maximum rank =  0   Radius =  0.325 angstrom
                   Q00  =   0.127491

Total multipoles referred to origin at
           x =   0.000000,  y =    0.000000,  z =    0.000000 angstrom
                   Q00  =  -0.000000

Finished at 12:47:58 on 27 Apr 2020

  DMA results are available in the Python driver through the
	  variable('DMA DISTRIBUTED MULTIPOLES')
  and
	  variable('DMA TOTAL MULTIPOLES')
  commands.

    Psi4 stopped on: Monday, 27 April 2020 12:47PM
    Psi4 wall time for execution: 0:01:11.01

*** Psi4 exiting successfully. Buy a developer a beer!
