                               Psi4 1.3.2 release

  ==> Input File <==

--------------------------------------------------------------------------
import numpy as np
set {scf_type pk
basis cc-pvdz
d_convergence 10
gdma_switch   0
gdma_limit    0
gdma_origin   [ 0.0,  0.0,  0.0 ]
}
molecule test {
    units Angstrom
    0 1
    --
    0 1
    C                2.785635971270582    -0.253423630609900     2.261592471352317
    C                0.165635971270582    -1.458423630609900    -0.177407528647682
    C                1.084635971270582    -0.456423630609900     0.248592471352318
    C                1.808635971270582    -0.986423630609900     1.380592471352317
    C                1.327635971270582    -2.243423630609900     1.574592471352318
    C               -0.669364028729418    -0.054423630609900    -1.919407528647682
    C               -0.708364028729418    -1.271423630609900    -1.252407528647682
    C                0.226635971270582     0.959576369390100    -1.522407528647682
    C                1.105635971270581     0.768576369390100    -0.441407528647682
    N                0.346635971270582    -2.532423630609900     0.654592471352318
    H               -1.337364028729418     0.119576369390100    -2.755407528647682
    H               -1.394364028729418    -2.051423630609900    -1.547407528647682
    H                0.236635971270582     1.897576369390100    -2.057407528647683
    H                1.792635971270582     1.545576369390100    -0.145407528647682
    H               -0.200364028729418    -3.392423630609900     0.665592471352318
    H                1.605635971270582    -2.873423630609900     2.406592471352317
    H                2.749635971270582    -0.681423630609900     3.248592471352318
    H                2.450635971270582     0.780576369390100     2.361592471352318
    H                3.839515971270582    -0.257013630609900     1.946432471352318
    C               -3.003364028729418     2.653576369390100    -0.589407528647682
    C               -3.669364028729418     4.027576369390101    -0.419407528647682
    H               -3.672364028729419     1.968576369390100    -1.110407528647682
    H               -2.075364028729418     2.754576369390100    -1.151407528647682
    H               -2.762364028729419     2.230576369390100     0.385592471352318
    H               -3.097364028729418     4.607576369390100     0.306592471352318
    H               -4.705444028729418     3.910086369390100    -0.069067528647682
    H               -3.651634028729418     4.560336369390099    -1.381617528647682

}
e, wfn = energy('scf', return_wfn=True)
gdma(wfn)
dmavals = variable('DMA DISTRIBUTED MULTIPOLES')
charges = np.array(dmavals)
print(charges)
np.save('SSI-030TRP-171THR-1-dimer.npy', np.array(charges))--------------------------------------------------------------------------

*** tstart() called on ds3
*** at Tue Apr 28 01:32:52 2020

   => Loading Basis Set <=

    Name: CC-PVDZ
    Role: ORBITAL
    Keyword: BASIS
    atoms 1-9, 20-21   entry C          line   138 file /theoryfs2/ds/metcalf/miniconda2/envs/tf2gpu/share/psi4/basis/cc-pvdz.gbs
    atoms 10           entry N          line   168 file /theoryfs2/ds/metcalf/miniconda2/envs/tf2gpu/share/psi4/basis/cc-pvdz.gbs
    atoms 11-19, 22-27 entry H          line    22 file /theoryfs2/ds/metcalf/miniconda2/envs/tf2gpu/share/psi4/basis/cc-pvdz.gbs

         ---------------------------------------------------------
                                   SCF
               by Justin Turney, Rob Parrish, Andy Simmonett
                          and Daniel G. A. Smith
                              RHF Reference
                        1 Threads,    500 MiB Core
         ---------------------------------------------------------

  ==> Geometry <==

    Molecular point group: c1
    Full point group: C1

    Geometry (in Angstrom), charge = 0, multiplicity = 1:

       Center              X                  Y                   Z               Mass
    ------------   -----------------  -----------------  -----------------  -----------------
         C            2.785635971271    -0.253423630610     2.261592471352    12.000000000000
         C            0.165635971271    -1.458423630610    -0.177407528648    12.000000000000
         C            1.084635971271    -0.456423630610     0.248592471352    12.000000000000
         C            1.808635971271    -0.986423630610     1.380592471352    12.000000000000
         C            1.327635971271    -2.243423630610     1.574592471352    12.000000000000
         C           -0.669364028729    -0.054423630610    -1.919407528648    12.000000000000
         C           -0.708364028729    -1.271423630610    -1.252407528648    12.000000000000
         C            0.226635971271     0.959576369390    -1.522407528648    12.000000000000
         C            1.105635971271     0.768576369390    -0.441407528648    12.000000000000
         N            0.346635971271    -2.532423630610     0.654592471352    14.003074004430
         H           -1.337364028729     0.119576369390    -2.755407528648     1.007825032230
         H           -1.394364028729    -2.051423630610    -1.547407528648     1.007825032230
         H            0.236635971271     1.897576369390    -2.057407528648     1.007825032230
         H            1.792635971271     1.545576369390    -0.145407528648     1.007825032230
         H           -0.200364028729    -3.392423630610     0.665592471352     1.007825032230
         H            1.605635971271    -2.873423630610     2.406592471352     1.007825032230
         H            2.749635971271    -0.681423630610     3.248592471352     1.007825032230
         H            2.450635971271     0.780576369390     2.361592471352     1.007825032230
         H            3.839515971271    -0.257013630610     1.946432471352     1.007825032230
         C           -3.003364028729     2.653576369390    -0.589407528648    12.000000000000
         C           -3.669364028729     4.027576369390    -0.419407528648    12.000000000000
         H           -3.672364028729     1.968576369390    -1.110407528648     1.007825032230
         H           -2.075364028729     2.754576369390    -1.151407528648     1.007825032230
         H           -2.762364028729     2.230576369390     0.385592471352     1.007825032230
         H           -3.097364028729     4.607576369390     0.306592471352     1.007825032230
         H           -4.705444028729     3.910086369390    -0.069067528648     1.007825032230
         H           -3.651634028729     4.560336369390    -1.381617528648     1.007825032230

  Running in c1 symmetry.

  Rotational constants: A =      0.04584  B =      0.01396  C =      0.01264 [cm^-1]
  Rotational constants: A =   1374.31188  B =    418.62097  C =    378.80927 [MHz]
  Nuclear repulsion =  640.327978448488238

  Charge       = 0
  Multiplicity = 1
  Electrons    = 88
  Nalpha       = 44
  Nbeta        = 44

  ==> Algorithm <==

  SCF Algorithm Type is PK.
  DIIS enabled.
  MOM disabled.
  Fractional occupation disabled.
  Guess Type is SAD.
  Energy threshold   = 1.00e-06
  Density threshold  = 1.00e-10
  Integral threshold = 0.00e+00

  ==> Primary Basis <==

  Basis Set: CC-PVDZ
    Blend: CC-PVDZ
    Number of shells: 117
    Number of basis function: 243
    Number of Cartesian functions: 255
    Spherical Harmonics?: true
    Max angular momentum: 2

  ==> Pre-Iterations <==

   -------------------------------------------------------
    Irrep   Nso     Nmo     Nalpha   Nbeta   Ndocc  Nsocc
   -------------------------------------------------------
     A        243     243       0       0       0       0
   -------------------------------------------------------
    Total     243     243      44      44      44       0
   -------------------------------------------------------

  ==> Integral Setup <==

  Using integral reordering PK algorithm.
  Sizing the integral batches needed.
  Building batch lookup table.
   Calculation information:
      Number of atoms:                  27
      Number of AO shells:             117
      Number of primitives:            339
      Number of atomic orbitals:       255
      Number of basis functions:       243

      Integral cutoff                 1.00e-12
      Number of threads:                 1

	Batch   1 pq = [       0,    9405] index = [             0,44231715] size =     44231715
	Batch   2 pq = [    9405,   13301] index = [      44231715,88464951] size =     44233236
	Batch   3 pq = [   13301,   16290] index = [      88464951,132690195] size =     44225244
	Batch   4 pq = [   16290,   18810] index = [     132690195,176917455] size =     44227260
	Batch   5 pq = [   18810,   21030] index = [     176917455,221140965] size =     44223510
	Batch   6 pq = [   21030,   23037] index = [     221140965,265363203] size =     44222238
	Batch   7 pq = [   23037,   24883] index = [     265363203,309594286] size =     44231083
	Batch   8 pq = [   24883,   26601] index = [     309594286,353819901] size =     44225615
	Batch   9 pq = [   26601,   28214] index = [     353819901,398029005] size =     44209104
	Batch  10 pq = [   28214,   29646] index = [     398029005,439457481] size =     41428476
  Task number: 40
  Buffer size: 11059200
  Buffer per thread: 2
  We computed 19545101 shell quartets total.
  Whereas there are 23829156 unique shell quartets.

  ==> DiskJK: Disk-Based J/K Matrices <==

    J tasked:                  Yes
    K tasked:                  Yes
    wK tasked:                  No
    Memory [MiB]:              375
    Schwarz Cutoff:          1E-12

    OpenMP threads:              1

  Minimum eigenvalue in the overlap matrix is 2.5275346779E-04.
  Using Symmetric Orthogonalization.

  SCF Guess: Superposition of Atomic Densities via on-the-fly atomic UHF.

  ==> Iterations <==

                        Total Energy        Delta E     RMS |[F,P]|

   @RHF iter SAD:  -478.90633396919549   -4.78906e+02   0.00000e+00
   @RHF iter   1:  -479.49110828672207   -5.84774e-01   2.58225e-03 DIIS
   @RHF iter   2:  -479.72108282541535   -2.29975e-01   1.13498e-03 DIIS
   @RHF iter   3:  -479.76145134692848   -4.03685e-02   2.98869e-04 DIIS
   @RHF iter   4:  -479.76516352472544   -3.71218e-03   1.38494e-04 DIIS
   @RHF iter   5:  -479.76580302711545   -6.39502e-04   1.96652e-05 DIIS
   @RHF iter   6:  -479.76583097566174   -2.79485e-05   8.86740e-06 DIIS
   @RHF iter   7:  -479.76583636544046   -5.38978e-06   3.63116e-06 DIIS
   @RHF iter   8:  -479.76583783197316   -1.46653e-06   1.39688e-06 DIIS
   @RHF iter   9:  -479.76583811232547   -2.80352e-07   6.13847e-07 DIIS
   @RHF iter  10:  -479.76583816784438   -5.55189e-08   2.90133e-07 DIIS
   @RHF iter  11:  -479.76583818269580   -1.48514e-08   1.14527e-07 DIIS
   @RHF iter  12:  -479.76583818509431   -2.39851e-09   3.84112e-08 DIIS
   @RHF iter  13:  -479.76583818526552   -1.71212e-10   1.04189e-08 DIIS
   @RHF iter  14:  -479.76583818527496   -9.43601e-12   4.48514e-09 DIIS
   @RHF iter  15:  -479.76583818528275   -7.78755e-12   2.15517e-09 DIIS
   @RHF iter  16:  -479.76583818527877    3.97904e-12   9.23767e-10 DIIS
   @RHF iter  17:  -479.76583818528263   -3.86535e-12   4.11350e-10 DIIS
   @RHF iter  18:  -479.76583818527718    5.45697e-12   1.63082e-10 DIIS
   @RHF iter  19:  -479.76583818527655    6.25278e-13   5.66819e-11 DIIS
  Energy and wave function converged.

  ==> Post-Iterations <==

    Orbital Energies [Eh]
    ---------------------

    Doubly Occupied:

       1A    -15.602353     2A    -11.265894     3A    -11.263698
       4A    -11.232902     5A    -11.231974     6A    -11.230754
       7A    -11.226432     8A    -11.223565     9A    -11.222792
      10A    -11.219392    11A    -11.213166    12A    -11.206858
      13A     -1.294040    14A     -1.123472    15A     -1.071212
      16A     -1.008092    17A     -0.993921    18A     -0.986434
      19A     -0.931356    20A     -0.839246    21A     -0.828285
      22A     -0.801940    23A     -0.752302    24A     -0.718739
      25A     -0.663806    26A     -0.640948    27A     -0.601253
      28A     -0.591133    29A     -0.590053    30A     -0.588339
      31A     -0.587480    32A     -0.566450    33A     -0.551218
      34A     -0.537708    35A     -0.527197    36A     -0.495377
      37A     -0.489916    38A     -0.480176    39A     -0.476158
      40A     -0.471014    41A     -0.457164    42A     -0.371974
      43A     -0.292801    44A     -0.275902

    Virtual:

      45A      0.124685    46A      0.166290    47A      0.179326
      48A      0.183096    49A      0.192321    50A      0.207511
      51A      0.220835    52A      0.229111    53A      0.231457
      54A      0.248951    55A      0.256866    56A      0.263758
      57A      0.269666    58A      0.279982    59A      0.288444
      60A      0.293256    61A      0.301485    62A      0.341921
      63A      0.373741    64A      0.380338    65A      0.401444
      66A      0.403790    67A      0.420183    68A      0.441253
      69A      0.471451    70A      0.478780    71A      0.499967
      72A      0.511006    73A      0.585652    74A      0.597130
      75A      0.602571    76A      0.605178    77A      0.614482
      78A      0.635184    79A      0.640139    80A      0.663244
      81A      0.681296    82A      0.691130    83A      0.700943
      84A      0.708097    85A      0.719252    86A      0.730410
      87A      0.732912    88A      0.741869    89A      0.748928
      90A      0.758281    91A      0.763496    92A      0.773063
      93A      0.788912    94A      0.793951    95A      0.808372
      96A      0.842301    97A      0.855466    98A      0.866091
      99A      0.877895   100A      0.887600   101A      0.890195
     102A      0.892425   103A      0.896794   104A      0.902170
     105A      0.907711   106A      0.917864   107A      0.922540
     108A      0.926156   109A      0.946795   110A      0.952531
     111A      0.957011   112A      0.968472   113A      0.971696
     114A      0.980692   115A      1.003776   116A      1.014356
     117A      1.056379   118A      1.072076   119A      1.086828
     120A      1.120024   121A      1.123223   122A      1.128369
     123A      1.130091   124A      1.147690   125A      1.162479
     126A      1.169812   127A      1.195834   128A      1.218460
     129A      1.225576   130A      1.232824   131A      1.235705
     132A      1.262131   133A      1.277622   134A      1.283746
     135A      1.298057   136A      1.321531   137A      1.335471
     138A      1.362763   139A      1.370750   140A      1.415809
     141A      1.450051   142A      1.484159   143A      1.492164
     144A      1.506406   145A      1.539442   146A      1.567870
     147A      1.588262   148A      1.599667   149A      1.618248
     150A      1.639088   151A      1.659330   152A      1.685937
     153A      1.688547   154A      1.702423   155A      1.705344
     156A      1.736725   157A      1.760169   158A      1.766259
     159A      1.780584   160A      1.810844   161A      1.815129
     162A      1.833007   163A      1.867146   164A      1.873355
     165A      1.883393   166A      1.887721   167A      1.897978
     168A      1.904625   169A      1.914041   170A      1.921917
     171A      1.930188   172A      1.937560   173A      1.946716
     174A      1.948043   175A      1.953767   176A      1.956639
     177A      1.963397   178A      1.969918   179A      1.990668
     180A      1.997227   181A      2.005499   182A      2.023261
     183A      2.049613   184A      2.066715   185A      2.073449
     186A      2.081806   187A      2.104615   188A      2.107950
     189A      2.113925   190A      2.130673   191A      2.137962
     192A      2.145765   193A      2.159493   194A      2.165291
     195A      2.173349   196A      2.221178   197A      2.248820
     198A      2.292071   199A      2.302636   200A      2.307233
     201A      2.309346   202A      2.319836   203A      2.339275
     204A      2.354963   205A      2.392447   206A      2.405627
     207A      2.443692   208A      2.447623   209A      2.457864
     210A      2.464547   211A      2.519940   212A      2.579373
     213A      2.583433   214A      2.589560   215A      2.594345
     216A      2.620937   217A      2.655174   218A      2.666425
     219A      2.705499   220A      2.762643   221A      2.771584
     222A      2.773082   223A      2.787359   224A      2.791036
     225A      2.799324   226A      2.827903   227A      2.839961
     228A      2.859176   229A      2.861773   230A      2.897041
     231A      2.905305   232A      2.953050   233A      2.964381
     234A      2.967798   235A      3.022147   236A      3.042753
     237A      3.059752   238A      3.113575   239A      3.191584
     240A      3.285488   241A      3.365974   242A      3.727259
     243A      3.924587

    Final Occupation by Irrep:
              A
    DOCC [    44 ]

  @RHF Final Energy:  -479.76583818527655

   => Energetics <=

    Nuclear Repulsion Energy =            640.3279784484882384
    One-Electron Energy =               -1918.6978579115398134
    Two-Electron Energy =                 798.6040412777749680
    Total Energy =                       -479.7658381852766070

Computation Completed

Properties will be evaluated at   0.000000,   0.000000,   0.000000 [a0]

Properties computed using the SCF density matrix

  Nuclear Dipole Moment: [e a0]
     X:    -9.5838      Y:    14.1813      Z:     1.0320

  Electronic Dipole Moment: [e a0]
     X:     9.4582      Y:   -14.9410      Z:    -0.6271

  Dipole Moment: [e a0]
     X:    -0.1255      Y:    -0.7597      Z:     0.4049     Total:     0.8700

  Dipole Moment: [D]
     X:    -0.3191      Y:    -1.9310      Z:     1.0291     Total:     2.2112

*** tstop() called on ds3 at Tue Apr 28 01:36:28 2020
Module time:
	user time   =     153.28 seconds =       2.55 minutes
	system time =      70.20 seconds =       1.17 minutes
	total time  =        216 seconds =       3.60 minutes
Total time:
	user time   =     153.28 seconds =       2.55 minutes
	system time =      70.20 seconds =       1.17 minutes
	total time  =        216 seconds =       3.60 minutes
                                     G D M A

                                 by Anthony Stone

                           version 2.2.06, 22 June 2011

               Distributed Multipoles from Gaussian wavefunctions

Starting at 1:36:28 on 28 Apr 2020

Using SCF density matrix from file ./SSI/SSI-030TRP-171THR-1-dimer.test.8718.fchk

                         Distributed Multipole Analysis

Standard DMA

Positions and radii in angstrom
Multipole moments in atomic units, ea_0^k for rank k

C          x =  2.785636  y = -0.253424  z =  2.261592 angstrom
           Maximum rank =  0   Radius =  0.650 angstrom
                   Q00  =  -0.216593

C          x =  0.165636  y = -1.458424  z = -0.177408 angstrom
           Maximum rank =  0   Radius =  0.650 angstrom
                   Q00  =   0.286033

C          x =  1.084636  y = -0.456424  z =  0.248592 angstrom
           Maximum rank =  0   Radius =  0.650 angstrom
                   Q00  =  -0.054359

C          x =  1.808636  y = -0.986424  z =  1.380592 angstrom
           Maximum rank =  0   Radius =  0.650 angstrom
                   Q00  =  -0.119408

C          x =  1.327636  y = -2.243424  z =  1.574592 angstrom
           Maximum rank =  0   Radius =  0.650 angstrom
                   Q00  =   0.077942

C          x = -0.669364  y = -0.054424  z = -1.919408 angstrom
           Maximum rank =  0   Radius =  0.650 angstrom
                   Q00  =  -0.067029

C          x = -0.708364  y = -1.271424  z = -1.252408 angstrom
           Maximum rank =  0   Radius =  0.650 angstrom
                   Q00  =  -0.118324

C          x =  0.226636  y =  0.959576  z = -1.522408 angstrom
           Maximum rank =  0   Radius =  0.650 angstrom
                   Q00  =  -0.094478

C          x =  1.105636  y =  0.768576  z = -0.441408 angstrom
           Maximum rank =  0   Radius =  0.650 angstrom
                   Q00  =  -0.097153

N          x =  0.346636  y = -2.532424  z =  0.654592 angstrom
           Maximum rank =  0   Radius =  0.650 angstrom
                   Q00  =  -0.497473

H          x = -1.337364  y =  0.119576  z = -2.755408 angstrom
           Maximum rank =  0   Radius =  0.325 angstrom
                   Q00  =   0.067419

H          x = -1.394364  y = -2.051424  z = -1.547408 angstrom
           Maximum rank =  0   Radius =  0.325 angstrom
                   Q00  =   0.073347

H          x =  0.236636  y =  1.897576  z = -2.057408 angstrom
           Maximum rank =  0   Radius =  0.325 angstrom
                   Q00  =   0.062358

H          x =  1.792636  y =  1.545576  z = -0.145408 angstrom
           Maximum rank =  0   Radius =  0.325 angstrom
                   Q00  =   0.072463

H          x = -0.200364  y = -3.392424  z =  0.665592 angstrom
           Maximum rank =  0   Radius =  0.325 angstrom
                   Q00  =   0.217842

H          x =  1.605636  y = -2.873424  z =  2.406592 angstrom
           Maximum rank =  0   Radius =  0.325 angstrom
                   Q00  =   0.100769

H          x =  2.749636  y = -0.681424  z =  3.248592 angstrom
           Maximum rank =  0   Radius =  0.325 angstrom
                   Q00  =   0.104354

H          x =  2.450636  y =  0.780576  z =  2.361592 angstrom
           Maximum rank =  0   Radius =  0.325 angstrom
                   Q00  =   0.101775

H          x =  3.839516  y = -0.257014  z =  1.946432 angstrom
           Maximum rank =  0   Radius =  0.325 angstrom
                   Q00  =   0.099565

C          x = -3.003364  y =  2.653576  z = -0.589408 angstrom
           Maximum rank =  0   Radius =  0.650 angstrom
                   Q00  =  -0.225087

C          x = -3.669364  y =  4.027576  z = -0.419408 angstrom
           Maximum rank =  0   Radius =  0.650 angstrom
                   Q00  =  -0.242032

H          x = -3.672364  y =  1.968576  z = -1.110408 angstrom
           Maximum rank =  0   Radius =  0.325 angstrom
                   Q00  =   0.074210

H          x = -2.075364  y =  2.754576  z = -1.151408 angstrom
           Maximum rank =  0   Radius =  0.325 angstrom
                   Q00  =   0.081239

H          x = -2.762364  y =  2.230576  z =  0.385592 angstrom
           Maximum rank =  0   Radius =  0.325 angstrom
                   Q00  =   0.081825

H          x = -3.097364  y =  4.607576  z =  0.306592 angstrom
           Maximum rank =  0   Radius =  0.325 angstrom
                   Q00  =   0.078234

H          x = -4.705444  y =  3.910086  z = -0.069068 angstrom
           Maximum rank =  0   Radius =  0.325 angstrom
                   Q00  =   0.077825

H          x = -3.651634  y =  4.560336  z = -1.381618 angstrom
           Maximum rank =  0   Radius =  0.325 angstrom
                   Q00  =   0.074736

Total multipoles referred to origin at
           x =   0.000000,  y =    0.000000,  z =    0.000000 angstrom
                   Q00  =  -0.000000

Finished at 1:36:28 on 28 Apr 2020

  DMA results are available in the Python driver through the
	  variable('DMA DISTRIBUTED MULTIPOLES')
  and
	  variable('DMA TOTAL MULTIPOLES')
  commands.

    Psi4 stopped on: Tuesday, 28 April 2020 01:36AM
    Psi4 wall time for execution: 0:03:35.78

*** Psi4 exiting successfully. Buy a developer a beer!
