                               Psi4 1.3.2 release

  ==> Input File <==

--------------------------------------------------------------------------
import numpy as np
set {scf_type pk
basis cc-pvdz
d_convergence 10
gdma_switch   0
gdma_limit    0
gdma_origin   [ 0.0,  0.0,  0.0 ]
}
molecule test {
    units Angstrom
    0 1
    --
    0 1
    C               -4.163367979680302    -0.220901678187149     0.955363883642014
    C                0.059632020319697     0.374098321812851     0.474363883642014
    C               -0.630367979680303    -0.469901678187149    -0.380636116357986
    C               -0.622367979680303     1.016098321812851     1.503363883642014
    C               -1.999367979680303    -0.670901678187149    -0.211636116357986
    C               -1.993367979680303     0.825098321812851     1.665363883642014
    C               -2.686367979680302    -0.027901678187149     0.812363883642014
    H                1.119632020319697     0.520098321812851     0.356363883642014
    H               -0.106367979680303    -0.974901678187149    -1.180636116357986
    H               -0.089367979680303     1.660098321812851     2.187363883642014
    H               -2.523367979680303    -1.336901678187149    -0.881636116357986
    H               -2.510367979680303     1.329098321812851     2.465363883642014
    H               -4.510367979680304     0.252098321812851     1.873363883642014
    H               -4.358367979680303    -1.285901678187149     1.044363883642014
    H               -4.728564579680303     0.189889321812851     0.105773883642014
    C                3.517632020319697     0.294098321812851    -1.178636116357986
    C                4.700632020319698    -0.664901678187149    -1.010636116357986
    O                2.466632020319697    -0.329901678187149    -1.895636116357986
    H                3.165632020319697     0.607098321812851    -0.196636116357986
    H                3.854632020319697     1.181098321812851    -1.715636116357986
    H                5.402632020319698    -0.213901678187149    -0.307636116357986
    H                2.021632020319697     0.349098321812851    -2.421636116357986
    H                5.200785020319697    -0.839162678187149    -1.974736116357986
    H                4.366665020319697    -1.618265678187149    -0.575246116357986

}
e, wfn = energy('scf', return_wfn=True)
gdma(wfn)
dmavals = variable('DMA DISTRIBUTED MULTIPOLES')
charges = np.array(dmavals)
print(charges)
np.save('SSI-127PHE-138SER-1-dimer.npy', np.array(charges))--------------------------------------------------------------------------

*** tstart() called on ds3
*** at Tue Apr 28 00:57:05 2020

   => Loading Basis Set <=

    Name: CC-PVDZ
    Role: ORBITAL
    Keyword: BASIS
    atoms 1-7, 16-17  entry C          line   138 file /theoryfs2/ds/metcalf/miniconda2/envs/tf2gpu/share/psi4/basis/cc-pvdz.gbs
    atoms 8-15, 19-24 entry H          line    22 file /theoryfs2/ds/metcalf/miniconda2/envs/tf2gpu/share/psi4/basis/cc-pvdz.gbs
    atoms 18          entry O          line   198 file /theoryfs2/ds/metcalf/miniconda2/envs/tf2gpu/share/psi4/basis/cc-pvdz.gbs

         ---------------------------------------------------------
                                   SCF
               by Justin Turney, Rob Parrish, Andy Simmonett
                          and Daniel G. A. Smith
                              RHF Reference
                        1 Threads,    500 MiB Core
         ---------------------------------------------------------

  ==> Geometry <==

    Molecular point group: c1
    Full point group: C1

    Geometry (in Angstrom), charge = 0, multiplicity = 1:

       Center              X                  Y                   Z               Mass
    ------------   -----------------  -----------------  -----------------  -----------------
         C           -4.163367979680    -0.220901678187     0.955363883642    12.000000000000
         C            0.059632020320     0.374098321813     0.474363883642    12.000000000000
         C           -0.630367979680    -0.469901678187    -0.380636116358    12.000000000000
         C           -0.622367979680     1.016098321813     1.503363883642    12.000000000000
         C           -1.999367979680    -0.670901678187    -0.211636116358    12.000000000000
         C           -1.993367979680     0.825098321813     1.665363883642    12.000000000000
         C           -2.686367979680    -0.027901678187     0.812363883642    12.000000000000
         H            1.119632020320     0.520098321813     0.356363883642     1.007825032230
         H           -0.106367979680    -0.974901678187    -1.180636116358     1.007825032230
         H           -0.089367979680     1.660098321813     2.187363883642     1.007825032230
         H           -2.523367979680    -1.336901678187    -0.881636116358     1.007825032230
         H           -2.510367979680     1.329098321813     2.465363883642     1.007825032230
         H           -4.510367979680     0.252098321813     1.873363883642     1.007825032230
         H           -4.358367979680    -1.285901678187     1.044363883642     1.007825032230
         H           -4.728564579680     0.189889321813     0.105773883642     1.007825032230
         C            3.517632020320     0.294098321813    -1.178636116358    12.000000000000
         C            4.700632020320    -0.664901678187    -1.010636116358    12.000000000000
         O            2.466632020320    -0.329901678187    -1.895636116358    15.994914619570
         H            3.165632020320     0.607098321813    -0.196636116358     1.007825032230
         H            3.854632020320     1.181098321813    -1.715636116358     1.007825032230
         H            5.402632020320    -0.213901678187    -0.307636116358     1.007825032230
         H            2.021632020320     0.349098321813    -2.421636116358     1.007825032230
         H            5.200785020320    -0.839162678187    -1.974736116358     1.007825032230
         H            4.366665020320    -1.618265678187    -0.575246116358     1.007825032230

  Running in c1 symmetry.

  Rotational constants: A =      0.12333  B =      0.01370  C =      0.01269 [cm^-1]
  Rotational constants: A =   3697.38606  B =    410.78254  C =    380.57870 [MHz]
  Nuclear repulsion =  477.345998770820927

  Charge       = 0
  Multiplicity = 1
  Electrons    = 76
  Nalpha       = 38
  Nbeta        = 38

  ==> Algorithm <==

  SCF Algorithm Type is PK.
  DIIS enabled.
  MOM disabled.
  Fractional occupation disabled.
  Guess Type is SAD.
  Energy threshold   = 1.00e-06
  Density threshold  = 1.00e-10
  Integral threshold = 0.00e+00

  ==> Primary Basis <==

  Basis Set: CC-PVDZ
    Blend: CC-PVDZ
    Number of shells: 102
    Number of basis function: 210
    Number of Cartesian functions: 220
    Spherical Harmonics?: true
    Max angular momentum: 2

  ==> Pre-Iterations <==

   -------------------------------------------------------
    Irrep   Nso     Nmo     Nalpha   Nbeta   Ndocc  Nsocc
   -------------------------------------------------------
     A        210     210       0       0       0       0
   -------------------------------------------------------
    Total     210     210      38      38      38       0
   -------------------------------------------------------

  ==> Integral Setup <==

  Using integral reordering PK algorithm.
  Sizing the integral batches needed.
  Building batch lookup table.
   Calculation information:
      Number of atoms:                  24
      Number of AO shells:             102
      Number of primitives:            290
      Number of atomic orbitals:       220
      Number of basis functions:       210

      Integral cutoff                 1.00e-12
      Number of threads:                 1

	Batch   1 pq = [       0,    9405] index = [             0,44231715] size =     44231715
	Batch   2 pq = [    9405,   13301] index = [      44231715,88464951] size =     44233236
	Batch   3 pq = [   13301,   16290] index = [      88464951,132690195] size =     44225244
	Batch   4 pq = [   16290,   18810] index = [     132690195,176917455] size =     44227260
	Batch   5 pq = [   18810,   21030] index = [     176917455,221140965] size =     44223510
	Batch   6 pq = [   21030,   22155] index = [     221140965,245433090] size =     24292125
  Task number: 23
  Buffer size: 11059200
  Buffer per thread: 2
  We computed 10113535 shell quartets total.
  Whereas there are 13799631 unique shell quartets.

  ==> DiskJK: Disk-Based J/K Matrices <==

    J tasked:                  Yes
    K tasked:                  Yes
    wK tasked:                  No
    Memory [MiB]:              375
    Schwarz Cutoff:          1E-12

    OpenMP threads:              1

  Minimum eigenvalue in the overlap matrix is 2.9586419880E-04.
  Using Symmetric Orthogonalization.

  SCF Guess: Superposition of Atomic Densities via on-the-fly atomic UHF.

  ==> Iterations <==

                        Total Energy        Delta E     RMS |[F,P]|

   @RHF iter SAD:  -422.63565395941271   -4.22636e+02   0.00000e+00
   @RHF iter   1:  -423.60315534963411   -9.67501e-01   2.95258e-03 DIIS
   @RHF iter   2:  -423.81219705797889   -2.09042e-01   1.33770e-03 DIIS
   @RHF iter   3:  -423.84862116773661   -3.64241e-02   2.87846e-04 DIIS
   @RHF iter   4:  -423.85144696234715   -2.82579e-03   8.90267e-05 DIIS
   @RHF iter   5:  -423.85163472564869   -1.87763e-04   1.72219e-05 DIIS
   @RHF iter   6:  -423.85164455577649   -9.83013e-06   4.52525e-06 DIIS
   @RHF iter   7:  -423.85164529638570   -7.40609e-07   1.62060e-06 DIIS
   @RHF iter   8:  -423.85164538689224   -9.05065e-08   4.88789e-07 DIIS
   @RHF iter   9:  -423.85164540023919   -1.33469e-08   2.02744e-07 DIIS
   @RHF iter  10:  -423.85164540313684   -2.89765e-09   7.40327e-08 DIIS
   @RHF iter  11:  -423.85164540391548   -7.78641e-10   3.18962e-08 DIIS
   @RHF iter  12:  -423.85164540406521   -1.49726e-10   1.42733e-08 DIIS
   @RHF iter  13:  -423.85164540408488   -1.96678e-11   5.26526e-09 DIIS
   @RHF iter  14:  -423.85164540408846   -3.58114e-12   1.73150e-09 DIIS
   @RHF iter  15:  -423.85164540408579    2.67164e-12   5.28114e-10 DIIS
   @RHF iter  16:  -423.85164540408761   -1.81899e-12   2.17374e-10 DIIS
   @RHF iter  17:  -423.85164540408783   -2.27374e-13   1.15141e-10 DIIS
   @RHF iter  18:  -423.85164540408687    9.66338e-13   4.81407e-11 DIIS
  Energy and wave function converged.

  ==> Post-Iterations <==

    Orbital Energies [Eh]
    ---------------------

    Doubly Occupied:

       1A    -20.556469     2A    -11.280150     3A    -11.234144
       4A    -11.229968     5A    -11.226682     6A    -11.224757
       7A    -11.224445     8A    -11.223892     9A    -11.223286
      10A    -11.222559    11A     -1.358371    12A     -1.148247
      13A     -1.041443    14A     -1.010246    15A     -1.005392
      16A     -0.927474    17A     -0.836977    18A     -0.819652
      19A     -0.789727    20A     -0.698788    21A     -0.687700
      22A     -0.643094    23A     -0.626509    24A     -0.623833
      25A     -0.576502    26A     -0.575449    27A     -0.569927
      28A     -0.559036    29A     -0.539865    30A     -0.531132
      31A     -0.525705    32A     -0.482444    33A     -0.481728
      34A     -0.478204    35A     -0.476032    36A     -0.439058
      37A     -0.326241    38A     -0.317186

    Virtual:

      39A      0.139046    40A      0.149537    41A      0.173537
      42A      0.192270    43A      0.208107    44A      0.211276
      45A      0.228016    46A      0.237662    47A      0.250012
      48A      0.258567    49A      0.266293    50A      0.272918
      51A      0.284830    52A      0.298186    53A      0.305608
      54A      0.359011    55A      0.370031    56A      0.381924
      57A      0.389498    58A      0.425805    59A      0.460258
      60A      0.476726    61A      0.479708    62A      0.509406
      63A      0.572294    64A      0.599903    65A      0.609091
      66A      0.622135    67A      0.631840    68A      0.663257
      69A      0.690200    70A      0.696036    71A      0.700699
      72A      0.721388    73A      0.737842    74A      0.744015
      75A      0.745902    76A      0.750780    77A      0.756725
      78A      0.760542    79A      0.777889    80A      0.789703
      81A      0.797847    82A      0.814975    83A      0.831259
      84A      0.862271    85A      0.867084    86A      0.872891
      87A      0.881138    88A      0.887759    89A      0.892469
      90A      0.895710    91A      0.899237    92A      0.902042
      93A      0.922710    94A      0.925098    95A      0.935549
      96A      0.941794    97A      0.946331    98A      0.956011
      99A      1.016311   100A      1.048659   101A      1.058420
     102A      1.109538   103A      1.127503   104A      1.138570
     105A      1.146714   106A      1.162299   107A      1.187475
     108A      1.196833   109A      1.213498   110A      1.248374
     111A      1.255529   112A      1.261004   113A      1.293376
     114A      1.299841   115A      1.308728   116A      1.316150
     117A      1.331291   118A      1.344288   119A      1.411485
     120A      1.426990   121A      1.438753   122A      1.470416
     123A      1.488159   124A      1.517302   125A      1.551250
     126A      1.560080   127A      1.566857   128A      1.632833
     129A      1.646820   130A      1.680522   131A      1.681892
     132A      1.691494   133A      1.743513   134A      1.745390
     135A      1.765258   136A      1.783544   137A      1.797439
     138A      1.823149   139A      1.849185   140A      1.872543
     141A      1.876056   142A      1.889536   143A      1.903618
     144A      1.905846   145A      1.912717   146A      1.918442
     147A      1.923726   148A      1.933108   149A      1.936515
     150A      1.952736   151A      1.961988   152A      1.970317
     153A      1.974921   154A      1.989871   155A      2.000849
     156A      2.024344   157A      2.027574   158A      2.043534
     159A      2.062339   160A      2.082753   161A      2.096564
     162A      2.117921   163A      2.135334   164A      2.150251
     165A      2.189857   166A      2.199920   167A      2.201332
     168A      2.225343   169A      2.249505   170A      2.253962
     171A      2.278189   172A      2.292351   173A      2.299933
     174A      2.306822   175A      2.324451   176A      2.348069
     177A      2.362595   178A      2.457845   179A      2.466084
     180A      2.481422   181A      2.490770   182A      2.529354
     183A      2.539899   184A      2.549477   185A      2.551089
     186A      2.643574   187A      2.740291   188A      2.751583
     189A      2.770253   190A      2.776583   191A      2.783495
     192A      2.809555   193A      2.814159   194A      2.819760
     195A      2.853370   196A      2.877118   197A      2.888568
     198A      2.927656   199A      2.993774   200A      3.020247
     201A      3.042470   202A      3.170251   203A      3.223214
     204A      3.311157   205A      3.318476   206A      3.413292
     207A      3.472624   208A      3.616064   209A      3.987026
     210A      4.097851

    Final Occupation by Irrep:
              A
    DOCC [    38 ]

  @RHF Final Energy:  -423.85164540408687

   => Energetics <=

    Nuclear Repulsion Energy =            477.3459987708209269
    One-Electron Energy =               -1520.9106609630237017
    Two-Electron Energy =                 619.7130167881159650
    Total Energy =                       -423.8516454040868666

Computation Completed

Properties will be evaluated at   0.000000,   0.000000,   0.000000 [a0]

Properties computed using the SCF density matrix

  Nuclear Dipole Moment: [e a0]
     X:     5.9224      Y:    -0.1708      Z:    -1.1540

  Electronic Dipole Moment: [e a0]
     X:    -5.7462      Y:     0.7537      Z:     1.0223

  Dipole Moment: [e a0]
     X:     0.1763      Y:     0.5829      Z:    -0.1317     Total:     0.6231

  Dipole Moment: [D]
     X:     0.4481      Y:     1.4817      Z:    -0.3347     Total:     1.5837

*** tstop() called on ds3 at Tue Apr 28 00:58:51 2020
Module time:
	user time   =      72.96 seconds =       1.22 minutes
	system time =      37.15 seconds =       0.62 minutes
	total time  =        106 seconds =       1.77 minutes
Total time:
	user time   =      72.96 seconds =       1.22 minutes
	system time =      37.15 seconds =       0.62 minutes
	total time  =        106 seconds =       1.77 minutes
                                     G D M A

                                 by Anthony Stone

                           version 2.2.06, 22 June 2011

               Distributed Multipoles from Gaussian wavefunctions

Starting at 0:58:51 on 28 Apr 2020

Using SCF density matrix from file ./SSI/SSI-127PHE-138SER-1-dimer.test.5599.fchk

                         Distributed Multipole Analysis

Standard DMA

Positions and radii in angstrom
Multipole moments in atomic units, ea_0^k for rank k

C          x = -4.163368  y = -0.220902  z =  0.955364 angstrom
           Maximum rank =  0   Radius =  0.650 angstrom
                   Q00  =  -0.206130

C          x =  0.059632  y =  0.374098  z =  0.474364 angstrom
           Maximum rank =  0   Radius =  0.650 angstrom
                   Q00  =  -0.069444

C          x = -0.630368  y = -0.469902  z = -0.380636 angstrom
           Maximum rank =  0   Radius =  0.650 angstrom
                   Q00  =  -0.069495

C          x = -0.622368  y =  1.016098  z =  1.503364 angstrom
           Maximum rank =  0   Radius =  0.650 angstrom
                   Q00  =  -0.019879

C          x = -1.999368  y = -0.670902  z = -0.211636 angstrom
           Maximum rank =  0   Radius =  0.650 angstrom
                   Q00  =  -0.039120

C          x = -1.993368  y =  0.825098  z =  1.665364 angstrom
           Maximum rank =  0   Radius =  0.650 angstrom
                   Q00  =  -0.089840

C          x = -2.686368  y = -0.027902  z =  0.812364 angstrom
           Maximum rank =  0   Radius =  0.650 angstrom
                   Q00  =  -0.088873

H          x =  1.119632  y =  0.520098  z =  0.356364 angstrom
           Maximum rank =  0   Radius =  0.325 angstrom
                   Q00  =   0.039016

H          x = -0.106368  y = -0.974902  z = -1.180636 angstrom
           Maximum rank =  0   Radius =  0.325 angstrom
                   Q00  =   0.065342

H          x = -0.089368  y =  1.660098  z =  2.187364 angstrom
           Maximum rank =  0   Radius =  0.325 angstrom
                   Q00  =   0.057486

H          x = -2.523368  y = -1.336902  z = -0.881636 angstrom
           Maximum rank =  0   Radius =  0.325 angstrom
                   Q00  =   0.051255

H          x = -2.510368  y =  1.329098  z =  2.465364 angstrom
           Maximum rank =  0   Radius =  0.325 angstrom
                   Q00  =   0.055817

H          x = -4.510368  y =  0.252098  z =  1.873364 angstrom
           Maximum rank =  0   Radius =  0.325 angstrom
                   Q00  =   0.095337

H          x = -4.358368  y = -1.285902  z =  1.044364 angstrom
           Maximum rank =  0   Radius =  0.325 angstrom
                   Q00  =   0.100732

H          x = -4.728565  y =  0.189889  z =  0.105774 angstrom
           Maximum rank =  0   Radius =  0.325 angstrom
                   Q00  =   0.101671

C          x =  3.517632  y =  0.294098  z = -1.178636 angstrom
           Maximum rank =  0   Radius =  0.650 angstrom
                   Q00  =   0.139411

C          x =  4.700632  y = -0.664902  z = -1.010636 angstrom
           Maximum rank =  0   Radius =  0.650 angstrom
                   Q00  =  -0.249877

O          x =  2.466632  y = -0.329902  z = -1.895636 angstrom
           Maximum rank =  0   Radius =  0.650 angstrom
                   Q00  =  -0.600233

H          x =  3.165632  y =  0.607098  z = -0.196636 angstrom
           Maximum rank =  0   Radius =  0.325 angstrom
                   Q00  =   0.017773

H          x =  3.854632  y =  1.181098  z = -1.715636 angstrom
           Maximum rank =  0   Radius =  0.325 angstrom
                   Q00  =   0.041984

H          x =  5.402632  y = -0.213902  z = -0.307636 angstrom
           Maximum rank =  0   Radius =  0.325 angstrom
                   Q00  =   0.082930

H          x =  2.021632  y =  0.349098  z = -2.421636 angstrom
           Maximum rank =  0   Radius =  0.325 angstrom
                   Q00  =   0.399273

H          x =  5.200785  y = -0.839163  z = -1.974736 angstrom
           Maximum rank =  0   Radius =  0.325 angstrom
                   Q00  =   0.088559

H          x =  4.366665  y = -1.618266  z = -0.575246 angstrom
           Maximum rank =  0   Radius =  0.325 angstrom
                   Q00  =   0.096306

Total multipoles referred to origin at
           x =   0.000000,  y =    0.000000,  z =    0.000000 angstrom
                   Q00  =  -0.000000

Finished at 0:58:51 on 28 Apr 2020

  DMA results are available in the Python driver through the
	  variable('DMA DISTRIBUTED MULTIPOLES')
  and
	  variable('DMA TOTAL MULTIPOLES')
  commands.

    Psi4 stopped on: Tuesday, 28 April 2020 12:58AM
    Psi4 wall time for execution: 0:01:46.62

*** Psi4 exiting successfully. Buy a developer a beer!
