                               Psi4 1.3.2 release

  ==> Input File <==

--------------------------------------------------------------------------
import numpy as np
set {scf_type pk
basis cc-pvdz
d_convergence 10
gdma_switch   0
gdma_limit    0
gdma_origin   [ 0.0,  0.0,  0.0 ]
}
molecule test {
    units Angstrom
    0 1
    --
    0 1
    C                0.465391181932895    -1.387797651301236     2.318095546534473
    C                0.285391181932895    -2.334797651301236     3.554095546534473
    C                1.647391181932895    -0.413797651301236     2.539095546534472
    C                0.671391181932895    -2.193797651301236     1.013095546534473
    H               -0.450608818067105    -0.806797651301236     2.180095546534472
    H               -0.390608818067105    -3.149797651301236     3.300095546534473
    H                2.567391181932895    -0.974797651301236     2.678095546534473
    H                1.760391181932895     0.240202348698764     1.674095546534473
    H                1.466391181932895     0.194202348698764     3.426095546534473
    H                0.925391181932895    -1.507797651301236     0.202095546534473
    H                1.492391181932895    -2.895797651301236     1.153095546534473
    H               -0.110218818067105    -1.773037651301236     4.413115546534472
    H                1.209261181932895    -2.860357651301236     3.837365546534473
    H               -0.240238818067105    -2.747767651301236     0.744675546534473
    C               -1.347608818067105     2.055202348698764     1.282095546534473
    C               -0.802608818067105     1.359202348698764     0.032095546534473
    C                0.443391181932895     1.685202348698764    -0.508904453465527
    C               -1.611608818067105     0.473202348698764    -0.669904453465527
    C                0.866391181932895     1.164202348698764    -1.763904453465527
    C               -1.218608818067105    -0.057797651301236    -1.916904453465527
    C                0.001391181932895     0.306202348698764    -2.484904453465527
    O                0.234391181932895    -0.103797651301236    -3.775904453465527
    H               -0.519608818067105     2.342202348698764     1.929095546534473
    H               -1.993608818067105     1.361202348698764     1.829095546534473
    H                1.080391181932895     2.345202348698764     0.051095546534473
    H               -2.565608818067105     0.202202348698764    -0.237904453465527
    H                1.872391181932895     1.340202348698764    -2.129904453465528
    H               -1.865608818067105    -0.738797651301236    -2.452904453465527
    H                1.034391181932895     0.264202348698764    -4.159904453465527
    H               -1.851748818067105     3.011012348698764     1.076465546534473

}
e, wfn = energy('scf', return_wfn=True)
gdma(wfn)
dmavals = variable('DMA DISTRIBUTED MULTIPOLES')
charges = np.array(dmavals)
print(charges)
np.save('SSI-064ILE-084TYR-2-dimer.npy', np.array(charges))--------------------------------------------------------------------------

*** tstart() called on ds3
*** at Tue Apr 28 12:03:32 2020

   => Loading Basis Set <=

    Name: CC-PVDZ
    Role: ORBITAL
    Keyword: BASIS
    atoms 1-4, 15-21  entry C          line   138 file /theoryfs2/ds/metcalf/miniconda2/envs/tf2gpu/share/psi4/basis/cc-pvdz.gbs
    atoms 5-14, 23-30 entry H          line    22 file /theoryfs2/ds/metcalf/miniconda2/envs/tf2gpu/share/psi4/basis/cc-pvdz.gbs
    atoms 22          entry O          line   198 file /theoryfs2/ds/metcalf/miniconda2/envs/tf2gpu/share/psi4/basis/cc-pvdz.gbs

         ---------------------------------------------------------
                                   SCF
               by Justin Turney, Rob Parrish, Andy Simmonett
                          and Daniel G. A. Smith
                              RHF Reference
                        1 Threads,    500 MiB Core
         ---------------------------------------------------------

  ==> Geometry <==

    Molecular point group: c1
    Full point group: C1

    Geometry (in Angstrom), charge = 0, multiplicity = 1:

       Center              X                  Y                   Z               Mass
    ------------   -----------------  -----------------  -----------------  -----------------
         C            0.465391181933    -1.387797651301     2.318095546534    12.000000000000
         C            0.285391181933    -2.334797651301     3.554095546534    12.000000000000
         C            1.647391181933    -0.413797651301     2.539095546534    12.000000000000
         C            0.671391181933    -2.193797651301     1.013095546534    12.000000000000
         H           -0.450608818067    -0.806797651301     2.180095546534     1.007825032230
         H           -0.390608818067    -3.149797651301     3.300095546534     1.007825032230
         H            2.567391181933    -0.974797651301     2.678095546534     1.007825032230
         H            1.760391181933     0.240202348699     1.674095546534     1.007825032230
         H            1.466391181933     0.194202348699     3.426095546534     1.007825032230
         H            0.925391181933    -1.507797651301     0.202095546534     1.007825032230
         H            1.492391181933    -2.895797651301     1.153095546534     1.007825032230
         H           -0.110218818067    -1.773037651301     4.413115546534     1.007825032230
         H            1.209261181933    -2.860357651301     3.837365546534     1.007825032230
         H           -0.240238818067    -2.747767651301     0.744675546534     1.007825032230
         C           -1.347608818067     2.055202348699     1.282095546534    12.000000000000
         C           -0.802608818067     1.359202348699     0.032095546534    12.000000000000
         C            0.443391181933     1.685202348699    -0.508904453466    12.000000000000
         C           -1.611608818067     0.473202348699    -0.669904453466    12.000000000000
         C            0.866391181933     1.164202348699    -1.763904453466    12.000000000000
         C           -1.218608818067    -0.057797651301    -1.916904453466    12.000000000000
         C            0.001391181933     0.306202348699    -2.484904453466    12.000000000000
         O            0.234391181933    -0.103797651301    -3.775904453466    15.994914619570
         H           -0.519608818067     2.342202348699     1.929095546534     1.007825032230
         H           -1.993608818067     1.361202348699     1.829095546534     1.007825032230
         H            1.080391181933     2.345202348699     0.051095546534     1.007825032230
         H           -2.565608818067     0.202202348699    -0.237904453466     1.007825032230
         H            1.872391181933     1.340202348699    -2.129904453466     1.007825032230
         H           -1.865608818067    -0.738797651301    -2.452904453466     1.007825032230
         H            1.034391181933     0.264202348699    -4.159904453466     1.007825032230
         H           -1.851748818067     3.011012348699     1.076465546534     1.007825032230

  Running in c1 symmetry.

  Rotational constants: A =      0.04030  B =      0.01591  C =      0.01396 [cm^-1]
  Rotational constants: A =   1208.10856  B =    476.97595  C =    418.64358 [MHz]
  Nuclear repulsion =  687.664597583827231

  Charge       = 0
  Multiplicity = 1
  Electrons    = 92
  Nalpha       = 46
  Nbeta        = 46

  ==> Algorithm <==

  SCF Algorithm Type is PK.
  DIIS enabled.
  MOM disabled.
  Fractional occupation disabled.
  Guess Type is SAD.
  Energy threshold   = 1.00e-06
  Density threshold  = 1.00e-10
  Integral threshold = 0.00e+00

  ==> Primary Basis <==

  Basis Set: CC-PVDZ
    Blend: CC-PVDZ
    Number of shells: 126
    Number of basis function: 258
    Number of Cartesian functions: 270
    Spherical Harmonics?: true
    Max angular momentum: 2

  ==> Pre-Iterations <==

   -------------------------------------------------------
    Irrep   Nso     Nmo     Nalpha   Nbeta   Ndocc  Nsocc
   -------------------------------------------------------
     A        258     258       0       0       0       0
   -------------------------------------------------------
    Total     258     258      46      46      46       0
   -------------------------------------------------------

  ==> Integral Setup <==

  Using integral reordering PK algorithm.
  Sizing the integral batches needed.
  Building batch lookup table.
   Calculation information:
      Number of atoms:                  30
      Number of AO shells:             126
      Number of primitives:            354
      Number of atomic orbitals:       270
      Number of basis functions:       258

      Integral cutoff                 1.00e-12
      Number of threads:                 1

	Batch   1 pq = [       0,    9405] index = [             0,44231715] size =     44231715
	Batch   2 pq = [    9405,   13301] index = [      44231715,88464951] size =     44233236
	Batch   3 pq = [   13301,   16290] index = [      88464951,132690195] size =     44225244
	Batch   4 pq = [   16290,   18810] index = [     132690195,176917455] size =     44227260
	Batch   5 pq = [   18810,   21030] index = [     176917455,221140965] size =     44223510
	Batch   6 pq = [   21030,   23037] index = [     221140965,265363203] size =     44222238
	Batch   7 pq = [   23037,   24883] index = [     265363203,309594286] size =     44231083
	Batch   8 pq = [   24883,   26601] index = [     309594286,353819901] size =     44225615
	Batch   9 pq = [   26601,   28214] index = [     353819901,398029005] size =     44209104
	Batch  10 pq = [   28214,   29740] index = [     398029005,442248670] size =     44219665
	Batch  11 pq = [   29740,   31191] index = [     442248670,486454836] size =     44206166
	Batch  12 pq = [   31191,   32578] index = [     486454836,530679331] size =     44224495
	Batch  13 pq = [   32578,   33411] index = [     530679331,558164166] size =     27484835
  Task number: 51
  Buffer size: 11059200
  Buffer per thread: 2
  We computed 34245503 shell quartets total.
  Whereas there are 32012001 unique shell quartets.
     6.98 percent of shell quartets recomputed by reordering.

  ==> DiskJK: Disk-Based J/K Matrices <==

    J tasked:                  Yes
    K tasked:                  Yes
    wK tasked:                  No
    Memory [MiB]:              375
    Schwarz Cutoff:          1E-12

    OpenMP threads:              1

  Minimum eigenvalue in the overlap matrix is 3.5192520794E-04.
  Using Symmetric Orthogonalization.

  SCF Guess: Superposition of Atomic Densities via on-the-fly atomic UHF.

  ==> Iterations <==

                        Total Energy        Delta E     RMS |[F,P]|

   @RHF iter SAD:  -500.41570137642861   -5.00416e+02   0.00000e+00
   @RHF iter   1:  -501.60902503695667   -1.19332e+00   2.66424e-03 DIIS
   @RHF iter   2:  -501.87398116853080   -2.64956e-01   1.15156e-03 DIIS
   @RHF iter   3:  -501.91861916843197   -4.46380e-02   2.71623e-04 DIIS
   @RHF iter   4:  -501.92239756021644   -3.77839e-03   1.14178e-04 DIIS
   @RHF iter   5:  -501.92290883110752   -5.11271e-04   1.93628e-05 DIIS
   @RHF iter   6:  -501.92293016483268   -2.13337e-05   6.97330e-06 DIIS
   @RHF iter   7:  -501.92293297116669   -2.80633e-06   1.98488e-06 DIIS
   @RHF iter   8:  -501.92293335254766   -3.81381e-07   7.83821e-07 DIIS
   @RHF iter   9:  -501.92293342249729   -6.99496e-08   3.76945e-07 DIIS
   @RHF iter  10:  -501.92293343884347   -1.63462e-08   1.67304e-07 DIIS
   @RHF iter  11:  -501.92293344443902   -5.59555e-09   6.96139e-08 DIIS
   @RHF iter  12:  -501.92293344535852   -9.19499e-10   2.80788e-08 DIIS
   @RHF iter  13:  -501.92293344546499   -1.06468e-10   9.03857e-09 DIIS
   @RHF iter  14:  -501.92293344547227   -7.27596e-12   2.55765e-09 DIIS
   @RHF iter  15:  -501.92293344546852    3.75167e-12   8.00246e-10 DIIS
   @RHF iter  16:  -501.92293344547244   -3.92220e-12   3.00556e-10 DIIS
   @RHF iter  17:  -501.92293344547136    1.08002e-12   1.37940e-10 DIIS
   @RHF iter  18:  -501.92293344547295   -1.59162e-12   6.98205e-11 DIIS
  Energy and wave function converged.

  ==> Post-Iterations <==

    Orbital Energies [Eh]
    ---------------------

    Doubly Occupied:

       1A    -20.586455     2A    -11.306925     3A    -11.245565
       4A    -11.244136     5A    -11.241255     6A    -11.237412
       7A    -11.233948     8A    -11.232784     9A    -11.222829
      10A    -11.213529    11A    -11.208636    12A    -11.205369
      13A     -1.396894    14A     -1.146043    15A     -1.063279
      16A     -1.035762    17A     -1.011126    18A     -0.928300
      19A     -0.918842    20A     -0.914615    21A     -0.846120
      22A     -0.801274    23A     -0.757727    24A     -0.731056
      25A     -0.662643    26A     -0.642360    27A     -0.617255
      28A     -0.610744    29A     -0.586279    30A     -0.582461
      31A     -0.579795    32A     -0.574961    33A     -0.569416
      34A     -0.564339    35A     -0.530696    36A     -0.528021
      37A     -0.525999    38A     -0.501939    39A     -0.499963
      40A     -0.486264    41A     -0.464493    42A     -0.453007
      43A     -0.447087    44A     -0.443672    45A     -0.334291
      46A     -0.305723

    Virtual:

      47A      0.122258    48A      0.147691    49A      0.170392
      50A      0.179087    51A      0.200893    52A      0.208918
      53A      0.212161    54A      0.238624    55A      0.244701
      56A      0.249459    57A      0.252457    58A      0.258645
      59A      0.272290    60A      0.277874    61A      0.284953
      62A      0.292805    63A      0.304480    64A      0.313944
      65A      0.317800    66A      0.341089    67A      0.364126
      68A      0.365835    69A      0.374275    70A      0.407960
      71A      0.414223    72A      0.425192    73A      0.450193
      74A      0.478695    75A      0.484254    76A      0.508224
      77A      0.560108    78A      0.575100    79A      0.593158
      80A      0.604683    81A      0.616715    82A      0.621110
      83A      0.640936    84A      0.659268    85A      0.674178
      86A      0.690657    87A      0.707651    88A      0.716187
      89A      0.732842    90A      0.744560    91A      0.751828
      92A      0.764760    93A      0.772061    94A      0.776906
      95A      0.788043    96A      0.802658    97A      0.811326
      98A      0.825264    99A      0.837244   100A      0.844544
     101A      0.852878   102A      0.865093   103A      0.868799
     104A      0.869108   105A      0.879129   106A      0.881111
     107A      0.886692   108A      0.892464   109A      0.900684
     110A      0.909777   111A      0.912638   112A      0.920966
     113A      0.922704   114A      0.928833   115A      0.936121
     116A      0.951225   117A      0.953966   118A      0.964613
     119A      0.976931   120A      0.988753   121A      1.000473
     122A      1.011426   123A      1.029613   124A      1.045407
     125A      1.068432   126A      1.090791   127A      1.127032
     128A      1.128440   129A      1.133600   130A      1.139316
     131A      1.157134   132A      1.167742   133A      1.207225
     134A      1.216731   135A      1.230035   136A      1.237050
     137A      1.254530   138A      1.278970   139A      1.295612
     140A      1.299776   141A      1.322983   142A      1.335950
     143A      1.353976   144A      1.373357   145A      1.396470
     146A      1.401548   147A      1.416595   148A      1.484578
     149A      1.490578   150A      1.523575   151A      1.532902
     152A      1.561154   153A      1.576389   154A      1.612310
     155A      1.621041   156A      1.657783   157A      1.668000
     158A      1.676923   159A      1.688907   160A      1.694505
     161A      1.694860   162A      1.704877   163A      1.720734
     164A      1.726894   165A      1.735896   166A      1.756575
     167A      1.791323   168A      1.795470   169A      1.809653
     170A      1.830323   171A      1.844758   172A      1.850760
     173A      1.870183   174A      1.885029   175A      1.888319
     176A      1.890176   177A      1.911443   178A      1.923470
     179A      1.928790   180A      1.939195   181A      1.948072
     182A      1.958162   183A      1.965208   184A      1.969556
     185A      1.978101   186A      1.979833   187A      1.985295
     188A      1.998003   189A      2.010246   190A      2.012820
     191A      2.024984   192A      2.040938   193A      2.047206
     194A      2.056325   195A      2.062095   196A      2.073659
     197A      2.081460   198A      2.099039   199A      2.123068
     200A      2.127680   201A      2.140581   202A      2.153453
     203A      2.157702   204A      2.201468   205A      2.216833
     206A      2.249589   207A      2.255227   208A      2.263882
     209A      2.268665   210A      2.296854   211A      2.305516
     212A      2.318211   213A      2.327153   214A      2.344858
     215A      2.357312   216A      2.364871   217A      2.389174
     218A      2.411577   219A      2.438374   220A      2.474020
     221A      2.483098   222A      2.495340   223A      2.510490
     224A      2.524087   225A      2.563045   226A      2.579776
     227A      2.593609   228A      2.607516   229A      2.631698
     230A      2.704288   231A      2.720917   232A      2.747575
     233A      2.759538   234A      2.770899   235A      2.777831
     236A      2.785901   237A      2.798314   238A      2.801450
     239A      2.814688   240A      2.834106   241A      2.847813
     242A      2.852010   243A      2.877217   244A      2.891851
     245A      2.940278   246A      3.001448   247A      3.017336
     248A      3.025304   249A      3.048710   250A      3.084848
     251A      3.110725   252A      3.232100   253A      3.262973
     254A      3.346272   255A      3.532302   256A      3.648491
     257A      3.909576   258A      4.188174

    Final Occupation by Irrep:
              A
    DOCC [    46 ]

  @RHF Final Energy:  -501.92293344547295

   => Energetics <=

    Nuclear Repulsion Energy =            687.6645975838272307
    One-Electron Energy =               -2044.6924920157166525
    Two-Electron Energy =                 855.1049609864163585
    Total Energy =                       -501.9229334454729496

Computation Completed

Properties will be evaluated at   0.000000,   0.000000,   0.000000 [a0]

Properties computed using the SCF density matrix

  Nuclear Dipole Moment: [e a0]
     X:     3.2078      Y:    -5.7700      Z:    18.2756

  Electronic Dipole Moment: [e a0]
     X:    -2.8807      Y:     6.2254      Z:   -18.2819

  Dipole Moment: [e a0]
     X:     0.3270      Y:     0.4554      Z:    -0.0063     Total:     0.5607

  Dipole Moment: [D]
     X:     0.8312      Y:     1.1574      Z:    -0.0161     Total:     1.4251

*** tstop() called on ds3 at Tue Apr 28 12:10:42 2020
Module time:
	user time   =     252.62 seconds =       4.21 minutes
	system time =      88.60 seconds =       1.48 minutes
	total time  =        430 seconds =       7.17 minutes
Total time:
	user time   =     252.62 seconds =       4.21 minutes
	system time =      88.60 seconds =       1.48 minutes
	total time  =        430 seconds =       7.17 minutes
                                     G D M A

                                 by Anthony Stone

                           version 2.2.06, 22 June 2011

               Distributed Multipoles from Gaussian wavefunctions

Starting at 12:10:42 on 28 Apr 2020

Using SCF density matrix from file ./SSI/SSI-064ILE-084TYR-2-dimer.test.32646.fchk

                         Distributed Multipole Analysis

Standard DMA

Positions and radii in angstrom
Multipole moments in atomic units, ea_0^k for rank k

C          x =  0.465391  y = -1.387798  z =  2.318096 angstrom
           Maximum rank =  0   Radius =  0.650 angstrom
                   Q00  =   0.011239

C          x =  0.285391  y = -2.334798  z =  3.554096 angstrom
           Maximum rank =  0   Radius =  0.650 angstrom
                   Q00  =  -0.267932

C          x =  1.647391  y = -0.413798  z =  2.539096 angstrom
           Maximum rank =  0   Radius =  0.650 angstrom
                   Q00  =  -0.242773

C          x =  0.671391  y = -2.193798  z =  1.013096 angstrom
           Maximum rank =  0   Radius =  0.650 angstrom
                   Q00  =  -0.246572

H          x = -0.450609  y = -0.806798  z =  2.180096 angstrom
           Maximum rank =  0   Radius =  0.325 angstrom
                   Q00  =   0.017910

H          x = -0.390609  y = -3.149798  z =  3.300096 angstrom
           Maximum rank =  0   Radius =  0.325 angstrom
                   Q00  =   0.080175

H          x =  2.567391  y = -0.974798  z =  2.678096 angstrom
           Maximum rank =  0   Radius =  0.325 angstrom
                   Q00  =   0.077161

H          x =  1.760391  y =  0.240202  z =  1.674096 angstrom
           Maximum rank =  0   Radius =  0.325 angstrom
                   Q00  =   0.086441

H          x =  1.466391  y =  0.194202  z =  3.426096 angstrom
           Maximum rank =  0   Radius =  0.325 angstrom
                   Q00  =   0.076367

H          x =  0.925391  y = -1.507798  z =  0.202096 angstrom
           Maximum rank =  0   Radius =  0.325 angstrom
                   Q00  =   0.093004

H          x =  1.492391  y = -2.895798  z =  1.153096 angstrom
           Maximum rank =  0   Radius =  0.325 angstrom
                   Q00  =   0.068466

H          x = -0.110219  y = -1.773038  z =  4.413116 angstrom
           Maximum rank =  0   Radius =  0.325 angstrom
                   Q00  =   0.082497

H          x =  1.209261  y = -2.860358  z =  3.837366 angstrom
           Maximum rank =  0   Radius =  0.325 angstrom
                   Q00  =   0.079543

H          x = -0.240239  y = -2.747768  z =  0.744676 angstrom
           Maximum rank =  0   Radius =  0.325 angstrom
                   Q00  =   0.080407

C          x = -1.347609  y =  2.055202  z =  1.282096 angstrom
           Maximum rank =  0   Radius =  0.650 angstrom
                   Q00  =  -0.204814

C          x = -0.802609  y =  1.359202  z =  0.032096 angstrom
           Maximum rank =  0   Radius =  0.650 angstrom
                   Q00  =  -0.123923

C          x =  0.443391  y =  1.685202  z = -0.508904 angstrom
           Maximum rank =  0   Radius =  0.650 angstrom
                   Q00  =  -0.036005

C          x = -1.611609  y =  0.473202  z = -0.669904 angstrom
           Maximum rank =  0   Radius =  0.650 angstrom
                   Q00  =   0.021392

C          x =  0.866391  y =  1.164202  z = -1.763904 angstrom
           Maximum rank =  0   Radius =  0.650 angstrom
                   Q00  =  -0.206262

C          x = -1.218609  y = -0.057798  z = -1.916904 angstrom
           Maximum rank =  0   Radius =  0.650 angstrom
                   Q00  =  -0.095643

C          x =  0.001391  y =  0.306202  z = -2.484904 angstrom
           Maximum rank =  0   Radius =  0.650 angstrom
                   Q00  =   0.309554

O          x =  0.234391  y = -0.103798  z = -3.775904 angstrom
           Maximum rank =  0   Radius =  0.650 angstrom
                   Q00  =  -0.670257

H          x = -0.519609  y =  2.342202  z =  1.929096 angstrom
           Maximum rank =  0   Radius =  0.325 angstrom
                   Q00  =   0.095833

H          x = -1.993609  y =  1.361202  z =  1.829096 angstrom
           Maximum rank =  0   Radius =  0.325 angstrom
                   Q00  =   0.098854

H          x =  1.080391  y =  2.345202  z =  0.051096 angstrom
           Maximum rank =  0   Radius =  0.325 angstrom
                   Q00  =   0.073221

H          x = -2.565609  y =  0.202202  z = -0.237904 angstrom
           Maximum rank =  0   Radius =  0.325 angstrom
                   Q00  =   0.064708

H          x =  1.872391  y =  1.340202  z = -2.129904 angstrom
           Maximum rank =  0   Radius =  0.325 angstrom
                   Q00  =   0.082843

H          x = -1.865609  y = -0.738798  z = -2.452904 angstrom
           Maximum rank =  0   Radius =  0.325 angstrom
                   Q00  =   0.083384

H          x =  1.034391  y =  0.264202  z = -4.159904 angstrom
           Maximum rank =  0   Radius =  0.325 angstrom
                   Q00  =   0.407036

H          x = -1.851749  y =  3.011012  z =  1.076466 angstrom
           Maximum rank =  0   Radius =  0.325 angstrom
                   Q00  =   0.104147

Total multipoles referred to origin at
           x =   0.000000,  y =    0.000000,  z =    0.000000 angstrom
                   Q00  =  -0.000000

Finished at 12:10:42 on 28 Apr 2020

  DMA results are available in the Python driver through the
	  variable('DMA DISTRIBUTED MULTIPOLES')
  and
	  variable('DMA TOTAL MULTIPOLES')
  commands.

    Psi4 stopped on: Tuesday, 28 April 2020 12:10PM
    Psi4 wall time for execution: 0:07:09.78

*** Psi4 exiting successfully. Buy a developer a beer!
