                               Psi4 1.3.2 release

  ==> Input File <==

--------------------------------------------------------------------------
import numpy as np
set {scf_type pk
basis cc-pvdz
d_convergence 10
gdma_switch   0
gdma_limit    0
gdma_origin   [ 0.0,  0.0,  0.0 ]
}
molecule test {
    units Angstrom
    0 1
    --
    0 1
    C                1.872657764891789    -0.716762716924071     0.024818483625604
    C                2.318657764891789    -0.491762716925071     1.442818483625604
    C                2.718657764891789     0.188237283075929    -0.883181516374396
    H                0.819657764891790    -0.459762716925071    -0.045181516374396
    H                2.015657764891789    -1.764762716925071    -0.225181516374396
    H                1.473657764891790    -0.290762716925071     2.103818483625604
    H                2.880657764891790    -1.346762716925071     1.821818483625604
    H                2.066657764891790     0.628237283075929    -1.633181516374396
    H                3.536657764891789    -0.343762716925071    -1.376181516374396
    H                2.975907764891789     0.389037283075929     1.396298483625604
    H                3.124917764891789     0.966937283075929    -0.220951516374396
    C               -1.839342235108210     0.075237283075929    -0.381181516374396
    C               -1.871342235108210     1.065237283074929     0.795818483625604
    C               -3.209342235108211    -0.169762716925071    -1.029181516374396
    H               -1.154342235108210     0.467237283074929    -1.130181516374396
    H               -1.444342235108210    -0.867762716925071    -0.006181516374396
    H               -0.850342235108210     1.091237283074929     1.186818483625604
    H               -3.607342235108210     0.767237283074929    -1.415181516374396
    H               -3.103342235108210    -0.878762716925071    -1.849181516374396
    H               -3.896342235108210    -0.578762716925071    -0.290181516374396
    H               -2.155892235108210     2.071037283074929     0.453228483625604
    H               -2.562122235108211     0.740437283075929     1.587868483625604

}
e, wfn = energy('scf', return_wfn=True)
gdma(wfn)
dmavals = variable('DMA DISTRIBUTED MULTIPOLES')
charges = np.array(dmavals)
print(charges)
np.save('SSI-212PRO-215ILE-1-dimer.npy', np.array(charges))--------------------------------------------------------------------------

*** tstart() called on ds3
*** at Mon Apr 27 23:24:00 2020

   => Loading Basis Set <=

    Name: CC-PVDZ
    Role: ORBITAL
    Keyword: BASIS
    atoms 1-3, 12-14  entry C          line   138 file /theoryfs2/ds/metcalf/miniconda2/envs/tf2gpu/share/psi4/basis/cc-pvdz.gbs
    atoms 4-11, 15-22 entry H          line    22 file /theoryfs2/ds/metcalf/miniconda2/envs/tf2gpu/share/psi4/basis/cc-pvdz.gbs

         ---------------------------------------------------------
                                   SCF
               by Justin Turney, Rob Parrish, Andy Simmonett
                          and Daniel G. A. Smith
                              RHF Reference
                        1 Threads,    500 MiB Core
         ---------------------------------------------------------

  ==> Geometry <==

    Molecular point group: c1
    Full point group: C1

    Geometry (in Angstrom), charge = 0, multiplicity = 1:

       Center              X                  Y                   Z               Mass
    ------------   -----------------  -----------------  -----------------  -----------------
         C            1.872657764892    -0.716762716924     0.024818483626    12.000000000000
         C            2.318657764892    -0.491762716925     1.442818483626    12.000000000000
         C            2.718657764892     0.188237283076    -0.883181516374    12.000000000000
         H            0.819657764892    -0.459762716925    -0.045181516374     1.007825032230
         H            2.015657764892    -1.764762716925    -0.225181516374     1.007825032230
         H            1.473657764892    -0.290762716925     2.103818483626     1.007825032230
         H            2.880657764892    -1.346762716925     1.821818483626     1.007825032230
         H            2.066657764892     0.628237283076    -1.633181516374     1.007825032230
         H            3.536657764892    -0.343762716925    -1.376181516374     1.007825032230
         H            2.975907764892     0.389037283076     1.396298483626     1.007825032230
         H            3.124917764892     0.966937283076    -0.220951516374     1.007825032230
         C           -1.839342235108     0.075237283076    -0.381181516374    12.000000000000
         C           -1.871342235108     1.065237283075     0.795818483626    12.000000000000
         C           -3.209342235108    -0.169762716925    -1.029181516374    12.000000000000
         H           -1.154342235108     0.467237283075    -1.130181516374     1.007825032230
         H           -1.444342235108    -0.867762716925    -0.006181516374     1.007825032230
         H           -0.850342235108     1.091237283075     1.186818483626     1.007825032230
         H           -3.607342235108     0.767237283075    -1.415181516374     1.007825032230
         H           -3.103342235108    -0.878762716925    -1.849181516374     1.007825032230
         H           -3.896342235108    -0.578762716925    -0.290181516374     1.007825032230
         H           -2.155892235108     2.071037283075     0.453228483626     1.007825032230
         H           -2.562122235108     0.740437283076     1.587868483626     1.007825032230

  Running in c1 symmetry.

  Rotational constants: A =      0.15420  B =      0.03064  C =      0.02834 [cm^-1]
  Rotational constants: A =   4622.91688  B =    918.60654  C =    849.64707 [MHz]
  Nuclear repulsion =  240.367645064915052

  Charge       = 0
  Multiplicity = 1
  Electrons    = 52
  Nalpha       = 26
  Nbeta        = 26

  ==> Algorithm <==

  SCF Algorithm Type is PK.
  DIIS enabled.
  MOM disabled.
  Fractional occupation disabled.
  Guess Type is SAD.
  Energy threshold   = 1.00e-06
  Density threshold  = 1.00e-10
  Integral threshold = 0.00e+00

  ==> Primary Basis <==

  Basis Set: CC-PVDZ
    Blend: CC-PVDZ
    Number of shells: 84
    Number of basis function: 164
    Number of Cartesian functions: 170
    Spherical Harmonics?: true
    Max angular momentum: 2

  ==> Pre-Iterations <==

   -------------------------------------------------------
    Irrep   Nso     Nmo     Nalpha   Nbeta   Ndocc  Nsocc
   -------------------------------------------------------
     A        164     164       0       0       0       0
   -------------------------------------------------------
    Total     164     164      26      26      26       0
   -------------------------------------------------------

  ==> Integral Setup <==

  Using integral reordering PK algorithm.
  Sizing the integral batches needed.
  Building batch lookup table.
   Calculation information:
      Number of atoms:                  22
      Number of AO shells:              84
      Number of primitives:            212
      Number of atomic orbitals:       170
      Number of basis functions:       164

      Integral cutoff                 1.00e-12
      Number of threads:                 1

	Batch   1 pq = [       0,    9405] index = [             0,44231715] size =     44231715
	Batch   2 pq = [    9405,   13530] index = [      44231715,91537215] size =     47305500
  Task number: 9
  Buffer size: 11059200
  Buffer per thread: 2
  We computed 5533825 shell quartets total.
  Whereas there are 6374235 unique shell quartets.

  ==> DiskJK: Disk-Based J/K Matrices <==

    J tasked:                  Yes
    K tasked:                  Yes
    wK tasked:                  No
    Memory [MiB]:              375
    Schwarz Cutoff:          1E-12

    OpenMP threads:              1

  Minimum eigenvalue in the overlap matrix is 4.6039381294E-03.
  Using Symmetric Orthogonalization.

  SCF Guess: Superposition of Atomic Densities via on-the-fly atomic UHF.

  ==> Iterations <==

                        Total Energy        Delta E     RMS |[F,P]|

   @RHF iter SAD:  -235.47236866717643   -2.35472e+02   0.00000e+00
   @RHF iter   1:  -236.29652639972306   -8.24158e-01   3.51457e-03 DIIS
   @RHF iter   2:  -236.48374031755895   -1.87214e-01   1.52478e-03 DIIS
   @RHF iter   3:  -236.51734997718643   -3.36097e-02   3.05145e-04 DIIS
   @RHF iter   4:  -236.51993284255153   -2.58287e-03   4.87655e-05 DIIS
   @RHF iter   5:  -236.51998401228965   -5.11697e-05   1.37521e-05 DIIS
   @RHF iter   6:  -236.51998824470763   -4.23242e-06   2.29005e-06 DIIS
   @RHF iter   7:  -236.51998837579302   -1.31085e-07   4.35330e-07 DIIS
   @RHF iter   8:  -236.51998838152309   -5.73007e-09   8.14606e-08 DIIS
   @RHF iter   9:  -236.51998838174256   -2.19472e-10   2.43070e-08 DIIS
   @RHF iter  10:  -236.51998838175811   -1.55467e-11   7.12319e-09 DIIS
   @RHF iter  11:  -236.51998838176087   -2.75691e-12   1.51361e-09 DIIS
   @RHF iter  12:  -236.51998838176155   -6.82121e-13   3.99059e-10 DIIS
   @RHF iter  13:  -236.51998838175979    1.76215e-12   9.56944e-11 DIIS
  Energy and wave function converged.

  ==> Post-Iterations <==

    Orbital Energies [Eh]
    ---------------------

    Doubly Occupied:

       1A    -11.221596     2A    -11.219600     3A    -11.215889
       4A    -11.214100     5A    -11.212019     6A    -11.209501
       7A     -1.061875     8A     -1.051887     9A     -0.926361
      10A     -0.917844    11A     -0.801313    12A     -0.794063
      13A     -0.630498    14A     -0.626843    15A     -0.615587
      16A     -0.591922    17A     -0.553797    18A     -0.541941
      19A     -0.534459    20A     -0.517992    21A     -0.480414
      22A     -0.473277    23A     -0.471884    24A     -0.466313
      25A     -0.461100    26A     -0.457885

    Virtual:

      27A      0.164445    28A      0.195499    29A      0.207038
      30A      0.217497    31A      0.225438    32A      0.232850
      33A      0.244242    34A      0.259396    35A      0.268690
      36A      0.276326    37A      0.293609    38A      0.302316
      39A      0.317963    40A      0.319431    41A      0.337917
      42A      0.351044    43A      0.384745    44A      0.403968
      45A      0.436854    46A      0.453879    47A      0.559655
      48A      0.588429    49A      0.594505    50A      0.606474
      51A      0.614935    52A      0.618191    53A      0.635600
      54A      0.683064    55A      0.693927    56A      0.739538
      57A      0.751622    58A      0.780643    59A      0.794661
      60A      0.808151    61A      0.833696    62A      0.858489
      63A      0.870994    64A      0.880364    65A      0.887326
      66A      0.893130    67A      0.896267    68A      0.901710
      69A      0.905517    70A      0.912327    71A      0.918135
      72A      0.921473    73A      0.928716    74A      0.933974
      75A      0.942507    76A      0.953261    77A      0.964434
      78A      0.986578    79A      1.009024    80A      1.016386
      81A      1.070787    82A      1.091055    83A      1.125100
      84A      1.139347    85A      1.215558    86A      1.318457
      87A      1.382059    88A      1.412199    89A      1.464359
      90A      1.469305    91A      1.486169    92A      1.512854
      93A      1.544168    94A      1.603459    95A      1.623118
      96A      1.638172    97A      1.662615    98A      1.679356
      99A      1.688388   100A      1.692398   101A      1.714966
     102A      1.741828   103A      1.799734   104A      1.861100
     105A      1.866155   106A      1.874898   107A      1.880529
     108A      1.892326   109A      1.897029   110A      1.906325
     111A      1.918988   112A      1.926425   113A      1.939629
     114A      1.941695   115A      1.962605   116A      1.971612
     117A      1.976021   118A      1.982876   119A      1.989210
     120A      1.993577   121A      1.998362   122A      2.018274
     123A      2.033108   124A      2.046626   125A      2.053399
     126A      2.073681   127A      2.136472   128A      2.148423
     129A      2.187941   130A      2.263305   131A      2.270283
     132A      2.295141   133A      2.317582   134A      2.340110
     135A      2.349958   136A      2.357543   137A      2.367875
     138A      2.391794   139A      2.424503   140A      2.485156
     141A      2.502281   142A      2.530083   143A      2.573202
     144A      2.579089   145A      2.607377   146A      2.621523
     147A      2.687551   148A      2.711507   149A      2.755725
     150A      2.761527   151A      2.770007   152A      2.783527
     153A      2.796032   154A      2.804340   155A      2.825868
     156A      2.837593   157A      2.847304   158A      2.887858
     159A      2.904533   160A      2.954840   161A      2.975146
     162A      2.991111   163A      3.049828   164A      3.072264

    Final Occupation by Irrep:
              A
    DOCC [    26 ]

  @RHF Final Energy:  -236.51998838175979

   => Energetics <=

    Nuclear Repulsion Energy =            240.3676450649150524
    One-Electron Energy =                -793.2353410362238719
    Two-Electron Energy =                 316.3477075895490884
    Total Energy =                       -236.5199883817597879

Computation Completed

Properties will be evaluated at   0.000000,   0.000000,   0.000000 [a0]

Properties computed using the SCF density matrix

  Nuclear Dipole Moment: [e a0]
     X:     0.1122      Y:     0.5534      Z:     0.3359

  Electronic Dipole Moment: [e a0]
     X:    -0.1392      Y:    -0.5984      Z:    -0.3717

  Dipole Moment: [e a0]
     X:    -0.0270      Y:    -0.0450      Z:    -0.0359     Total:     0.0636

  Dipole Moment: [D]
     X:    -0.0685      Y:    -0.1145      Z:    -0.0912     Total:     0.1616

*** tstop() called on ds3 at Mon Apr 27 23:24:45 2020
Module time:
	user time   =      31.47 seconds =       0.52 minutes
	system time =      14.71 seconds =       0.25 minutes
	total time  =         45 seconds =       0.75 minutes
Total time:
	user time   =      31.47 seconds =       0.52 minutes
	system time =      14.71 seconds =       0.25 minutes
	total time  =         45 seconds =       0.75 minutes
                                     G D M A

                                 by Anthony Stone

                           version 2.2.06, 22 June 2011

               Distributed Multipoles from Gaussian wavefunctions

Starting at 23:24:45 on 27 Apr 2020

Using SCF density matrix from file ./SSI/SSI-212PRO-215ILE-1-dimer.test.2640.fchk

                         Distributed Multipole Analysis

Standard DMA

Positions and radii in angstrom
Multipole moments in atomic units, ea_0^k for rank k

C          x =  1.872658  y = -0.716763  z =  0.024818 angstrom
           Maximum rank =  0   Radius =  0.650 angstrom
                   Q00  =  -0.120112

C          x =  2.318658  y = -0.491763  z =  1.442818 angstrom
           Maximum rank =  0   Radius =  0.650 angstrom
                   Q00  =  -0.229430

C          x =  2.718658  y =  0.188237  z = -0.883182 angstrom
           Maximum rank =  0   Radius =  0.650 angstrom
                   Q00  =  -0.226919

H          x =  0.819658  y = -0.459763  z = -0.045182 angstrom
           Maximum rank =  0   Radius =  0.325 angstrom
                   Q00  =   0.062666

H          x =  2.015658  y = -1.764763  z = -0.225182 angstrom
           Maximum rank =  0   Radius =  0.325 angstrom
                   Q00  =   0.056488

H          x =  1.473658  y = -0.290763  z =  2.103818 angstrom
           Maximum rank =  0   Radius =  0.325 angstrom
                   Q00  =   0.084382

H          x =  2.880658  y = -1.346763  z =  1.821818 angstrom
           Maximum rank =  0   Radius =  0.325 angstrom
                   Q00  =   0.083697

H          x =  2.066658  y =  0.628237  z = -1.633182 angstrom
           Maximum rank =  0   Radius =  0.325 angstrom
                   Q00  =   0.086233

H          x =  3.536658  y = -0.343763  z = -1.376182 angstrom
           Maximum rank =  0   Radius =  0.325 angstrom
                   Q00  =   0.084720

H          x =  2.975908  y =  0.389037  z =  1.396298 angstrom
           Maximum rank =  0   Radius =  0.325 angstrom
                   Q00  =   0.059219

H          x =  3.124918  y =  0.966937  z = -0.220952 angstrom
           Maximum rank =  0   Radius =  0.325 angstrom
                   Q00  =   0.055742

C          x = -1.839342  y =  0.075237  z = -0.381182 angstrom
           Maximum rank =  0   Radius =  0.650 angstrom
                   Q00  =  -0.078673

C          x = -1.871342  y =  1.065237  z =  0.795818 angstrom
           Maximum rank =  0   Radius =  0.650 angstrom
                   Q00  =  -0.262367

C          x = -3.209342  y = -0.169763  z = -1.029182 angstrom
           Maximum rank =  0   Radius =  0.650 angstrom
                   Q00  =  -0.230906

H          x = -1.154342  y =  0.467237  z = -1.130182 angstrom
           Maximum rank =  0   Radius =  0.325 angstrom
                   Q00  =   0.046673

H          x = -1.444342  y = -0.867763  z = -0.006182 angstrom
           Maximum rank =  0   Radius =  0.325 angstrom
                   Q00  =   0.045167

H          x = -0.850342  y =  1.091237  z =  1.186818 angstrom
           Maximum rank =  0   Radius =  0.325 angstrom
                   Q00  =   0.081491

H          x = -3.607342  y =  0.767237  z = -1.415182 angstrom
           Maximum rank =  0   Radius =  0.325 angstrom
                   Q00  =   0.078574

H          x = -3.103342  y = -0.878763  z = -1.849182 angstrom
           Maximum rank =  0   Radius =  0.325 angstrom
                   Q00  =   0.085804

H          x = -3.896342  y = -0.578763  z = -0.290182 angstrom
           Maximum rank =  0   Radius =  0.325 angstrom
                   Q00  =   0.079437

H          x = -2.155892  y =  2.071037  z =  0.453228 angstrom
           Maximum rank =  0   Radius =  0.325 angstrom
                   Q00  =   0.078537

H          x = -2.562122  y =  0.740437  z =  1.587868 angstrom
           Maximum rank =  0   Radius =  0.325 angstrom
                   Q00  =   0.079578

Total multipoles referred to origin at
           x =   0.000000,  y =    0.000000,  z =    0.000000 angstrom
                   Q00  =  -0.000000

Finished at 23:24:45 on 27 Apr 2020

  DMA results are available in the Python driver through the
	  variable('DMA DISTRIBUTED MULTIPOLES')
  and
	  variable('DMA TOTAL MULTIPOLES')
  commands.

    Psi4 stopped on: Monday, 27 April 2020 11:24PM
    Psi4 wall time for execution: 0:00:44.50

*** Psi4 exiting successfully. Buy a developer a beer!
