                               Psi4 1.3.2 release

  ==> Input File <==

--------------------------------------------------------------------------
import numpy as np
set {scf_type pk
basis cc-pvdz
d_convergence 10
gdma_switch   0
gdma_limit    0
gdma_origin   [ 0.0,  0.0,  0.0 ]
}
molecule test {
    units Angstrom
    0 1
    --
    0 1
    C                1.939688240619003    -2.362474252872733     0.779276152006852
    C                3.001688240619003    -1.913474252872733     1.779276152006852
    H                1.975688240619003    -3.442474252872733     0.647276152006852
    H                0.951688240619003    -2.078474252872733     1.141276152006851
    H                2.104688240619003    -1.870474252872733    -0.177723847993149
    H                2.957688240619003    -0.826474252872733     1.851276152006852
    H                4.002391140619004    -2.208814252872733     1.430896152006851
    H                2.785643240619003    -2.323964252872733     2.776686152006851
    C               -0.654311759380997     1.470525747127267    -2.731723847993149
    C               -0.919311759380997     0.111525747127267     1.335276152006852
    C                0.166688240619003     0.872525747127267     0.925276152006851
    C               -1.920311759380997    -0.210474252872733     0.428276152006851
    C                0.250688240619003     1.310525747127267    -0.391723847993149
    C               -1.833311759380997     0.228525747127267    -0.888723847993148
    C               -0.748311759380997     0.989525747127267    -1.308723847993148
    H               -0.984311759380997    -0.229474252872733     2.360276152006851
    H                0.949688240619003     1.116525747127267     1.626276152006852
    H               -2.771311759380997    -0.794474252872733     0.750276152006852
    H                1.096688240619003     1.908525747127267    -0.700723847993149
    H               -2.620311759380997    -0.025474252872733    -1.583723847993148
    H               -0.401311759380997     2.531525747127267    -2.700723847993149
    H               -1.624311759380997     1.381525747127267    -3.223723847993148
    H                0.112279240619003     0.947495747127267    -3.322293847993149

}
e, wfn = energy('scf', return_wfn=True)
gdma(wfn)
dmavals = variable('DMA DISTRIBUTED MULTIPOLES')
charges = np.array(dmavals)
print(charges)
np.save('SSI-022LEU-058PHE-1-dimer.npy', np.array(charges))--------------------------------------------------------------------------

*** tstart() called on ds3
*** at Mon Apr 27 08:18:54 2020

   => Loading Basis Set <=

    Name: CC-PVDZ
    Role: ORBITAL
    Keyword: BASIS
    atoms 1-2, 9-15  entry C          line   138 file /theoryfs2/ds/metcalf/miniconda2/envs/tf2gpu/share/psi4/basis/cc-pvdz.gbs
    atoms 3-8, 16-23 entry H          line    22 file /theoryfs2/ds/metcalf/miniconda2/envs/tf2gpu/share/psi4/basis/cc-pvdz.gbs

         ---------------------------------------------------------
                                   SCF
               by Justin Turney, Rob Parrish, Andy Simmonett
                          and Daniel G. A. Smith
                              RHF Reference
                        1 Threads,    500 MiB Core
         ---------------------------------------------------------

  ==> Geometry <==

    Molecular point group: c1
    Full point group: C1

    Geometry (in Angstrom), charge = 0, multiplicity = 1:

       Center              X                  Y                   Z               Mass
    ------------   -----------------  -----------------  -----------------  -----------------
         C            1.939688240619    -2.362474252873     0.779276152007    12.000000000000
         C            3.001688240619    -1.913474252873     1.779276152007    12.000000000000
         H            1.975688240619    -3.442474252873     0.647276152007     1.007825032230
         H            0.951688240619    -2.078474252873     1.141276152007     1.007825032230
         H            2.104688240619    -1.870474252873    -0.177723847993     1.007825032230
         H            2.957688240619    -0.826474252873     1.851276152007     1.007825032230
         H            4.002391140619    -2.208814252873     1.430896152007     1.007825032230
         H            2.785643240619    -2.323964252873     2.776686152007     1.007825032230
         C           -0.654311759381     1.470525747127    -2.731723847993    12.000000000000
         C           -0.919311759381     0.111525747127     1.335276152007    12.000000000000
         C            0.166688240619     0.872525747127     0.925276152007    12.000000000000
         C           -1.920311759381    -0.210474252873     0.428276152007    12.000000000000
         C            0.250688240619     1.310525747127    -0.391723847993    12.000000000000
         C           -1.833311759381     0.228525747127    -0.888723847993    12.000000000000
         C           -0.748311759381     0.989525747127    -1.308723847993    12.000000000000
         H           -0.984311759381    -0.229474252873     2.360276152007     1.007825032230
         H            0.949688240619     1.116525747127     1.626276152007     1.007825032230
         H           -2.771311759381    -0.794474252873     0.750276152007     1.007825032230
         H            1.096688240619     1.908525747127    -0.700723847993     1.007825032230
         H           -2.620311759381    -0.025474252873    -1.583723847993     1.007825032230
         H           -0.401311759381     2.531525747127    -2.700723847993     1.007825032230
         H           -1.624311759381     1.381525747127    -3.223723847993     1.007825032230
         H            0.112279240619     0.947495747127    -3.322293847993     1.007825032230

  Running in c1 symmetry.

  Rotational constants: A =      0.07481  B =      0.02573  C =      0.02308 [cm^-1]
  Rotational constants: A =   2242.73709  B =    771.43640  C =    691.77304 [MHz]
  Nuclear repulsion =  411.152856476557815

  Charge       = 0
  Multiplicity = 1
  Electrons    = 68
  Nalpha       = 34
  Nbeta        = 34

  ==> Algorithm <==

  SCF Algorithm Type is PK.
  DIIS enabled.
  MOM disabled.
  Fractional occupation disabled.
  Guess Type is SAD.
  Energy threshold   = 1.00e-06
  Density threshold  = 1.00e-10
  Integral threshold = 0.00e+00

  ==> Primary Basis <==

  Basis Set: CC-PVDZ
    Blend: CC-PVDZ
    Number of shells: 96
    Number of basis function: 196
    Number of Cartesian functions: 205
    Spherical Harmonics?: true
    Max angular momentum: 2

  ==> Pre-Iterations <==

   -------------------------------------------------------
    Irrep   Nso     Nmo     Nalpha   Nbeta   Ndocc  Nsocc
   -------------------------------------------------------
     A        196     196       0       0       0       0
   -------------------------------------------------------
    Total     196     196      34      34      34       0
   -------------------------------------------------------

  ==> Integral Setup <==

  Using integral reordering PK algorithm.
  Sizing the integral batches needed.
  Building batch lookup table.
   Calculation information:
      Number of atoms:                  23
      Number of AO shells:              96
      Number of primitives:            268
      Number of atomic orbitals:       205
      Number of basis functions:       196

      Integral cutoff                 1.00e-12
      Number of threads:                 1

	Batch   1 pq = [       0,    9405] index = [             0,44231715] size =     44231715
	Batch   2 pq = [    9405,   13301] index = [      44231715,88464951] size =     44233236
	Batch   3 pq = [   13301,   16290] index = [      88464951,132690195] size =     44225244
	Batch   4 pq = [   16290,   18810] index = [     132690195,176917455] size =     44227260
	Batch   5 pq = [   18810,   19306] index = [     176917455,186370471] size =      9453016
  Task number: 17
  Buffer size: 11059200
  Buffer per thread: 2
  We computed 9714240 shell quartets total.
  Whereas there are 10841496 unique shell quartets.

  ==> DiskJK: Disk-Based J/K Matrices <==

    J tasked:                  Yes
    K tasked:                  Yes
    wK tasked:                  No
    Memory [MiB]:              375
    Schwarz Cutoff:          1E-12

    OpenMP threads:              1

  Minimum eigenvalue in the overlap matrix is 3.0497001529E-04.
  Using Symmetric Orthogonalization.

  SCF Guess: Superposition of Atomic Densities via on-the-fly atomic UHF.

  ==> Iterations <==

                        Total Energy        Delta E     RMS |[F,P]|

   @RHF iter SAD:  -347.89557896702507   -3.47896e+02   0.00000e+00
   @RHF iter   1:  -348.76651180836791   -8.70933e-01   2.90696e-03 DIIS
   @RHF iter   2:  -348.95992431933087   -1.93413e-01   1.21010e-03 DIIS
   @RHF iter   3:  -348.99050210949508   -3.05778e-02   2.58263e-04 DIIS
   @RHF iter   4:  -348.99297009960583   -2.46799e-03   5.26209e-05 DIIS
   @RHF iter   5:  -348.99304302682663   -7.29272e-05   1.75951e-05 DIIS
   @RHF iter   6:  -348.99305066162964   -7.63480e-06   4.82078e-06 DIIS
   @RHF iter   7:  -348.99305133407722   -6.72448e-07   1.29867e-06 DIIS
   @RHF iter   8:  -348.99305139847598   -6.43988e-08   3.63671e-07 DIIS
   @RHF iter   9:  -348.99305141032926   -1.18533e-08   1.72696e-07 DIIS
   @RHF iter  10:  -348.99305141357416   -3.24491e-09   7.94022e-08 DIIS
   @RHF iter  11:  -348.99305141451401   -9.39849e-10   2.68506e-08 DIIS
   @RHF iter  12:  -348.99305141459052   -7.65112e-11   1.14633e-08 DIIS
   @RHF iter  13:  -348.99305141459706   -6.53699e-12   3.87675e-09 DIIS
   @RHF iter  14:  -348.99305141459877   -1.70530e-12   1.04066e-09 DIIS
   @RHF iter  15:  -348.99305141459797    7.95808e-13   3.97848e-10 DIIS
   @RHF iter  16:  -348.99305141459820   -2.27374e-13   1.61494e-10 DIIS
   @RHF iter  17:  -348.99305141459752    6.82121e-13   6.73106e-11 DIIS
  Energy and wave function converged.

  ==> Post-Iterations <==

    Orbital Energies [Eh]
    ---------------------

    Doubly Occupied:

       1A    -11.240836     2A    -11.235416     3A    -11.235269
       4A    -11.230833     5A    -11.230670     6A    -11.230267
       7A    -11.229904     8A    -11.214367     9A    -11.206749
      10A     -1.154715    11A     -1.045710    12A     -1.013559
      13A     -1.011715    14A     -0.931900    15A     -0.829101
      16A     -0.826091    17A     -0.796352    18A     -0.692095
      19A     -0.632861    20A     -0.630451    21A     -0.593336
      22A     -0.591862    23A     -0.583289    24A     -0.576954
      25A     -0.562869    26A     -0.536228    27A     -0.495131
      28A     -0.488644    29A     -0.485896    30A     -0.482060
      31A     -0.478768    32A     -0.475945    33A     -0.333202
      34A     -0.322605

    Virtual:

      35A      0.134168    36A      0.140500    37A      0.172007
      38A      0.194151    39A      0.206509    40A      0.218336
      41A      0.236170    42A      0.242671    43A      0.256229
      44A      0.259150    45A      0.268483    46A      0.273671
      47A      0.281938    48A      0.291464    49A      0.315174
      50A      0.331122    51A      0.369075    52A      0.375593
      53A      0.406573    54A      0.453021    55A      0.461941
      56A      0.475793    57A      0.499080    58A      0.563159
      59A      0.581010    60A      0.599840    61A      0.605865
      62A      0.614120    63A      0.629159    64A      0.651174
      65A      0.680397    66A      0.686639    67A      0.695044
      68A      0.707885    69A      0.734986    70A      0.739745
      71A      0.746911    72A      0.753887    73A      0.759721
      74A      0.775470    75A      0.788856    76A      0.822147
      77A      0.845577    78A      0.851849    79A      0.861117
      80A      0.863641    81A      0.871868    82A      0.882941
      83A      0.892678    84A      0.896684    85A      0.900763
      86A      0.911549    87A      0.919433    88A      0.924417
      89A      0.933385    90A      0.941438    91A      0.953742
      92A      0.978556    93A      0.988548    94A      1.008041
      95A      1.034995    96A      1.051807    97A      1.122158
      98A      1.130704    99A      1.132491   100A      1.145732
     101A      1.153349   102A      1.165171   103A      1.202651
     104A      1.223672   105A      1.241150   106A      1.250246
     107A      1.257579   108A      1.280630   109A      1.299324
     110A      1.310373   111A      1.325003   112A      1.335181
     113A      1.413998   114A      1.480854   115A      1.487879
     116A      1.509209   117A      1.519799   118A      1.555852
     119A      1.568941   120A      1.616618   121A      1.675904
     122A      1.684009   123A      1.689979   124A      1.700896
     125A      1.740471   126A      1.751240   127A      1.769525
     128A      1.793330   129A      1.813358   130A      1.853614
     131A      1.868969   132A      1.879322   133A      1.892434
     134A      1.897717   135A      1.902493   136A      1.909541
     137A      1.917280   138A      1.930457   139A      1.943752
     140A      1.950841   141A      1.952014   142A      1.958273
     143A      1.961490   144A      1.968382   145A      1.979726
     146A      1.985363   147A      2.001913   148A      2.005575
     149A      2.042070   150A      2.052645   151A      2.081908
     152A      2.109152   153A      2.118442   154A      2.121243
     155A      2.142648   156A      2.158630   157A      2.169567
     158A      2.179935   159A      2.193235   160A      2.242517
     161A      2.275379   162A      2.290583   163A      2.297202
     164A      2.301034   165A      2.318508   166A      2.345087
     167A      2.345394   168A      2.455795   169A      2.466098
     170A      2.472388   171A      2.472932   172A      2.515185
     173A      2.535438   174A      2.573356   175A      2.582635
     176A      2.628009   177A      2.733689   178A      2.753886
     179A      2.767255   180A      2.770965   181A      2.788049
     182A      2.811024   183A      2.812046   184A      2.846970
     185A      2.858899   186A      2.859367   187A      2.872966
     188A      2.956794   189A      2.971318   190A      2.997522
     191A      3.018922   192A      3.041158   193A      3.162050
     194A      3.205006   195A      3.304560   196A      3.977852

    Final Occupation by Irrep:
              A
    DOCC [    34 ]

  @RHF Final Energy:  -348.99305141459752

   => Energetics <=

    Nuclear Repulsion Energy =            411.1528564765578153
    One-Electron Energy =               -1285.0405146996497479
    Two-Electron Energy =                 524.8946068084943590
    Total Energy =                       -348.9930514145975167

Computation Completed

Properties will be evaluated at   0.000000,   0.000000,   0.000000 [a0]

Properties computed using the SCF density matrix

  Nuclear Dipole Moment: [e a0]
     X:     8.0012      Y:    -5.5447      Z:     0.8206

  Electronic Dipole Moment: [e a0]
     X:    -8.0642      Y:     5.6415      Z:    -0.9739

  Dipole Moment: [e a0]
     X:    -0.0630      Y:     0.0969      Z:    -0.1533     Total:     0.1919

  Dipole Moment: [D]
     X:    -0.1601      Y:     0.2462      Z:    -0.3895     Total:     0.4879

*** tstop() called on ds3 at Mon Apr 27 08:22:38 2020
Module time:
	user time   =      68.49 seconds =       1.14 minutes
	system time =      27.10 seconds =       0.45 minutes
	total time  =        224 seconds =       3.73 minutes
Total time:
	user time   =      68.49 seconds =       1.14 minutes
	system time =      27.10 seconds =       0.45 minutes
	total time  =        224 seconds =       3.73 minutes
                                     G D M A

                                 by Anthony Stone

                           version 2.2.06, 22 June 2011

               Distributed Multipoles from Gaussian wavefunctions

Starting at 8:22:38 on 27 Apr 2020

Using SCF density matrix from file ./SSI/SSI-022LEU-058PHE-1-dimer.test.830.fchk

                         Distributed Multipole Analysis

Standard DMA

Positions and radii in angstrom
Multipole moments in atomic units, ea_0^k for rank k

C          x =  1.939688  y = -2.362474  z =  0.779276 angstrom
           Maximum rank =  0   Radius =  0.650 angstrom
                   Q00  =  -0.229861

C          x =  3.001688  y = -1.913474  z =  1.779276 angstrom
           Maximum rank =  0   Radius =  0.650 angstrom
                   Q00  =  -0.235227

H          x =  1.975688  y = -3.442474  z =  0.647276 angstrom
           Maximum rank =  0   Radius =  0.325 angstrom
                   Q00  =   0.073095

H          x =  0.951688  y = -2.078474  z =  1.141276 angstrom
           Maximum rank =  0   Radius =  0.325 angstrom
                   Q00  =   0.087076

H          x =  2.104688  y = -1.870474  z = -0.177724 angstrom
           Maximum rank =  0   Radius =  0.325 angstrom
                   Q00  =   0.079903

H          x =  2.957688  y = -0.826474  z =  1.851276 angstrom
           Maximum rank =  0   Radius =  0.325 angstrom
                   Q00  =   0.071656

H          x =  4.002391  y = -2.208814  z =  1.430896 angstrom
           Maximum rank =  0   Radius =  0.325 angstrom
                   Q00  =   0.077732

H          x =  2.785643  y = -2.323964  z =  2.776686 angstrom
           Maximum rank =  0   Radius =  0.325 angstrom
                   Q00  =   0.075565

C          x = -0.654312  y =  1.470526  z = -2.731724 angstrom
           Maximum rank =  0   Radius =  0.650 angstrom
                   Q00  =  -0.197838

C          x = -0.919312  y =  0.111526  z =  1.335276 angstrom
           Maximum rank =  0   Radius =  0.650 angstrom
                   Q00  =  -0.084939

C          x =  0.166688  y =  0.872526  z =  0.925276 angstrom
           Maximum rank =  0   Radius =  0.650 angstrom
                   Q00  =  -0.074671

C          x = -1.920312  y = -0.210474  z =  0.428276 angstrom
           Maximum rank =  0   Radius =  0.650 angstrom
                   Q00  =  -0.076475

C          x =  0.250688  y =  1.310526  z = -0.391724 angstrom
           Maximum rank =  0   Radius =  0.650 angstrom
                   Q00  =  -0.062000

C          x = -1.833312  y =  0.228526  z = -0.888724 angstrom
           Maximum rank =  0   Radius =  0.650 angstrom
                   Q00  =  -0.008883

C          x = -0.748312  y =  0.989526  z = -1.308724 angstrom
           Maximum rank =  0   Radius =  0.650 angstrom
                   Q00  =  -0.100028

H          x = -0.984312  y = -0.229474  z =  2.360276 angstrom
           Maximum rank =  0   Radius =  0.325 angstrom
                   Q00  =   0.060713

H          x =  0.949688  y =  1.116526  z =  1.626276 angstrom
           Maximum rank =  0   Radius =  0.325 angstrom
                   Q00  =   0.065229

H          x = -2.771312  y = -0.794474  z =  0.750276 angstrom
           Maximum rank =  0   Radius =  0.325 angstrom
                   Q00  =   0.064910

H          x =  1.096688  y =  1.908526  z = -0.700724 angstrom
           Maximum rank =  0   Radius =  0.325 angstrom
                   Q00  =   0.055311

H          x = -2.620312  y = -0.025474  z = -1.583724 angstrom
           Maximum rank =  0   Radius =  0.325 angstrom
                   Q00  =   0.057937

H          x = -0.401312  y =  2.531526  z = -2.700724 angstrom
           Maximum rank =  0   Radius =  0.325 angstrom
                   Q00  =   0.097522

H          x = -1.624312  y =  1.381526  z = -3.223724 angstrom
           Maximum rank =  0   Radius =  0.325 angstrom
                   Q00  =   0.098501

H          x =  0.112279  y =  0.947496  z = -3.322294 angstrom
           Maximum rank =  0   Radius =  0.325 angstrom
                   Q00  =   0.104773

Total multipoles referred to origin at
           x =   0.000000,  y =    0.000000,  z =    0.000000 angstrom
                   Q00  =  -0.000000

Finished at 8:22:38 on 27 Apr 2020

  DMA results are available in the Python driver through the
	  variable('DMA DISTRIBUTED MULTIPOLES')
  and
	  variable('DMA TOTAL MULTIPOLES')
  commands.

    Psi4 stopped on: Monday, 27 April 2020 08:22AM
    Psi4 wall time for execution: 0:03:44.84

*** Psi4 exiting successfully. Buy a developer a beer!
