                               Psi4 1.3.2 release

  ==> Input File <==

--------------------------------------------------------------------------
import numpy as np
set {scf_type pk
basis cc-pvdz
d_convergence 10
gdma_switch   0
gdma_limit    0
gdma_origin   [ 0.0,  0.0,  0.0 ]
}
molecule test {
    units Angstrom
    0 1
    --
    0 1
    C                1.879919207051288     1.231262982808632     2.565831533158115
    C                0.580919207051288     1.360262982808633     1.806831533158115
    O               -0.490080792948712     1.360262982808633     2.400831533158115
    N                0.655919207051288     1.343262982808633     0.484831533158115
    H               -0.195080792948712     1.225262982808633    -0.054168466841885
    H                1.551919207051288     1.344262982808633     0.025831533158115
    H                1.951919207051287     2.051262982808633     3.280831533158115
    H                2.718919207051288     1.310262982808633     1.873831533158115
    H                1.921159207051288     0.269652982808632     3.098372533158115
    C                0.383919207051288    -1.514737017191368    -2.792168466841885
    C               -0.690080792948712    -1.255737017191368    -1.754168466841885
    O               -1.017080792948712    -0.110737017191368    -1.435168466841885
    N               -1.269080792948712    -2.323737017191367    -1.223168466841885
    H                0.026919207051288    -2.272737017191367    -3.491168466841885
    H                1.210919207051288    -1.961737017191368    -2.264168466841885
    H               -2.012080792948712    -2.180737017191368    -0.554168466841885
    H               -1.026080792948712    -3.248737017191368    -1.543168466841885
    H                0.635349207051288    -0.613887017191368    -3.371181466841885

}
e, wfn = energy('scf', return_wfn=True)
gdma(wfn)
dmavals = variable('DMA DISTRIBUTED MULTIPOLES')
charges = np.array(dmavals)
print(charges)
np.save('SSI-099GLN-108GLN-1-dimer.npy', np.array(charges))--------------------------------------------------------------------------

*** tstart() called on ds3
*** at Sun Apr 26 21:38:00 2020

   => Loading Basis Set <=

    Name: CC-PVDZ
    Role: ORBITAL
    Keyword: BASIS
    atoms 1-2, 10-11 entry C          line   138 file /theoryfs2/ds/metcalf/miniconda2/envs/tf2gpu/share/psi4/basis/cc-pvdz.gbs
    atoms 3, 12      entry O          line   198 file /theoryfs2/ds/metcalf/miniconda2/envs/tf2gpu/share/psi4/basis/cc-pvdz.gbs
    atoms 4, 13      entry N          line   168 file /theoryfs2/ds/metcalf/miniconda2/envs/tf2gpu/share/psi4/basis/cc-pvdz.gbs
    atoms 5-9, 14-18 entry H          line    22 file /theoryfs2/ds/metcalf/miniconda2/envs/tf2gpu/share/psi4/basis/cc-pvdz.gbs

         ---------------------------------------------------------
                                   SCF
               by Justin Turney, Rob Parrish, Andy Simmonett
                          and Daniel G. A. Smith
                              RHF Reference
                        1 Threads,    500 MiB Core
         ---------------------------------------------------------

  ==> Geometry <==

    Molecular point group: c1
    Full point group: C1

    Geometry (in Angstrom), charge = 0, multiplicity = 1:

       Center              X                  Y                   Z               Mass
    ------------   -----------------  -----------------  -----------------  -----------------
         C            1.879919207051     1.231262982809     2.565831533158    12.000000000000
         C            0.580919207051     1.360262982809     1.806831533158    12.000000000000
         O           -0.490080792949     1.360262982809     2.400831533158    15.994914619570
         N            0.655919207051     1.343262982809     0.484831533158    14.003074004430
         H           -0.195080792949     1.225262982809    -0.054168466842     1.007825032230
         H            1.551919207051     1.344262982809     0.025831533158     1.007825032230
         H            1.951919207051     2.051262982809     3.280831533158     1.007825032230
         H            2.718919207051     1.310262982809     1.873831533158     1.007825032230
         H            1.921159207051     0.269652982809     3.098372533158     1.007825032230
         C            0.383919207051    -1.514737017191    -2.792168466842    12.000000000000
         C           -0.690080792949    -1.255737017191    -1.754168466842    12.000000000000
         O           -1.017080792949    -0.110737017191    -1.435168466842    15.994914619570
         N           -1.269080792949    -2.323737017191    -1.223168466842    14.003074004430
         H            0.026919207051    -2.272737017191    -3.491168466842     1.007825032230
         H            1.210919207051    -1.961737017191    -2.264168466842     1.007825032230
         H           -2.012080792949    -2.180737017191    -0.554168466842     1.007825032230
         H           -1.026080792949    -3.248737017191    -1.543168466842     1.007825032230
         H            0.635349207051    -0.613887017191    -3.371181466842     1.007825032230

  Running in c1 symmetry.

  Rotational constants: A =      0.11954  B =      0.02271  C =      0.02154 [cm^-1]
  Rotational constants: A =   3583.76241  B =    680.82749  C =    645.83185 [MHz]
  Nuclear repulsion =  359.574018528370459

  Charge       = 0
  Multiplicity = 1
  Electrons    = 64
  Nalpha       = 32
  Nbeta        = 32

  ==> Algorithm <==

  SCF Algorithm Type is PK.
  DIIS enabled.
  MOM disabled.
  Fractional occupation disabled.
  Guess Type is SAD.
  Energy threshold   = 1.00e-06
  Density threshold  = 1.00e-10
  Integral threshold = 0.00e+00

  ==> Primary Basis <==

  Basis Set: CC-PVDZ
    Blend: CC-PVDZ
    Number of shells: 78
    Number of basis function: 162
    Number of Cartesian functions: 170
    Spherical Harmonics?: true
    Max angular momentum: 2

  ==> Pre-Iterations <==

   -------------------------------------------------------
    Irrep   Nso     Nmo     Nalpha   Nbeta   Ndocc  Nsocc
   -------------------------------------------------------
     A        162     162       0       0       0       0
   -------------------------------------------------------
    Total     162     162      32      32      32       0
   -------------------------------------------------------

  ==> Integral Setup <==

  Using integral reordering PK algorithm.
  Sizing the integral batches needed.
  Building batch lookup table.
   Calculation information:
      Number of atoms:                  18
      Number of AO shells:              78
      Number of primitives:            226
      Number of atomic orbitals:       170
      Number of basis functions:       162

      Integral cutoff                 1.00e-12
      Number of threads:                 1

	Batch   1 pq = [       0,    9405] index = [             0,44231715] size =     44231715
	Batch   2 pq = [    9405,   13203] index = [      44231715,87166206] size =     42934491
  Task number: 8
  Buffer size: 11059200
  Buffer per thread: 2
  We computed 3446297 shell quartets total.
  Whereas there are 4747821 unique shell quartets.

  ==> DiskJK: Disk-Based J/K Matrices <==

    J tasked:                  Yes
    K tasked:                  Yes
    wK tasked:                  No
    Memory [MiB]:              375
    Schwarz Cutoff:          1E-12

    OpenMP threads:              1

  Minimum eigenvalue in the overlap matrix is 4.4816050224E-03.
  Using Symmetric Orthogonalization.

  SCF Guess: Superposition of Atomic Densities via on-the-fly atomic UHF.

  ==> Iterations <==

                        Total Energy        Delta E     RMS |[F,P]|

   @RHF iter SAD:  -414.56441761433854   -4.14564e+02   0.00000e+00
   @RHF iter   1:  -415.70039869853952   -1.13598e+00   4.68200e-03 DIIS
   @RHF iter   2:  -415.91341298634677   -2.13014e-01   2.77429e-03 DIIS
   @RHF iter   3:  -415.98545253217969   -7.20395e-02   5.21721e-04 DIIS
   @RHF iter   4:  -415.98972203378941   -4.26950e-03   1.97073e-04 DIIS
   @RHF iter   5:  -415.99044878506220   -7.26751e-04   3.67443e-05 DIIS
   @RHF iter   6:  -415.99049853031079   -4.97452e-05   1.87627e-05 DIIS
   @RHF iter   7:  -415.99050815208392   -9.62177e-06   7.04350e-06 DIIS
   @RHF iter   8:  -415.99051009548526   -1.94340e-06   2.22095e-06 DIIS
   @RHF iter   9:  -415.99051028189024   -1.86405e-07   8.07783e-07 DIIS
   @RHF iter  10:  -415.99051029495820   -1.30680e-08   2.86985e-07 DIIS
   @RHF iter  11:  -415.99051029699984   -2.04165e-09   4.73433e-08 DIIS
   @RHF iter  12:  -415.99051029707408   -7.42375e-11   1.33275e-08 DIIS
   @RHF iter  13:  -415.99051029707789   -3.80851e-12   4.32886e-09 DIIS
   @RHF iter  14:  -415.99051029708062   -2.72848e-12   1.52259e-09 DIIS
   @RHF iter  15:  -415.99051029707908    1.53477e-12   4.83302e-10 DIIS
   @RHF iter  16:  -415.99051029707971   -6.25278e-13   1.94453e-10 DIIS
   @RHF iter  17:  -415.99051029707908    6.25278e-13   8.59653e-11 DIIS
  Energy and wave function converged.

  ==> Post-Iterations <==

    Orbital Energies [Eh]
    ---------------------

    Doubly Occupied:

       1A    -20.519187     2A    -20.478663     3A    -15.599581
       4A    -15.557139     5A    -11.363042     6A    -11.323618
       7A    -11.254653     8A    -11.227557     9A     -1.381230
      10A     -1.346276    11A     -1.229110    12A     -1.189668
      13A     -1.015263    14A     -0.983797    15A     -0.811148
      16A     -0.773630    17A     -0.738736    18A     -0.701634
      19A     -0.667927    20A     -0.636052    21A     -0.628213
      22A     -0.595334    23A     -0.584014    24A     -0.574354
      25A     -0.548420    26A     -0.543360    27A     -0.532049
      28A     -0.500309    29A     -0.425643    30A     -0.418721
      31A     -0.387138    32A     -0.376370

    Virtual:

      33A      0.152940    34A      0.181315    35A      0.189894
      36A      0.208069    37A      0.216192    38A      0.224496
      39A      0.238057    40A      0.251938    41A      0.262995
      42A      0.281720    43A      0.298397    44A      0.329381
      45A      0.367693    46A      0.397819    47A      0.470561
      48A      0.484415    49A      0.532804    50A      0.587787
      51A      0.619288    52A      0.629879    53A      0.648709
      54A      0.679338    55A      0.690345    56A      0.709986
      57A      0.722949    58A      0.726139    59A      0.733690
      60A      0.745930    61A      0.758346    62A      0.783306
      63A      0.839068    64A      0.850323    65A      0.853488
      66A      0.866668    67A      0.872565    68A      0.903239
      69A      0.905319    70A      0.925919    71A      0.943388
      72A      0.956795    73A      0.979848    74A      0.997062
      75A      1.029893    76A      1.052975    77A      1.064692
      78A      1.077376    79A      1.121309    80A      1.131042
      81A      1.148949    82A      1.202170    83A      1.304888
      84A      1.319803    85A      1.334642    86A      1.376333
      87A      1.382051    88A      1.386582    89A      1.390293
      90A      1.430632    91A      1.435518    92A      1.451316
      93A      1.465784    94A      1.503278    95A      1.511578
      96A      1.558332    97A      1.634820    98A      1.653500
      99A      1.659907   100A      1.671743   101A      1.691307
     102A      1.739199   103A      1.783019   104A      1.837722
     105A      1.861440   106A      1.872958   107A      1.879337
     108A      1.887870   109A      1.893864   110A      1.895218
     111A      1.926704   112A      1.937748   113A      1.946102
     114A      1.965738   115A      1.980425   116A      2.010982
     117A      2.032025   118A      2.067710   119A      2.101809
     120A      2.117913   121A      2.132109   122A      2.133865
     123A      2.235093   124A      2.237480   125A      2.251048
     126A      2.332222   127A      2.401649   128A      2.425964
     129A      2.444475   130A      2.460525   131A      2.478207
     132A      2.488690   133A      2.551310   134A      2.558392
     135A      2.574425   136A      2.602463   137A      2.632684
     138A      2.674026   139A      2.693029   140A      2.739939
     141A      2.761035   142A      2.799540   143A      2.801037
     144A      2.809932   145A      2.851817   146A      2.867746
     147A      2.975504   148A      2.996272   149A      3.077014
     150A      3.116859   151A      3.121637   152A      3.155977
     153A      3.278402   154A      3.311592   155A      3.491959
     156A      3.514643   157A      3.527856   158A      3.551326
     159A      3.847345   160A      3.897535   161A      3.911282
     162A      3.936061

    Final Occupation by Irrep:
              A
    DOCC [    32 ]

  @RHF Final Energy:  -415.99051029707908

   => Energetics <=

    Nuclear Repulsion Energy =            359.5740185283704591
    One-Electron Energy =               -1281.3053897753370620
    Two-Electron Energy =                 505.7408609498874625
    Total Energy =                       -415.9905102970790836

Computation Completed

Properties will be evaluated at   0.000000,   0.000000,   0.000000 [a0]

Properties computed using the SCF density matrix

  Nuclear Dipole Moment: [e a0]
     X:     6.3542      Y:    -3.8133      Z:    -2.8048

  Electronic Dipole Moment: [e a0]
     X:    -5.0228      Y:     1.8316      Z:     1.2467

  Dipole Moment: [e a0]
     X:     1.3314      Y:    -1.9817      Z:    -1.5582     Total:     2.8509

  Dipole Moment: [D]
     X:     3.3841      Y:    -5.0370      Z:    -3.9605     Total:     7.2463

*** tstop() called on ds3 at Sun Apr 26 21:38:55 2020
Module time:
	user time   =      26.08 seconds =       0.43 minutes
	system time =      11.84 seconds =       0.20 minutes
	total time  =         55 seconds =       0.92 minutes
Total time:
	user time   =      26.08 seconds =       0.43 minutes
	system time =      11.84 seconds =       0.20 minutes
	total time  =         55 seconds =       0.92 minutes
                                     G D M A

                                 by Anthony Stone

                           version 2.2.06, 22 June 2011

               Distributed Multipoles from Gaussian wavefunctions

Starting at 21:38:55 on 26 Apr 2020

Using SCF density matrix from file ./SSI/SSI-099GLN-108GLN-1-dimer.test.4133.fchk

                         Distributed Multipole Analysis

Standard DMA

Positions and radii in angstrom
Multipole moments in atomic units, ea_0^k for rank k

C          x =  1.879919  y =  1.231263  z =  2.565832 angstrom
           Maximum rank =  0   Radius =  0.650 angstrom
                   Q00  =  -0.261866

C          x =  0.580919  y =  1.360263  z =  1.806832 angstrom
           Maximum rank =  0   Radius =  0.650 angstrom
                   Q00  =   0.823281

O          x = -0.490081  y =  1.360263  z =  2.400832 angstrom
           Maximum rank =  0   Radius =  0.650 angstrom
                   Q00  =  -0.801252

N          x =  0.655919  y =  1.343263  z =  0.484832 angstrom
           Maximum rank =  0   Radius =  0.650 angstrom
                   Q00  =  -0.547194

H          x = -0.195081  y =  1.225263  z = -0.054168 angstrom
           Maximum rank =  0   Radius =  0.325 angstrom
                   Q00  =   0.263515

H          x =  1.551919  y =  1.344263  z =  0.025832 angstrom
           Maximum rank =  0   Radius =  0.325 angstrom
                   Q00  =   0.189354

H          x =  1.951919  y =  2.051263  z =  3.280832 angstrom
           Maximum rank =  0   Radius =  0.325 angstrom
                   Q00  =   0.124633

H          x =  2.718919  y =  1.310263  z =  1.873832 angstrom
           Maximum rank =  0   Radius =  0.325 angstrom
                   Q00  =   0.065264

H          x =  1.921159  y =  0.269653  z =  3.098373 angstrom
           Maximum rank =  0   Radius =  0.325 angstrom
                   Q00  =   0.129511

C          x =  0.383919  y = -1.514737  z = -2.792168 angstrom
           Maximum rank =  0   Radius =  0.650 angstrom
                   Q00  =  -0.250539

C          x = -0.690081  y = -1.255737  z = -1.754168 angstrom
           Maximum rank =  0   Radius =  0.650 angstrom
                   Q00  =   0.823969

O          x = -1.017081  y = -0.110737  z = -1.435168 angstrom
           Maximum rank =  0   Radius =  0.650 angstrom
                   Q00  =  -0.799630

N          x = -1.269081  y = -2.323737  z = -1.223168 angstrom
           Maximum rank =  0   Radius =  0.650 angstrom
                   Q00  =  -0.537674

H          x =  0.026919  y = -2.272737  z = -3.491168 angstrom
           Maximum rank =  0   Radius =  0.325 angstrom
                   Q00  =   0.096817

H          x =  1.210919  y = -1.961737  z = -2.264168 angstrom
           Maximum rank =  0   Radius =  0.325 angstrom
                   Q00  =   0.108898

H          x = -2.012081  y = -2.180737  z = -0.554168 angstrom
           Maximum rank =  0   Radius =  0.325 angstrom
                   Q00  =   0.233301

H          x = -1.026081  y = -3.248737  z = -1.543168 angstrom
           Maximum rank =  0   Radius =  0.325 angstrom
                   Q00  =   0.208344

H          x =  0.635349  y = -0.613887  z = -3.371181 angstrom
           Maximum rank =  0   Radius =  0.325 angstrom
                   Q00  =   0.131268

Total multipoles referred to origin at
           x =   0.000000,  y =    0.000000,  z =    0.000000 angstrom
                   Q00  =  -0.000000

Finished at 21:38:55 on 26 Apr 2020

  DMA results are available in the Python driver through the
	  variable('DMA DISTRIBUTED MULTIPOLES')
  and
	  variable('DMA TOTAL MULTIPOLES')
  commands.

    Psi4 stopped on: Sunday, 26 April 2020 09:38PM
    Psi4 wall time for execution: 0:00:54.66

*** Psi4 exiting successfully. Buy a developer a beer!
