                               Psi4 1.3.2 release

  ==> Input File <==

--------------------------------------------------------------------------
import numpy as np
set {scf_type pk
basis cc-pvdz
d_convergence 10
gdma_switch   0
gdma_limit    0
gdma_origin   [ 0.0,  0.0,  0.0 ]
}
molecule test {
    units Angstrom
    0 1
    --
    0 1
    C               -1.799000318315574    -2.215738474113941     0.202188038287817
    C                0.298999681684426    -0.736738474113941    -0.232811961712183
    C               -0.333000318315574    -1.911738474113941     0.272188038287817
    C                1.661999681684426    -0.800738474113941     0.143188038287817
    C                0.623999681684426    -2.626738474113941     0.903188038287817
    C               -0.153000318315574     0.380261525886059    -0.962811961712183
    C                0.753999681684426     1.390261525886059    -1.290811961712183
    C                2.091999681684426     1.289261525886059    -0.902811961712183
    C                2.548999681684426     0.194261525886059    -0.185811961712183
    N                1.842999681684426    -1.971738474113941     0.837188038287817
    H               -1.184000318315574     0.483261525886059    -1.277811961712183
    H                0.398999681684426     2.247261525886059    -1.847811961712183
    H                2.780999681684426     2.074261525886059    -1.164811961712183
    H               -1.933000318315574    -3.259738474113941     0.475188038287817
    H               -2.108000318315574    -2.080738474113941    -0.840811961712183
    H                0.348999681684426    -3.565738474113941     1.366188038287817
    H                2.722999681684426    -2.286738474113941     1.229188038287817
    H                3.571999681684426     0.078261525886059     0.129188038287817
    H               -2.351800318315574    -1.605308474113941     0.931428038287817
    C               -2.508000318315573     2.974261525886059     0.241188038287817
    C               -3.907000318315573     3.416261525886059     0.687188038287817
    H               -2.561000318315574     1.980261525886059    -0.198811961712183
    H               -2.126000318315574     3.677261525886059    -0.500811961712183
    H               -1.836000318315574     2.956261525886059     1.099188038287817
    H               -3.840000318315573     4.412261525886058     1.125188038287817
    H               -4.315550318315574     2.696361525886059     1.411638038287817
    H               -4.602970318315574     3.480361525886059    -0.162231961712183

}
e, wfn = energy('scf', return_wfn=True)
gdma(wfn)
dmavals = variable('DMA DISTRIBUTED MULTIPOLES')
charges = np.array(dmavals)
print(charges)
np.save('SSI-104TRP-107ALA-1-dimer.npy', np.array(charges))--------------------------------------------------------------------------

*** tstart() called on ds3
*** at Tue Apr 28 10:01:02 2020

   => Loading Basis Set <=

    Name: CC-PVDZ
    Role: ORBITAL
    Keyword: BASIS
    atoms 1-9, 20-21   entry C          line   138 file /theoryfs2/ds/metcalf/miniconda2/envs/tf2gpu/share/psi4/basis/cc-pvdz.gbs
    atoms 10           entry N          line   168 file /theoryfs2/ds/metcalf/miniconda2/envs/tf2gpu/share/psi4/basis/cc-pvdz.gbs
    atoms 11-19, 22-27 entry H          line    22 file /theoryfs2/ds/metcalf/miniconda2/envs/tf2gpu/share/psi4/basis/cc-pvdz.gbs

         ---------------------------------------------------------
                                   SCF
               by Justin Turney, Rob Parrish, Andy Simmonett
                          and Daniel G. A. Smith
                              RHF Reference
                        1 Threads,    500 MiB Core
         ---------------------------------------------------------

  ==> Geometry <==

    Molecular point group: c1
    Full point group: C1

    Geometry (in Angstrom), charge = 0, multiplicity = 1:

       Center              X                  Y                   Z               Mass
    ------------   -----------------  -----------------  -----------------  -----------------
         C           -1.799000318316    -2.215738474114     0.202188038288    12.000000000000
         C            0.298999681684    -0.736738474114    -0.232811961712    12.000000000000
         C           -0.333000318316    -1.911738474114     0.272188038288    12.000000000000
         C            1.661999681684    -0.800738474114     0.143188038288    12.000000000000
         C            0.623999681684    -2.626738474114     0.903188038288    12.000000000000
         C           -0.153000318316     0.380261525886    -0.962811961712    12.000000000000
         C            0.753999681684     1.390261525886    -1.290811961712    12.000000000000
         C            2.091999681684     1.289261525886    -0.902811961712    12.000000000000
         C            2.548999681684     0.194261525886    -0.185811961712    12.000000000000
         N            1.842999681684    -1.971738474114     0.837188038288    14.003074004430
         H           -1.184000318316     0.483261525886    -1.277811961712     1.007825032230
         H            0.398999681684     2.247261525886    -1.847811961712     1.007825032230
         H            2.780999681684     2.074261525886    -1.164811961712     1.007825032230
         H           -1.933000318316    -3.259738474114     0.475188038288     1.007825032230
         H           -2.108000318316    -2.080738474114    -0.840811961712     1.007825032230
         H            0.348999681684    -3.565738474114     1.366188038288     1.007825032230
         H            2.722999681684    -2.286738474114     1.229188038288     1.007825032230
         H            3.571999681684     0.078261525886     0.129188038288     1.007825032230
         H           -2.351800318316    -1.605308474114     0.931428038288     1.007825032230
         C           -2.508000318316     2.974261525886     0.241188038288    12.000000000000
         C           -3.907000318316     3.416261525886     0.687188038288    12.000000000000
         H           -2.561000318316     1.980261525886    -0.198811961712     1.007825032230
         H           -2.126000318316     3.677261525886    -0.500811961712     1.007825032230
         H           -1.836000318316     2.956261525886     1.099188038288     1.007825032230
         H           -3.840000318316     4.412261525886     1.125188038288     1.007825032230
         H           -4.315550318316     2.696361525886     1.411638038288     1.007825032230
         H           -4.602970318316     3.480361525886    -0.162231961712     1.007825032230

  Running in c1 symmetry.

  Rotational constants: A =      0.03754  B =      0.01710  C =      0.01274 [cm^-1]
  Rotational constants: A =   1125.48119  B =    512.58812  C =    382.07936 [MHz]
  Nuclear repulsion =  645.490663503164001

  Charge       = 0
  Multiplicity = 1
  Electrons    = 88
  Nalpha       = 44
  Nbeta        = 44

  ==> Algorithm <==

  SCF Algorithm Type is PK.
  DIIS enabled.
  MOM disabled.
  Fractional occupation disabled.
  Guess Type is SAD.
  Energy threshold   = 1.00e-06
  Density threshold  = 1.00e-10
  Integral threshold = 0.00e+00

  ==> Primary Basis <==

  Basis Set: CC-PVDZ
    Blend: CC-PVDZ
    Number of shells: 117
    Number of basis function: 243
    Number of Cartesian functions: 255
    Spherical Harmonics?: true
    Max angular momentum: 2

  ==> Pre-Iterations <==

   -------------------------------------------------------
    Irrep   Nso     Nmo     Nalpha   Nbeta   Ndocc  Nsocc
   -------------------------------------------------------
     A        243     243       0       0       0       0
   -------------------------------------------------------
    Total     243     243      44      44      44       0
   -------------------------------------------------------

  ==> Integral Setup <==

  Using integral reordering PK algorithm.
  Sizing the integral batches needed.
  Building batch lookup table.
   Calculation information:
      Number of atoms:                  27
      Number of AO shells:             117
      Number of primitives:            339
      Number of atomic orbitals:       255
      Number of basis functions:       243

      Integral cutoff                 1.00e-12
      Number of threads:                 1

	Batch   1 pq = [       0,    9405] index = [             0,44231715] size =     44231715
	Batch   2 pq = [    9405,   13301] index = [      44231715,88464951] size =     44233236
	Batch   3 pq = [   13301,   16290] index = [      88464951,132690195] size =     44225244
	Batch   4 pq = [   16290,   18810] index = [     132690195,176917455] size =     44227260
	Batch   5 pq = [   18810,   21030] index = [     176917455,221140965] size =     44223510
	Batch   6 pq = [   21030,   23037] index = [     221140965,265363203] size =     44222238
	Batch   7 pq = [   23037,   24883] index = [     265363203,309594286] size =     44231083
	Batch   8 pq = [   24883,   26601] index = [     309594286,353819901] size =     44225615
	Batch   9 pq = [   26601,   28214] index = [     353819901,398029005] size =     44209104
	Batch  10 pq = [   28214,   29646] index = [     398029005,439457481] size =     41428476
  Task number: 40
  Buffer size: 11059200
  Buffer per thread: 2
  We computed 20349575 shell quartets total.
  Whereas there are 23829156 unique shell quartets.

  ==> DiskJK: Disk-Based J/K Matrices <==

    J tasked:                  Yes
    K tasked:                  Yes
    wK tasked:                  No
    Memory [MiB]:              375
    Schwarz Cutoff:          1E-12

    OpenMP threads:              1

  Minimum eigenvalue in the overlap matrix is 2.4131087447E-04.
  Using Symmetric Orthogonalization.

  SCF Guess: Superposition of Atomic Densities via on-the-fly atomic UHF.

  ==> Iterations <==

                        Total Energy        Delta E     RMS |[F,P]|

   @RHF iter SAD:  -479.06561236452865   -4.79066e+02   0.00000e+00
   @RHF iter   1:  -479.48241256470362   -4.16800e-01   2.61378e-03 DIIS
   @RHF iter   2:  -479.71581788752991   -2.33405e-01   1.16815e-03 DIIS
   @RHF iter   3:  -479.75824828433554   -4.24304e-02   3.04712e-04 DIIS
   @RHF iter   4:  -479.76208813736054   -3.83985e-03   1.39635e-04 DIIS
   @RHF iter   5:  -479.76273754452927   -6.49407e-04   2.03168e-05 DIIS
   @RHF iter   6:  -479.76276828000096   -3.07355e-05   9.57475e-06 DIIS
   @RHF iter   7:  -479.76277484952612   -6.56953e-06   4.02342e-06 DIIS
   @RHF iter   8:  -479.76277675536602   -1.90584e-06   1.57734e-06 DIIS
   @RHF iter   9:  -479.76277712535023   -3.69984e-07   6.83582e-07 DIIS
   @RHF iter  10:  -479.76277719735003   -7.19998e-08   3.12108e-07 DIIS
   @RHF iter  11:  -479.76277721450316   -1.71531e-08   1.13206e-07 DIIS
   @RHF iter  12:  -479.76277721664906   -2.14590e-09   3.58654e-08 DIIS
   @RHF iter  13:  -479.76277721679674   -1.47679e-10   1.00861e-08 DIIS
   @RHF iter  14:  -479.76277721681123   -1.44951e-11   4.32502e-09 DIIS
   @RHF iter  15:  -479.76277721681117    5.68434e-14   2.24614e-09 DIIS
   @RHF iter  16:  -479.76277721681799   -6.82121e-12   1.13149e-09 DIIS
   @RHF iter  17:  -479.76277721681703    9.66338e-13   3.75147e-10 DIIS
   @RHF iter  18:  -479.76277721681822   -1.19371e-12   1.60287e-10 DIIS
   @RHF iter  19:  -479.76277721681282    5.40012e-12   5.40687e-11 DIIS
  Energy and wave function converged.

  ==> Post-Iterations <==

    Orbital Energies [Eh]
    ---------------------

    Doubly Occupied:

       1A    -15.601187     2A    -11.262011     3A    -11.260413
       4A    -11.230240     5A    -11.228162     6A    -11.227651
       7A    -11.226113     8A    -11.220326     9A    -11.218041
      10A    -11.215202    11A    -11.213018    12A    -11.211701
      13A     -1.292048    14A     -1.127406    15A     -1.076792
      16A     -1.012275    17A     -0.997108    18A     -0.986243
      19A     -0.932280    20A     -0.837183    21A     -0.831901
      22A     -0.805566    23A     -0.750449    24A     -0.719271
      25A     -0.664092    26A     -0.639039    27A     -0.601209
      28A     -0.597508    29A     -0.594261    30A     -0.591944
      31A     -0.588412    32A     -0.564913    33A     -0.555856
      34A     -0.534196    35A     -0.525821    36A     -0.495026
      37A     -0.494221    38A     -0.483815    39A     -0.479093
      40A     -0.467087    41A     -0.459833    42A     -0.372688
      43A     -0.296223    44A     -0.274619

    Virtual:

      45A      0.126088    46A      0.169805    47A      0.175163
      48A      0.182358    49A      0.197274    50A      0.204129
      51A      0.222281    52A      0.227055    53A      0.232724
      54A      0.253746    55A      0.257632    56A      0.264578
      57A      0.269102    58A      0.281449    59A      0.285519
      60A      0.290342    61A      0.304960    62A      0.359218
      63A      0.371815    64A      0.391237    65A      0.397585
      66A      0.406940    67A      0.422971    68A      0.447575
      69A      0.476199    70A      0.481539    71A      0.498443
      72A      0.512345    73A      0.583853    74A      0.597064
      75A      0.601623    76A      0.608282    77A      0.617760
      78A      0.639228    79A      0.642500    80A      0.666997
      81A      0.681477    82A      0.695027    83A      0.698012
      84A      0.705329    85A      0.723420    86A      0.726852
      87A      0.742764    88A      0.744981    89A      0.748413
      90A      0.760244    91A      0.769437    92A      0.778338
      93A      0.790994    94A      0.796560    95A      0.802642
      96A      0.831085    97A      0.851129    98A      0.874913
      99A      0.878487   100A      0.885300   101A      0.892454
     102A      0.895264   103A      0.898747   104A      0.904568
     105A      0.912451   106A      0.916321   107A      0.922009
     108A      0.934495   109A      0.936438   110A      0.950849
     111A      0.955901   112A      0.968871   113A      0.985399
     114A      0.987101   115A      1.016137   116A      1.022336
     117A      1.065674   118A      1.074018   119A      1.097383
     120A      1.121665   121A      1.128253   122A      1.136184
     123A      1.141477   124A      1.142580   125A      1.156956
     126A      1.177949   127A      1.213918   128A      1.225221
     129A      1.237508   130A      1.243169   131A      1.250865
     132A      1.253724   133A      1.275994   134A      1.297171
     135A      1.303422   136A      1.334560   137A      1.341113
     138A      1.360770   139A      1.370500   140A      1.399893
     141A      1.443890   142A      1.477213   143A      1.487051
     144A      1.520295   145A      1.562299   146A      1.580737
     147A      1.590573   148A      1.594585   149A      1.622562
     150A      1.634616   151A      1.641017   152A      1.675039
     153A      1.686054   154A      1.695230   155A      1.700886
     156A      1.749804   157A      1.761646   158A      1.773822
     159A      1.796568   160A      1.814365   161A      1.832842
     162A      1.835653   163A      1.866229   164A      1.875216
     165A      1.879564   166A      1.884940   167A      1.901853
     168A      1.905421   169A      1.914791   170A      1.922082
     171A      1.936203   172A      1.939915   173A      1.947753
     174A      1.949182   175A      1.950766   176A      1.956432
     177A      1.972120   178A      1.984172   179A      2.008108
     180A      2.011662   181A      2.020569   182A      2.030052
     183A      2.056344   184A      2.073794   185A      2.086615
     186A      2.099130   187A      2.103673   188A      2.109150
     189A      2.116614   190A      2.118128   191A      2.124608
     192A      2.153693   193A      2.162896   194A      2.165834
     195A      2.185737   196A      2.233954   197A      2.250556
     198A      2.273985   199A      2.300957   200A      2.314734
     201A      2.327336   202A      2.335551   203A      2.339119
     204A      2.346642   205A      2.390307   206A      2.406893
     207A      2.451269   208A      2.462089   209A      2.469075
     210A      2.475881   211A      2.538725   212A      2.560132
     213A      2.570401   214A      2.581247   215A      2.614373
     216A      2.647675   217A      2.663435   218A      2.690525
     219A      2.709707   220A      2.761746   221A      2.772481
     222A      2.779978   223A      2.792569   224A      2.798630
     225A      2.806364   226A      2.835731   227A      2.852011
     228A      2.854702   229A      2.866122   230A      2.897727
     231A      2.923637   232A      2.950864   233A      2.961739
     234A      2.971420   235A      3.015217   236A      3.034391
     237A      3.090025   238A      3.108337   239A      3.223405
     240A      3.311591   241A      3.371488   242A      3.753443
     243A      3.966649

    Final Occupation by Irrep:
              A
    DOCC [    44 ]

  @RHF Final Energy:  -479.76277721681282

   => Energetics <=

    Nuclear Repulsion Energy =            645.4906635031640008
    One-Electron Energy =               -1928.9819967279850061
    Two-Electron Energy =                 803.7285560080083542
    Total Energy =                       -479.7627772168127649

Computation Completed

Properties will be evaluated at   0.000000,   0.000000,   0.000000 [a0]

Properties computed using the SCF density matrix

  Nuclear Dipole Moment: [e a0]
     X:   -15.9745      Y:    10.5875      Z:     1.6607

  Electronic Dipole Moment: [e a0]
     X:    16.3476      Y:   -11.1513      Z:    -1.2307

  Dipole Moment: [e a0]
     X:     0.3731      Y:    -0.5639      Z:     0.4300     Total:     0.8013

  Dipole Moment: [D]
     X:     0.9484      Y:    -1.4332      Z:     1.0929     Total:     2.0367

*** tstop() called on ds3 at Tue Apr 28 10:05:15 2020
Module time:
	user time   =     174.75 seconds =       2.91 minutes
	system time =      83.59 seconds =       1.39 minutes
	total time  =        253 seconds =       4.22 minutes
Total time:
	user time   =     174.75 seconds =       2.91 minutes
	system time =      83.59 seconds =       1.39 minutes
	total time  =        253 seconds =       4.22 minutes
                                     G D M A

                                 by Anthony Stone

                           version 2.2.06, 22 June 2011

               Distributed Multipoles from Gaussian wavefunctions

Starting at 10:5:15 on 28 Apr 2020

Using SCF density matrix from file ./SSI/SSI-104TRP-107ALA-1-dimer.test.2314.fchk

                         Distributed Multipole Analysis

Standard DMA

Positions and radii in angstrom
Multipole moments in atomic units, ea_0^k for rank k

C          x = -1.799000  y = -2.215738  z =  0.202188 angstrom
           Maximum rank =  0   Radius =  0.650 angstrom
                   Q00  =  -0.167706

C          x =  0.299000  y = -0.736738  z = -0.232812 angstrom
           Maximum rank =  0   Radius =  0.650 angstrom
                   Q00  =  -0.049980

C          x = -0.333000  y = -1.911738  z =  0.272188 angstrom
           Maximum rank =  0   Radius =  0.650 angstrom
                   Q00  =  -0.131132

C          x =  1.662000  y = -0.800738  z =  0.143188 angstrom
           Maximum rank =  0   Radius =  0.650 angstrom
                   Q00  =   0.246915

C          x =  0.624000  y = -2.626738  z =  0.903188 angstrom
           Maximum rank =  0   Radius =  0.650 angstrom
                   Q00  =   0.071312

C          x = -0.153000  y =  0.380262  z = -0.962812 angstrom
           Maximum rank =  0   Radius =  0.650 angstrom
                   Q00  =  -0.102287

C          x =  0.754000  y =  1.390262  z = -1.290812 angstrom
           Maximum rank =  0   Radius =  0.650 angstrom
                   Q00  =  -0.096972

C          x =  2.092000  y =  1.289262  z = -0.902812 angstrom
           Maximum rank =  0   Radius =  0.650 angstrom
                   Q00  =  -0.002208

C          x =  2.549000  y =  0.194262  z = -0.185812 angstrom
           Maximum rank =  0   Radius =  0.650 angstrom
                   Q00  =  -0.124468

N          x =  1.843000  y = -1.971738  z =  0.837188 angstrom
           Maximum rank =  0   Radius =  0.650 angstrom
                   Q00  =  -0.507260

H          x = -1.184000  y =  0.483262  z = -1.277812 angstrom
           Maximum rank =  0   Radius =  0.325 angstrom
                   Q00  =   0.068810

H          x =  0.399000  y =  2.247262  z = -1.847812 angstrom
           Maximum rank =  0   Radius =  0.325 angstrom
                   Q00  =   0.061864

H          x =  2.781000  y =  2.074262  z = -1.164812 angstrom
           Maximum rank =  0   Radius =  0.325 angstrom
                   Q00  =   0.063343

H          x = -1.933000  y = -3.259738  z =  0.475188 angstrom
           Maximum rank =  0   Radius =  0.325 angstrom
                   Q00  =   0.100575

H          x = -2.108000  y = -2.080738  z = -0.840812 angstrom
           Maximum rank =  0   Radius =  0.325 angstrom
                   Q00  =   0.086222

H          x =  0.349000  y = -3.565738  z =  1.366188 angstrom
           Maximum rank =  0   Radius =  0.325 angstrom
                   Q00  =   0.102676

H          x =  2.723000  y = -2.286738  z =  1.229188 angstrom
           Maximum rank =  0   Radius =  0.325 angstrom
                   Q00  =   0.222017

H          x =  3.572000  y =  0.078262  z =  0.129188 angstrom
           Maximum rank =  0   Radius =  0.325 angstrom
                   Q00  =   0.071436

H          x = -2.351800  y = -1.605308  z =  0.931428 angstrom
           Maximum rank =  0   Radius =  0.325 angstrom
                   Q00  =   0.086304

C          x = -2.508000  y =  2.974262  z =  0.241188 angstrom
           Maximum rank =  0   Radius =  0.650 angstrom
                   Q00  =  -0.227548

C          x = -3.907000  y =  3.416262  z =  0.687188 angstrom
           Maximum rank =  0   Radius =  0.650 angstrom
                   Q00  =  -0.244005

H          x = -2.561000  y =  1.980262  z = -0.198812 angstrom
           Maximum rank =  0   Radius =  0.325 angstrom
                   Q00  =   0.077174

H          x = -2.126000  y =  3.677262  z = -0.500812 angstrom
           Maximum rank =  0   Radius =  0.325 angstrom
                   Q00  =   0.076073

H          x = -1.836000  y =  2.956262  z =  1.099188 angstrom
           Maximum rank =  0   Radius =  0.325 angstrom
                   Q00  =   0.086045

H          x = -3.840000  y =  4.412262  z =  1.125188 angstrom
           Maximum rank =  0   Radius =  0.325 angstrom
                   Q00  =   0.078686

H          x = -4.315550  y =  2.696362  z =  1.411638 angstrom
           Maximum rank =  0   Radius =  0.325 angstrom
                   Q00  =   0.077900

H          x = -4.602970  y =  3.480362  z = -0.162232 angstrom
           Maximum rank =  0   Radius =  0.325 angstrom
                   Q00  =   0.076215

Total multipoles referred to origin at
           x =   0.000000,  y =    0.000000,  z =    0.000000 angstrom
                   Q00  =  -0.000000

Finished at 10:5:15 on 28 Apr 2020

  DMA results are available in the Python driver through the
	  variable('DMA DISTRIBUTED MULTIPOLES')
  and
	  variable('DMA TOTAL MULTIPOLES')
  commands.

    Psi4 stopped on: Tuesday, 28 April 2020 10:05AM
    Psi4 wall time for execution: 0:04:13.12

*** Psi4 exiting successfully. Buy a developer a beer!
