                               Psi4 1.3.2 release

  ==> Input File <==

--------------------------------------------------------------------------
import numpy as np
set {scf_type pk
basis cc-pvdz
d_convergence 10
gdma_switch   0
gdma_limit    0
gdma_origin   [ 0.0,  0.0,  0.0 ]
}
molecule test {
    units Angstrom
    0 1
    --
    0 1
    C                1.534829904578028    -1.794828811133650    -1.886557828835876
    C                1.558829904578028    -2.314828811133650    -0.448557828835876
    O                0.777829904578028    -1.824828811133650     0.407442171164124
    O                2.386829904578029    -3.223828811133649    -0.186557828835876
    H                1.680829904578028    -2.634828811133650    -2.569557828835876
    H                2.368829904578028    -1.104828811133650    -2.021557828835876
    H                0.602739904578028    -1.275409811133650    -2.153787828835876
    C               -2.159170095421972     3.430171188866351    -0.374557828835876
    C               -1.019170095421972     1.437171188866350     0.614442171164124
    N                0.052829904578028     0.932171188866350     1.194442171164124
    N               -1.030170095421972     2.721171188866350     0.257442171164124
    N               -2.060170095421972     0.649171188866350     0.395442171164124
    H                0.830829904578028     1.515171188866350     1.454442171164124
    H                0.156829904578028    -0.080828811133650     1.241442171164124
    H               -0.326170095421972     3.289171188866351     0.708442171164124
    H               -2.896170095421972     1.027171188866350    -0.039557828835876
    H               -2.037170095421971    -0.305828811133650     0.709442171164124
    H               -1.987170095421972     4.508171188866351    -0.336557828835876
    H               -3.067170095421972     3.244171188866350     0.202442171164124
    H               -2.339150095421972     3.141476188866350    -1.420627828835876

}
e, wfn = energy('scf', return_wfn=True)
gdma(wfn)
dmavals = variable('DMA DISTRIBUTED MULTIPOLES')
charges = np.array(dmavals)
print(charges)
np.save('SSI-077ASP-080ARG-2-dimer.npy', np.array(charges))--------------------------------------------------------------------------

*** tstart() called on ds3
*** at Mon Apr 27 16:31:25 2020

   => Loading Basis Set <=

    Name: CC-PVDZ
    Role: ORBITAL
    Keyword: BASIS
    atoms 1-2, 8-9   entry C          line   138 file /theoryfs2/ds/metcalf/miniconda2/envs/tf2gpu/share/psi4/basis/cc-pvdz.gbs
    atoms 3-4        entry O          line   198 file /theoryfs2/ds/metcalf/miniconda2/envs/tf2gpu/share/psi4/basis/cc-pvdz.gbs
    atoms 5-7, 13-20 entry H          line    22 file /theoryfs2/ds/metcalf/miniconda2/envs/tf2gpu/share/psi4/basis/cc-pvdz.gbs
    atoms 10-12      entry N          line   168 file /theoryfs2/ds/metcalf/miniconda2/envs/tf2gpu/share/psi4/basis/cc-pvdz.gbs

         ---------------------------------------------------------
                                   SCF
               by Justin Turney, Rob Parrish, Andy Simmonett
                          and Daniel G. A. Smith
                              RHF Reference
                        1 Threads,    500 MiB Core
         ---------------------------------------------------------

  ==> Geometry <==

    Molecular point group: c1
    Full point group: C1

    Geometry (in Angstrom), charge = 0, multiplicity = 1:

       Center              X                  Y                   Z               Mass
    ------------   -----------------  -----------------  -----------------  -----------------
         C            1.534829904578    -1.794828811134    -1.886557828836    12.000000000000
         C            1.558829904578    -2.314828811134    -0.448557828836    12.000000000000
         O            0.777829904578    -1.824828811134     0.407442171164    15.994914619570
         O            2.386829904578    -3.223828811134    -0.186557828836    15.994914619570
         H            1.680829904578    -2.634828811134    -2.569557828836     1.007825032230
         H            2.368829904578    -1.104828811134    -2.021557828836     1.007825032230
         H            0.602739904578    -1.275409811134    -2.153787828836     1.007825032230
         C           -2.159170095422     3.430171188866    -0.374557828836    12.000000000000
         C           -1.019170095422     1.437171188866     0.614442171164    12.000000000000
         N            0.052829904578     0.932171188866     1.194442171164    14.003074004430
         N           -1.030170095422     2.721171188866     0.257442171164    14.003074004430
         N           -2.060170095422     0.649171188866     0.395442171164    14.003074004430
         H            0.830829904578     1.515171188866     1.454442171164     1.007825032230
         H            0.156829904578    -0.080828811134     1.241442171164     1.007825032230
         H           -0.326170095422     3.289171188866     0.708442171164     1.007825032230
         H           -2.896170095422     1.027171188866    -0.039557828836     1.007825032230
         H           -2.037170095422    -0.305828811134     0.709442171164     1.007825032230
         H           -1.987170095422     4.508171188866    -0.336557828836     1.007825032230
         H           -3.067170095422     3.244171188866     0.202442171164     1.007825032230
         H           -2.339150095422     3.141476188866    -1.420627828836     1.007825032230

  Running in c1 symmetry.

  Rotational constants: A =      0.11898  B =      0.01637  C =      0.01585 [cm^-1]
  Rotational constants: A =   3567.06806  B =    490.62576  C =    475.10278 [MHz]
  Nuclear repulsion =  440.212885664716907

  Charge       = 0
  Multiplicity = 1
  Electrons    = 72
  Nalpha       = 36
  Nbeta        = 36

  ==> Algorithm <==

  SCF Algorithm Type is PK.
  DIIS enabled.
  MOM disabled.
  Fractional occupation disabled.
  Guess Type is SAD.
  Energy threshold   = 1.00e-06
  Density threshold  = 1.00e-10
  Integral threshold = 0.00e+00

  ==> Primary Basis <==

  Basis Set: CC-PVDZ
    Blend: CC-PVDZ
    Number of shells: 87
    Number of basis function: 181
    Number of Cartesian functions: 190
    Spherical Harmonics?: true
    Max angular momentum: 2

  ==> Pre-Iterations <==

   -------------------------------------------------------
    Irrep   Nso     Nmo     Nalpha   Nbeta   Ndocc  Nsocc
   -------------------------------------------------------
     A        181     181       0       0       0       0
   -------------------------------------------------------
    Total     181     181      36      36      36       0
   -------------------------------------------------------

  ==> Integral Setup <==

  Using integral reordering PK algorithm.
  Sizing the integral batches needed.
  Building batch lookup table.
   Calculation information:
      Number of atoms:                  20
      Number of AO shells:              87
      Number of primitives:            253
      Number of atomic orbitals:       190
      Number of basis functions:       181

      Integral cutoff                 1.00e-12
      Number of threads:                 1

	Batch   1 pq = [       0,    9405] index = [             0,44231715] size =     44231715
	Batch   2 pq = [    9405,   13301] index = [      44231715,88464951] size =     44233236
	Batch   3 pq = [   13301,   16471] index = [      88464951,135655156] size =     47190205
  Task number: 13
  Buffer size: 11059200
  Buffer per thread: 2
  We computed 5384185 shell quartets total.
  Whereas there are 7328706 unique shell quartets.

  ==> DiskJK: Disk-Based J/K Matrices <==

    J tasked:                  Yes
    K tasked:                  Yes
    wK tasked:                  No
    Memory [MiB]:              375
    Schwarz Cutoff:          1E-12

    OpenMP threads:              1

  Minimum eigenvalue in the overlap matrix is 4.0022042361E-03.
  Using Symmetric Orthogonalization.

  SCF Guess: Superposition of Atomic Densities via on-the-fly atomic UHF.

  ==> Iterations <==

                        Total Energy        Delta E     RMS |[F,P]|

   @RHF iter SAD:  -469.53546486840548   -4.69535e+02   0.00000e+00
   @RHF iter   1:  -470.65815017058412   -1.12269e+00   4.30519e-03 DIIS
   @RHF iter   2:  -470.88745785452733   -2.29308e-01   2.31474e-03 DIIS
   @RHF iter   3:  -470.95083749584421   -6.33796e-02   4.06735e-04 DIIS
   @RHF iter   4:  -470.95427109365420   -3.43360e-03   1.47864e-04 DIIS
   @RHF iter   5:  -470.95471539872347   -4.44305e-04   2.94641e-05 DIIS
   @RHF iter   6:  -470.95474013103671   -2.47323e-05   1.52657e-05 DIIS
   @RHF iter   7:  -470.95474479546732   -4.66443e-06   3.80678e-06 DIIS
   @RHF iter   8:  -470.95474547430769   -6.78840e-07   1.76692e-06 DIIS
   @RHF iter   9:  -470.95474558492543   -1.10618e-07   6.27086e-07 DIIS
   @RHF iter  10:  -470.95474560660051   -2.16751e-08   2.08889e-07 DIIS
   @RHF iter  11:  -470.95474560875567   -2.15516e-09   5.35366e-08 DIIS
   @RHF iter  12:  -470.95474560886106   -1.05388e-10   1.94408e-08 DIIS
   @RHF iter  13:  -470.95474560887521   -1.41540e-11   5.87767e-09 DIIS
   @RHF iter  14:  -470.95474560887357    1.64846e-12   1.82846e-09 DIIS
   @RHF iter  15:  -470.95474560887652   -2.95586e-12   7.00095e-10 DIIS
   @RHF iter  16:  -470.95474560887624    2.84217e-13   2.32976e-10 DIIS
   @RHF iter  17:  -470.95474560887948   -3.24007e-12   8.14212e-11 DIIS
  Energy and wave function converged.

  ==> Post-Iterations <==

    Orbital Energies [Eh]
    ---------------------

    Doubly Occupied:

       1A    -20.393109     2A    -20.370947     3A    -15.678316
       4A    -15.671012     5A    -15.642921     6A    -11.468272
       7A    -11.353433     8A    -11.237687     9A    -11.157331
      10A     -1.421664    11A     -1.287072    12A     -1.265780
      13A     -1.258189    14A     -1.153310    15A     -1.039311
      16A     -0.920190    17A     -0.902562    18A     -0.855006
      19A     -0.807013    20A     -0.745620    21A     -0.728127
      22A     -0.708222    23A     -0.686543    24A     -0.637479
      25A     -0.627437    26A     -0.616383    27A     -0.525804
      28A     -0.517832    29A     -0.512914    30A     -0.493450
      31A     -0.470519    32A     -0.455955    33A     -0.419570
      34A     -0.307309    35A     -0.287106    36A     -0.281663

    Virtual:

      37A      0.098229    38A      0.123516    39A      0.138854
      40A      0.157888    41A      0.182126    42A      0.205648
      43A      0.208380    44A      0.220713    45A      0.252054
      46A      0.266198    47A      0.291098    48A      0.313023
      49A      0.332790    50A      0.374720    51A      0.397979
      52A      0.442644    53A      0.456038    54A      0.469251
      55A      0.546650    56A      0.569271    57A      0.590101
      58A      0.598254    59A      0.623611    60A      0.631212
      61A      0.648733    62A      0.663623    63A      0.671324
      64A      0.696494    65A      0.721049    66A      0.771268
      67A      0.778108    68A      0.789276    69A      0.799526
      70A      0.808190    71A      0.839806    72A      0.846674
      73A      0.855796    74A      0.864139    75A      0.900909
      76A      0.907507    77A      0.920251    78A      0.932254
      79A      0.939736    80A      0.954061    81A      0.973140
      82A      0.981431    83A      1.014303    84A      1.024162
      85A      1.037131    86A      1.065797    87A      1.088790
      88A      1.106299    89A      1.167546    90A      1.186577
      91A      1.220429    92A      1.235028    93A      1.244659
      94A      1.271307    95A      1.290500    96A      1.314941
      97A      1.354807    98A      1.359685    99A      1.390143
     100A      1.434459   101A      1.463339   102A      1.476799
     103A      1.507355   104A      1.520372   105A      1.560400
     106A      1.571103   107A      1.594120   108A      1.602756
     109A      1.622522   110A      1.634127   111A      1.645116
     112A      1.674275   113A      1.727192   114A      1.734656
     115A      1.740715   116A      1.772741   117A      1.818014
     118A      1.824163   119A      1.839406   120A      1.849970
     121A      1.891586   122A      1.903797   123A      1.914131
     124A      1.928901   125A      1.940081   126A      1.955649
     127A      1.967715   128A      1.988748   129A      2.022570
     130A      2.042543   131A      2.099164   132A      2.112824
     133A      2.132088   134A      2.137663   135A      2.170998
     136A      2.202692   137A      2.232255   138A      2.246220
     139A      2.264491   140A      2.298139   141A      2.322669
     142A      2.341866   143A      2.400758   144A      2.424179
     145A      2.445618   146A      2.448254   147A      2.463710
     148A      2.476749   149A      2.547204   150A      2.583173
     151A      2.600620   152A      2.614328   153A      2.643313
     154A      2.653126   155A      2.681113   156A      2.689216
     157A      2.732514   158A      2.807282   159A      2.811940
     160A      2.863046   161A      2.878194   162A      2.891941
     163A      2.897910   164A      2.937527   165A      2.958667
     166A      2.992852   167A      3.119565   168A      3.149297
     169A      3.173333   170A      3.179889   171A      3.224666
     172A      3.238365   173A      3.249159   174A      3.500969
     175A      3.643209   176A      3.655492   177A      3.702268
     178A      3.757629   179A      3.934841   180A      3.973228
     181A      4.060707

    Final Occupation by Irrep:
              A
    DOCC [    36 ]

  @RHF Final Energy:  -470.95474560887948

   => Energetics <=

    Nuclear Repulsion Energy =            440.2128856647169073
    One-Electron Energy =               -1516.5251453825117096
    Two-Electron Energy =                 605.3575141089153249
    Total Energy =                       -470.9547456088795343

Computation Completed

Properties will be evaluated at   0.000000,   0.000000,   0.000000 [a0]

Properties computed using the SCF density matrix

  Nuclear Dipole Moment: [e a0]
     X:    -6.5504      Y:    10.5788      Z:    -3.9655

  Electronic Dipole Moment: [e a0]
     X:     2.0877      Y:    -3.6775      Z:     4.4467

  Dipole Moment: [e a0]
     X:    -4.4627      Y:     6.9013      Z:     0.4811     Total:     8.2325

  Dipole Moment: [D]
     X:   -11.3429      Y:    17.5413      Z:     1.2229     Total:    20.9249

*** tstop() called on ds3 at Mon Apr 27 16:32:37 2020
Module time:
	user time   =      47.42 seconds =       0.79 minutes
	system time =      28.14 seconds =       0.47 minutes
	total time  =         72 seconds =       1.20 minutes
Total time:
	user time   =      47.42 seconds =       0.79 minutes
	system time =      28.14 seconds =       0.47 minutes
	total time  =         72 seconds =       1.20 minutes
                                     G D M A

                                 by Anthony Stone

                           version 2.2.06, 22 June 2011

               Distributed Multipoles from Gaussian wavefunctions

Starting at 16:32:37 on 27 Apr 2020

Using SCF density matrix from file ./SSI/SSI-077ASP-080ARG-2-dimer.test.27081.fchk

                         Distributed Multipole Analysis

Standard DMA

Positions and radii in angstrom
Multipole moments in atomic units, ea_0^k for rank k

C          x =  1.534830  y = -1.794829  z = -1.886558 angstrom
           Maximum rank =  0   Radius =  0.650 angstrom
                   Q00  =  -0.281905

C          x =  1.558830  y = -2.314829  z = -0.448558 angstrom
           Maximum rank =  0   Radius =  0.650 angstrom
                   Q00  =   0.941490

O          x =  0.777830  y = -1.824829  z =  0.407442 angstrom
           Maximum rank =  0   Radius =  0.650 angstrom
                   Q00  =  -0.961420

O          x =  2.386830  y = -3.223829  z = -0.186558 angstrom
           Maximum rank =  0   Radius =  0.650 angstrom
                   Q00  =  -0.879594

H          x =  1.680830  y = -2.634829  z = -2.569558 angstrom
           Maximum rank =  0   Radius =  0.325 angstrom
                   Q00  =   0.093510

H          x =  2.368830  y = -1.104829  z = -2.021558 angstrom
           Maximum rank =  0   Radius =  0.325 angstrom
                   Q00  =   0.090420

H          x =  0.602740  y = -1.275410  z = -2.153788 angstrom
           Maximum rank =  0   Radius =  0.325 angstrom
                   Q00  =   0.031366

C          x = -2.159170  y =  3.430171  z = -0.374558 angstrom
           Maximum rank =  0   Radius =  0.650 angstrom
                   Q00  =  -0.120934

C          x = -1.019170  y =  1.437171  z =  0.614442 angstrom
           Maximum rank =  0   Radius =  0.650 angstrom
                   Q00  =   1.065008

N          x =  0.052830  y =  0.932171  z =  1.194442 angstrom
           Maximum rank =  0   Radius =  0.650 angstrom
                   Q00  =  -0.584273

N          x = -1.030170  y =  2.721171  z =  0.257442 angstrom
           Maximum rank =  0   Radius =  0.650 angstrom
                   Q00  =  -0.498285

N          x = -2.060170  y =  0.649171  z =  0.395442 angstrom
           Maximum rank =  0   Radius =  0.650 angstrom
                   Q00  =  -0.567819

H          x =  0.830830  y =  1.515171  z =  1.454442 angstrom
           Maximum rank =  0   Radius =  0.325 angstrom
                   Q00  =   0.243529

H          x =  0.156830  y = -0.080829  z =  1.241442 angstrom
           Maximum rank =  0   Radius =  0.325 angstrom
                   Q00  =   0.313691

H          x = -0.326170  y =  3.289171  z =  0.708442 angstrom
           Maximum rank =  0   Radius =  0.325 angstrom
                   Q00  =   0.214854

H          x = -2.896170  y =  1.027171  z = -0.039558 angstrom
           Maximum rank =  0   Radius =  0.325 angstrom
                   Q00  =   0.249938

H          x = -2.037170  y = -0.305829  z =  0.709442 angstrom
           Maximum rank =  0   Radius =  0.325 angstrom
                   Q00  =   0.279883

H          x = -1.987170  y =  4.508171  z = -0.336558 angstrom
           Maximum rank =  0   Radius =  0.325 angstrom
                   Q00  =   0.151916

H          x = -3.067170  y =  3.244171  z =  0.202442 angstrom
           Maximum rank =  0   Radius =  0.325 angstrom
                   Q00  =   0.092796

H          x = -2.339150  y =  3.141476  z = -1.420628 angstrom
           Maximum rank =  0   Radius =  0.325 angstrom
                   Q00  =   0.125827

Total multipoles referred to origin at
           x =   0.000000,  y =    0.000000,  z =    0.000000 angstrom
                   Q00  =  -0.000000

Finished at 16:32:37 on 27 Apr 2020

  DMA results are available in the Python driver through the
	  variable('DMA DISTRIBUTED MULTIPOLES')
  and
	  variable('DMA TOTAL MULTIPOLES')
  commands.

    Psi4 stopped on: Monday, 27 April 2020 04:32PM
    Psi4 wall time for execution: 0:01:11.98

*** Psi4 exiting successfully. Buy a developer a beer!
