                               Psi4 1.3.2 release

  ==> Input File <==

--------------------------------------------------------------------------
import numpy as np
set {scf_type pk
basis cc-pvdz
d_convergence 10
gdma_switch   0
gdma_limit    0
gdma_origin   [ 0.0,  0.0,  0.0 ]
}
molecule test {
    units Angstrom
    0 1
    --
    0 1
    C               -0.196926214061731     0.127937827632602     1.661082386270677
    C               -1.388926214061731     0.542937827632602     2.475082386270677
    H                0.128073785938269     0.943937827632602     1.014082386270677
    H                0.621073785938269    -0.143062172367398     2.329082386270677
    H               -0.438926214061731    -0.744062172367398     1.056082386270677
    H               -1.771926214061731    -0.323062172367398     3.017082386270677
    H               -2.171820214061731     0.952406827632602     1.819787386270676
    H               -1.087128214061731     1.315572827632602     3.197545886270677
    C                1.241073785938269    -0.741062172367398    -1.598917613729323
    C                0.343073785938269     0.068937827632602    -2.542917613729323
    H                1.901073785938269    -1.377062172367398    -2.175917613729324
    H                1.838073785938269    -0.061062172367398    -0.990917613729323
    H                0.625073785938269    -1.355062172367398    -0.942917613729323
    H               -0.244926214061731     0.755937827632602    -1.934917613729324
    H               -0.326978214061731    -0.616948172367398    -3.081982613729324
    H                0.948635785938269     0.667333827632602    -3.239492613729323

}
e, wfn = energy('scf', return_wfn=True)
gdma(wfn)
dmavals = variable('DMA DISTRIBUTED MULTIPOLES')
charges = np.array(dmavals)
print(charges)
np.save('SSI-100THR-104LEU-1-dimer.npy', np.array(charges))--------------------------------------------------------------------------

*** tstart() called on ds3
*** at Mon Apr 27 13:23:07 2020

   => Loading Basis Set <=

    Name: CC-PVDZ
    Role: ORBITAL
    Keyword: BASIS
    atoms 1-2, 9-10  entry C          line   138 file /theoryfs2/ds/metcalf/miniconda2/envs/tf2gpu/share/psi4/basis/cc-pvdz.gbs
    atoms 3-8, 11-16 entry H          line    22 file /theoryfs2/ds/metcalf/miniconda2/envs/tf2gpu/share/psi4/basis/cc-pvdz.gbs

         ---------------------------------------------------------
                                   SCF
               by Justin Turney, Rob Parrish, Andy Simmonett
                          and Daniel G. A. Smith
                              RHF Reference
                        1 Threads,    500 MiB Core
         ---------------------------------------------------------

  ==> Geometry <==

    Molecular point group: c1
    Full point group: C1

    Geometry (in Angstrom), charge = 0, multiplicity = 1:

       Center              X                  Y                   Z               Mass
    ------------   -----------------  -----------------  -----------------  -----------------
         C           -0.196926214062     0.127937827633     1.661082386271    12.000000000000
         C           -1.388926214062     0.542937827633     2.475082386271    12.000000000000
         H            0.128073785938     0.943937827633     1.014082386271     1.007825032230
         H            0.621073785938    -0.143062172367     2.329082386271     1.007825032230
         H           -0.438926214062    -0.744062172367     1.056082386271     1.007825032230
         H           -1.771926214062    -0.323062172367     3.017082386271     1.007825032230
         H           -2.171820214062     0.952406827633     1.819787386271     1.007825032230
         H           -1.087128214062     1.315572827633     3.197545886271     1.007825032230
         C            1.241073785938    -0.741062172367    -1.598917613729    12.000000000000
         C            0.343073785938     0.068937827633    -2.542917613729    12.000000000000
         H            1.901073785938    -1.377062172367    -2.175917613729     1.007825032230
         H            1.838073785938    -0.061062172367    -0.990917613729     1.007825032230
         H            0.625073785938    -1.355062172367    -0.942917613729     1.007825032230
         H           -0.244926214062     0.755937827633    -1.934917613729     1.007825032230
         H           -0.326978214062    -0.616948172367    -3.081982613729     1.007825032230
         H            0.948635785938     0.667333827633    -3.239492613729     1.007825032230

  Running in c1 symmetry.

  Rotational constants: A =      0.47105  B =      0.05129  C =      0.04810 [cm^-1]
  Rotational constants: A =  14121.72327  B =   1537.67411  C =   1442.08033 [MHz]
  Nuclear repulsion =  123.229785302871292

  Charge       = 0
  Multiplicity = 1
  Electrons    = 36
  Nalpha       = 18
  Nbeta        = 18

  ==> Algorithm <==

  SCF Algorithm Type is PK.
  DIIS enabled.
  MOM disabled.
  Fractional occupation disabled.
  Guess Type is SAD.
  Energy threshold   = 1.00e-06
  Density threshold  = 1.00e-10
  Integral threshold = 0.00e+00

  ==> Primary Basis <==

  Basis Set: CC-PVDZ
    Blend: CC-PVDZ
    Number of shells: 60
    Number of basis function: 116
    Number of Cartesian functions: 120
    Spherical Harmonics?: true
    Max angular momentum: 2

  ==> Pre-Iterations <==

   -------------------------------------------------------
    Irrep   Nso     Nmo     Nalpha   Nbeta   Ndocc  Nsocc
   -------------------------------------------------------
     A        116     116       0       0       0       0
   -------------------------------------------------------
    Total     116     116      18      18      18       0
   -------------------------------------------------------

  ==> Integral Setup <==

  Using integral reordering PK algorithm.
  Sizing the integral batches needed.
  Building batch lookup table.
   Calculation information:
      Number of atoms:                  16
      Number of AO shells:              60
      Number of primitives:            148
      Number of atomic orbitals:       120
      Number of basis functions:       116

      Integral cutoff                 1.00e-12
      Number of threads:                 1

	Batch   1 pq = [       0,    6786] index = [             0,23028291] size =     23028291
  Task number: 3
  Buffer size: 11059200
  Buffer per thread: 2
  We computed 1456571 shell quartets total.
  Whereas there are 1675365 unique shell quartets.

  ==> DiskJK: Disk-Based J/K Matrices <==

    J tasked:                  Yes
    K tasked:                  Yes
    wK tasked:                  No
    Memory [MiB]:              375
    Schwarz Cutoff:          1E-12

    OpenMP threads:              1

  Minimum eigenvalue in the overlap matrix is 6.6222437499E-03.
  Using Symmetric Orthogonalization.

  SCF Guess: Superposition of Atomic Densities via on-the-fly atomic UHF.

  ==> Iterations <==

                        Total Energy        Delta E     RMS |[F,P]|

   @RHF iter SAD:  -157.39194370618543   -1.57392e+02   0.00000e+00
   @RHF iter   1:  -158.30394396187583   -9.12000e-01   4.25555e-03 DIIS
   @RHF iter   2:  -158.43944211077488   -1.35498e-01   1.82071e-03 DIIS
   @RHF iter   3:  -158.46343422109624   -2.39921e-02   3.51809e-04 DIIS
   @RHF iter   4:  -158.46527976403002   -1.84554e-03   3.88260e-05 DIIS
   @RHF iter   5:  -158.46530318661286   -2.34226e-05   6.96833e-06 DIIS
   @RHF iter   6:  -158.46530385564648   -6.69034e-07   1.52812e-06 DIIS
   @RHF iter   7:  -158.46530387656532   -2.09188e-08   3.16686e-07 DIIS
   @RHF iter   8:  -158.46530387758025   -1.01494e-09   3.78034e-08 DIIS
   @RHF iter   9:  -158.46530387760063   -2.03784e-11   8.73546e-09 DIIS
   @RHF iter  10:  -158.46530387760188   -1.25056e-12   2.44409e-09 DIIS
   @RHF iter  11:  -158.46530387760200   -1.13687e-13   6.03118e-10 DIIS
   @RHF iter  12:  -158.46530387760180    1.98952e-13   1.24705e-10 DIIS
   @RHF iter  13:  -158.46530387760174    5.68434e-14   1.97805e-11 DIIS
  Energy and wave function converged.

  ==> Post-Iterations <==

    Orbital Energies [Eh]
    ---------------------

    Doubly Occupied:

       1A    -11.218960     2A    -11.217451     3A    -11.214768
       4A    -11.214635     5A     -1.025642     6A     -1.016666
       7A     -0.837253     8A     -0.832256     9A     -0.604557
      10A     -0.603621    11A     -0.597920    12A     -0.594034
      13A     -0.507004    14A     -0.495202    15A     -0.489539
      16A     -0.485664    17A     -0.483904    18A     -0.478068

    Virtual:

      19A      0.170293    20A      0.199065    21A      0.225076
      22A      0.231199    23A      0.243950    24A      0.255694
      25A      0.265307    26A      0.274958    27A      0.279542
      28A      0.292878    29A      0.317326    30A      0.362088
      31A      0.396345    32A      0.401124    33A      0.562734
      34A      0.588168    35A      0.598097    36A      0.606621
      37A      0.612967    38A      0.626693    39A      0.680813
      40A      0.685650    41A      0.691964    42A      0.785834
      43A      0.841307    44A      0.872419    45A      0.886940
      46A      0.889358    47A      0.892065    48A      0.896941
      49A      0.905820    50A      0.909811    51A      0.917543
      52A      0.925421    53A      0.937915    54A      0.956554
      55A      0.977386    56A      0.990915    57A      1.125622
      58A      1.127513    59A      1.129271    60A      1.150823
      61A      1.215651    62A      1.267267    63A      1.473030
      64A      1.481621    65A      1.486724    66A      1.501386
      67A      1.566687    68A      1.584452    69A      1.677580
      70A      1.679926    71A      1.690720    72A      1.705287
      73A      1.849548    74A      1.857339    75A      1.863978
      76A      1.882881    77A      1.895870    78A      1.930543
      79A      1.937952    80A      1.944579    81A      1.946980
      82A      1.948632    83A      1.955410    84A      1.959995
      85A      1.962847    86A      1.971732    87A      1.984579
      88A      2.045406    89A      2.110230    90A      2.113687
      91A      2.120033    92A      2.127796    93A      2.283904
      94A      2.303379    95A      2.316388    96A      2.326741
      97A      2.449228    98A      2.460248    99A      2.463418
     100A      2.474876   101A      2.566496   102A      2.572470
     103A      2.575840   104A      2.585181   105A      2.760097
     106A      2.763910   107A      2.789912   108A      2.803316
     109A      2.842861   110A      2.848202   111A      2.854724
     112A      2.861924   113A      2.947499   114A      2.954212
     115A      2.970599   116A      2.974080

    Final Occupation by Irrep:
              A
    DOCC [    18 ]

  @RHF Final Energy:  -158.46530387760174

   => Energetics <=

    Nuclear Repulsion Energy =            123.2297853028712922
    One-Electron Energy =                -455.5558908860028282
    Two-Electron Energy =                 173.8608017055298092
    Total Energy =                       -158.4653038776017411

Computation Completed

Properties will be evaluated at   0.000000,   0.000000,   0.000000 [a0]

Properties computed using the SCF density matrix

  Nuclear Dipole Moment: [e a0]
     X:     0.0190      Y:     0.0139      Z:     0.0633

  Electronic Dipole Moment: [e a0]
     X:    -0.0086      Y:    -0.0231      Z:    -0.0445

  Dipole Moment: [e a0]
     X:     0.0104      Y:    -0.0091      Z:     0.0188     Total:     0.0233

  Dipole Moment: [D]
     X:     0.0264      Y:    -0.0232      Z:     0.0477     Total:     0.0592

*** tstop() called on ds3 at Mon Apr 27 13:23:20 2020
Module time:
	user time   =      10.28 seconds =       0.17 minutes
	system time =       3.68 seconds =       0.06 minutes
	total time  =         13 seconds =       0.22 minutes
Total time:
	user time   =      10.28 seconds =       0.17 minutes
	system time =       3.68 seconds =       0.06 minutes
	total time  =         13 seconds =       0.22 minutes
                                     G D M A

                                 by Anthony Stone

                           version 2.2.06, 22 June 2011

               Distributed Multipoles from Gaussian wavefunctions

Starting at 13:23:20 on 27 Apr 2020

Using SCF density matrix from file ./SSI/SSI-100THR-104LEU-1-dimer.test.6408.fchk

                         Distributed Multipole Analysis

Standard DMA

Positions and radii in angstrom
Multipole moments in atomic units, ea_0^k for rank k

C          x = -0.196926  y =  0.127938  z =  1.661082 angstrom
           Maximum rank =  0   Radius =  0.650 angstrom
                   Q00  =  -0.228840

C          x = -1.388926  y =  0.542938  z =  2.475082 angstrom
           Maximum rank =  0   Radius =  0.650 angstrom
                   Q00  =  -0.227956

H          x =  0.128074  y =  0.943938  z =  1.014082 angstrom
           Maximum rank =  0   Radius =  0.325 angstrom
                   Q00  =   0.076321

H          x =  0.621074  y = -0.143062  z =  2.329082 angstrom
           Maximum rank =  0   Radius =  0.325 angstrom
                   Q00  =   0.076016

H          x = -0.438926  y = -0.744062  z =  1.056082 angstrom
           Maximum rank =  0   Radius =  0.325 angstrom
                   Q00  =   0.075345

H          x = -1.771926  y = -0.323062  z =  3.017082 angstrom
           Maximum rank =  0   Radius =  0.325 angstrom
                   Q00  =   0.077711

H          x = -2.171820  y =  0.952407  z =  1.819787 angstrom
           Maximum rank =  0   Radius =  0.325 angstrom
                   Q00  =   0.075793

H          x = -1.087128  y =  1.315573  z =  3.197546 angstrom
           Maximum rank =  0   Radius =  0.325 angstrom
                   Q00  =   0.075037

C          x =  1.241074  y = -0.741062  z = -1.598918 angstrom
           Maximum rank =  0   Radius =  0.650 angstrom
                   Q00  =  -0.234850

C          x =  0.343074  y =  0.068938  z = -2.542918 angstrom
           Maximum rank =  0   Radius =  0.650 angstrom
                   Q00  =  -0.237701

H          x =  1.901074  y = -1.377062  z = -2.175918 angstrom
           Maximum rank =  0   Radius =  0.325 angstrom
                   Q00  =   0.078725

H          x =  1.838074  y = -0.061062  z = -0.990918 angstrom
           Maximum rank =  0   Radius =  0.325 angstrom
                   Q00  =   0.078963

H          x =  0.625074  y = -1.355062  z = -0.942918 angstrom
           Maximum rank =  0   Radius =  0.325 angstrom
                   Q00  =   0.079738

H          x = -0.244926  y =  0.755938  z = -1.934918 angstrom
           Maximum rank =  0   Radius =  0.325 angstrom
                   Q00  =   0.076879

H          x = -0.326978  y = -0.616948  z = -3.081983 angstrom
           Maximum rank =  0   Radius =  0.325 angstrom
                   Q00  =   0.078814

H          x =  0.948636  y =  0.667334  z = -3.239493 angstrom
           Maximum rank =  0   Radius =  0.325 angstrom
                   Q00  =   0.080006

Total multipoles referred to origin at
           x =   0.000000,  y =    0.000000,  z =    0.000000 angstrom
                   Q00  =  -0.000000

Finished at 13:23:20 on 27 Apr 2020

  DMA results are available in the Python driver through the
	  variable('DMA DISTRIBUTED MULTIPOLES')
  and
	  variable('DMA TOTAL MULTIPOLES')
  commands.

    Psi4 stopped on: Monday, 27 April 2020 01:23PM
    Psi4 wall time for execution: 0:00:13.49

*** Psi4 exiting successfully. Buy a developer a beer!
