                               Psi4 1.3.2 release

  ==> Input File <==

--------------------------------------------------------------------------
import numpy as np
set {scf_type pk
basis cc-pvdz
d_convergence 10
gdma_switch   0
gdma_limit    0
gdma_origin   [ 0.0,  0.0,  0.0 ]
}
molecule test {
    units Angstrom
    0 1
    --
    0 1
    C                1.739365325580012     1.581133021520577     0.543039480902998
    C                3.036365325580012     2.372133021520576     0.315039480902998
    C                1.031365325580012     1.936133021520577     1.858039480902998
    H                1.055365325580012     1.753133021520576    -0.288960519097002
    H                1.956365325580012     0.514133021520576     0.577039480902998
    H                3.620365325580012     2.357133021520576     1.237039480902998
    H                0.696365325580012     2.971133021520576     1.852039480902998
    H                0.161365325580012     1.290133021520576     1.981039480902998
    H                1.711365325580012     1.777133021520577     2.695039480902998
    H                3.634141325580012     1.898207021520576    -0.477460519097002
    H                2.822875325580013     3.422333021520577     0.067049480902998
    C               -3.016634674419988    -0.441866978479423     0.232039480902998
    C                0.097365325580012    -1.008866978479424    -1.502960519097002
    C               -1.669634674419988    -0.862866978479424    -0.224960519097002
    C               -0.821634674419988    -1.747866978479423     0.340039480902998
    N               -1.091634674419988    -0.426866978479424    -1.388960519097002
    N                0.281365325580012    -1.827866978479423    -0.475960519097002
    H                0.803365325580012    -0.846866978479424    -2.308960519097002
    H                1.129365325580012    -2.368866978479424    -0.322960519097002
    H               -0.995634674419988    -2.288866978479423     1.258039480902998
    H               -3.459634674419988     0.214133021520576    -0.516960519097002
    H               -2.890634674419988     0.142133021520576     1.144039480902998
    H               -3.708608674419988    -1.271802978479424     0.437899480902998

}
e, wfn = energy('scf', return_wfn=True)
gdma(wfn)
dmavals = variable('DMA DISTRIBUTED MULTIPOLES')
charges = np.array(dmavals)
print(charges)
np.save('SSI-072ILE-082HIE-1-dimer.npy', np.array(charges))--------------------------------------------------------------------------

*** tstart() called on ds3
*** at Tue Apr 28 00:49:03 2020

   => Loading Basis Set <=

    Name: CC-PVDZ
    Role: ORBITAL
    Keyword: BASIS
    atoms 1-3, 12-15  entry C          line   138 file /theoryfs2/ds/metcalf/miniconda2/envs/tf2gpu/share/psi4/basis/cc-pvdz.gbs
    atoms 4-11, 18-23 entry H          line    22 file /theoryfs2/ds/metcalf/miniconda2/envs/tf2gpu/share/psi4/basis/cc-pvdz.gbs
    atoms 16-17       entry N          line   168 file /theoryfs2/ds/metcalf/miniconda2/envs/tf2gpu/share/psi4/basis/cc-pvdz.gbs

         ---------------------------------------------------------
                                   SCF
               by Justin Turney, Rob Parrish, Andy Simmonett
                          and Daniel G. A. Smith
                              RHF Reference
                        1 Threads,    500 MiB Core
         ---------------------------------------------------------

  ==> Geometry <==

    Molecular point group: c1
    Full point group: C1

    Geometry (in Angstrom), charge = 0, multiplicity = 1:

       Center              X                  Y                   Z               Mass
    ------------   -----------------  -----------------  -----------------  -----------------
         C            1.739365325580     1.581133021521     0.543039480903    12.000000000000
         C            3.036365325580     2.372133021521     0.315039480903    12.000000000000
         C            1.031365325580     1.936133021521     1.858039480903    12.000000000000
         H            1.055365325580     1.753133021521    -0.288960519097     1.007825032230
         H            1.956365325580     0.514133021521     0.577039480903     1.007825032230
         H            3.620365325580     2.357133021521     1.237039480903     1.007825032230
         H            0.696365325580     2.971133021521     1.852039480903     1.007825032230
         H            0.161365325580     1.290133021521     1.981039480903     1.007825032230
         H            1.711365325580     1.777133021521     2.695039480903     1.007825032230
         H            3.634141325580     1.898207021521    -0.477460519097     1.007825032230
         H            2.822875325580     3.422333021521     0.067049480903     1.007825032230
         C           -3.016634674420    -0.441866978479     0.232039480903    12.000000000000
         C            0.097365325580    -1.008866978479    -1.502960519097    12.000000000000
         C           -1.669634674420    -0.862866978479    -0.224960519097    12.000000000000
         C           -0.821634674420    -1.747866978479     0.340039480903    12.000000000000
         N           -1.091634674420    -0.426866978479    -1.388960519097    14.003074004430
         N            0.281365325580    -1.827866978479    -0.475960519097    14.003074004430
         H            0.803365325580    -0.846866978479    -2.308960519097     1.007825032230
         H            1.129365325580    -2.368866978479    -0.322960519097     1.007825032230
         H           -0.995634674420    -2.288866978479     1.258039480903     1.007825032230
         H           -3.459634674420     0.214133021521    -0.516960519097     1.007825032230
         H           -2.890634674420     0.142133021521     1.144039480903     1.007825032230
         H           -3.708608674420    -1.271802978479     0.437899480903     1.007825032230

  Running in c1 symmetry.

  Rotational constants: A =      0.07442  B =      0.02469  C =      0.02165 [cm^-1]
  Rotational constants: A =   2231.17587  B =    740.16033  C =    648.96231 [MHz]
  Nuclear repulsion =  435.737455565466064

  Charge       = 0
  Multiplicity = 1
  Electrons    = 70
  Nalpha       = 35
  Nbeta        = 35

  ==> Algorithm <==

  SCF Algorithm Type is PK.
  DIIS enabled.
  MOM disabled.
  Fractional occupation disabled.
  Guess Type is SAD.
  Energy threshold   = 1.00e-06
  Density threshold  = 1.00e-10
  Integral threshold = 0.00e+00

  ==> Primary Basis <==

  Basis Set: CC-PVDZ
    Blend: CC-PVDZ
    Number of shells: 96
    Number of basis function: 196
    Number of Cartesian functions: 205
    Spherical Harmonics?: true
    Max angular momentum: 2

  ==> Pre-Iterations <==

   -------------------------------------------------------
    Irrep   Nso     Nmo     Nalpha   Nbeta   Ndocc  Nsocc
   -------------------------------------------------------
     A        196     196       0       0       0       0
   -------------------------------------------------------
    Total     196     196      35      35      35       0
   -------------------------------------------------------

  ==> Integral Setup <==

  Using integral reordering PK algorithm.
  Sizing the integral batches needed.
  Building batch lookup table.
   Calculation information:
      Number of atoms:                  23
      Number of AO shells:              96
      Number of primitives:            268
      Number of atomic orbitals:       205
      Number of basis functions:       196

      Integral cutoff                 1.00e-12
      Number of threads:                 1

	Batch   1 pq = [       0,    9405] index = [             0,44231715] size =     44231715
	Batch   2 pq = [    9405,   13301] index = [      44231715,88464951] size =     44233236
	Batch   3 pq = [   13301,   16290] index = [      88464951,132690195] size =     44225244
	Batch   4 pq = [   16290,   18810] index = [     132690195,176917455] size =     44227260
	Batch   5 pq = [   18810,   19306] index = [     176917455,186370471] size =      9453016
  Task number: 17
  Buffer size: 11059200
  Buffer per thread: 2
  We computed 9657865 shell quartets total.
  Whereas there are 10841496 unique shell quartets.

  ==> DiskJK: Disk-Based J/K Matrices <==

    J tasked:                  Yes
    K tasked:                  Yes
    wK tasked:                  No
    Memory [MiB]:              375
    Schwarz Cutoff:          1E-12

    OpenMP threads:              1

  Minimum eigenvalue in the overlap matrix is 1.1838548148E-03.
  Using Symmetric Orthogonalization.

  SCF Guess: Superposition of Atomic Densities via on-the-fly atomic UHF.

  ==> Iterations <==

                        Total Energy        Delta E     RMS |[F,P]|

   @RHF iter SAD:  -381.25537031151475   -3.81255e+02   0.00000e+00
   @RHF iter   1:  -381.89155061743247   -6.36180e-01   3.15145e-03 DIIS
   @RHF iter   2:  -382.09071196207208   -1.99161e-01   1.58951e-03 DIIS
   @RHF iter   3:  -382.13720308737231   -4.64911e-02   3.99840e-04 DIIS
   @RHF iter   4:  -382.14106200324795   -3.85892e-03   1.69860e-04 DIIS
   @RHF iter   5:  -382.14168472341146   -6.22720e-04   2.49049e-05 DIIS
   @RHF iter   6:  -382.14170669238962   -2.19690e-05   1.01766e-05 DIIS
   @RHF iter   7:  -382.14171003657208   -3.34418e-06   3.38712e-06 DIIS
   @RHF iter   8:  -382.14171066009044   -6.23518e-07   1.44377e-06 DIIS
   @RHF iter   9:  -382.14171080638965   -1.46299e-07   5.40808e-07 DIIS
   @RHF iter  10:  -382.14171082515634   -1.87667e-08   1.61087e-07 DIIS
   @RHF iter  11:  -382.14171082713659   -1.98025e-09   6.80708e-08 DIIS
   @RHF iter  12:  -382.14171082738153   -2.44938e-10   2.86035e-08 DIIS
   @RHF iter  13:  -382.14171082742592   -4.43947e-11   8.25753e-09 DIIS
   @RHF iter  14:  -382.14171082742911   -3.18323e-12   2.76841e-09 DIIS
   @RHF iter  15:  -382.14171082742990   -7.95808e-13   1.06454e-09 DIIS
   @RHF iter  16:  -382.14171082743070   -7.95808e-13   3.85430e-10 DIIS
   @RHF iter  17:  -382.14171082743019    5.11591e-13   1.40129e-10 DIIS
   @RHF iter  18:  -382.14171082743081   -6.25278e-13   4.02421e-11 DIIS
  Energy and wave function converged.

  ==> Post-Iterations <==

    Orbital Energies [Eh]
    ---------------------

    Doubly Occupied:

       1A    -15.622809     2A    -15.528858     3A    -11.291727
       4A    -11.247108     5A    -11.238790     6A    -11.221065
       7A    -11.215232     8A    -11.213897     9A    -11.209436
      10A     -1.344736    11A     -1.156977    12A     -1.045626
      13A     -1.033929    14A     -0.942507    15A     -0.919846
      16A     -0.819539    17A     -0.792043    18A     -0.761856
      19A     -0.743227    20A     -0.619507    21A     -0.612075
      22A     -0.607684    23A     -0.596173    24A     -0.587492
      25A     -0.554756    26A     -0.544764    27A     -0.540949
      28A     -0.528102    29A     -0.520237    30A     -0.465732
      31A     -0.464439    32A     -0.462988    33A     -0.412612
      34A     -0.380479    35A     -0.308333

    Virtual:

      36A      0.162771    37A      0.178319    38A      0.188677
      39A      0.198697    40A      0.218561    41A      0.229686
      42A      0.237587    43A      0.244874    44A      0.247161
      45A      0.254471    46A      0.270754    47A      0.276706
      48A      0.287126    49A      0.303419    50A      0.309652
      51A      0.340666    52A      0.366802    53A      0.377040
      54A      0.399158    55A      0.418971    56A      0.430997
      57A      0.480417    58A      0.485144    59A      0.573927
      60A      0.602713    61A      0.609534    62A      0.612847
      63A      0.615366    64A      0.627306    65A      0.647787
      66A      0.659596    67A      0.666967    68A      0.718360
      69A      0.745454    70A      0.755603    71A      0.766179
      72A      0.794340    73A      0.806252    74A      0.807085
      75A      0.818122    76A      0.843125    77A      0.852940
      78A      0.876257    79A      0.881173    80A      0.892006
      81A      0.898266    82A      0.901314    83A      0.907275
      84A      0.916800    85A      0.920956    86A      0.924946
      87A      0.929322    88A      0.935630    89A      0.945576
      90A      0.969107    91A      0.974381    92A      0.993785
      93A      1.016910    94A      1.026803    95A      1.088184
      96A      1.095228    97A      1.107893    98A      1.117990
      99A      1.125959   100A      1.152657   101A      1.167286
     102A      1.186028   103A      1.217406   104A      1.253750
     105A      1.274812   106A      1.299491   107A      1.323833
     108A      1.339297   109A      1.387462   110A      1.429092
     111A      1.448811   112A      1.469620   113A      1.472203
     114A      1.490098   115A      1.524153   116A      1.538563
     117A      1.570834   118A      1.623875   119A      1.645906
     120A      1.665364   121A      1.677734   122A      1.691161
     123A      1.697496   124A      1.709875   125A      1.741369
     126A      1.781932   127A      1.813786   128A      1.841170
     129A      1.859533   130A      1.865973   131A      1.879818
     132A      1.890987   133A      1.908707   134A      1.911817
     135A      1.927467   136A      1.932297   137A      1.938742
     138A      1.947435   139A      1.956344   140A      1.957955
     141A      1.965903   142A      1.985682   143A      1.990472
     144A      1.992886   145A      2.006903   146A      2.013894
     147A      2.047486   148A      2.061106   149A      2.075669
     150A      2.111439   151A      2.134685   152A      2.158942
     153A      2.162697   154A      2.215653   155A      2.250038
     156A      2.258394   157A      2.290929   158A      2.305522
     159A      2.312370   160A      2.334785   161A      2.354988
     162A      2.378722   163A      2.380576   164A      2.401141
     165A      2.458368   166A      2.480104   167A      2.489501
     168A      2.542240   169A      2.583148   170A      2.588231
     171A      2.610086   172A      2.623021   173A      2.638098
     174A      2.671071   175A      2.740384   176A      2.756614
     177A      2.772655   178A      2.777852   179A      2.783440
     180A      2.791597   181A      2.810139   182A      2.828891
     183A      2.837498   184A      2.877009   185A      2.893614
     186A      2.915195   187A      2.936259   188A      2.972613
     189A      2.974960   190A      2.989144   191A      3.071588
     192A      3.074709   193A      3.157330   194A      3.242456
     195A      3.476137   196A      3.801855

    Final Occupation by Irrep:
              A
    DOCC [    35 ]

  @RHF Final Energy:  -382.14171082743081

   => Energetics <=

    Nuclear Repulsion Energy =            435.7374555654660639
    One-Electron Energy =               -1380.6472760993192423
    Two-Electron Energy =                 562.7681097064223650
    Total Energy =                       -382.1417108274308703

Computation Completed

Properties will be evaluated at   0.000000,   0.000000,   0.000000 [a0]

Properties computed using the SCF density matrix

  Nuclear Dipole Moment: [e a0]
     X:     6.1301      Y:     8.9718      Z:     6.8807

  Electronic Dipole Moment: [e a0]
     X:    -5.3234      Y:    -9.8825      Z:    -6.3847

  Dipole Moment: [e a0]
     X:     0.8067      Y:    -0.9108      Z:     0.4961     Total:     1.3139

  Dipole Moment: [D]
     X:     2.0504      Y:    -2.3150      Z:     1.2608     Total:     3.3396

*** tstop() called on ds3 at Tue Apr 28 00:50:37 2020
Module time:
	user time   =      66.94 seconds =       1.12 minutes
	system time =      30.09 seconds =       0.50 minutes
	total time  =         94 seconds =       1.57 minutes
Total time:
	user time   =      66.94 seconds =       1.12 minutes
	system time =      30.09 seconds =       0.50 minutes
	total time  =         94 seconds =       1.57 minutes
                                     G D M A

                                 by Anthony Stone

                           version 2.2.06, 22 June 2011

               Distributed Multipoles from Gaussian wavefunctions

Starting at 0:50:37 on 28 Apr 2020

Using SCF density matrix from file ./SSI/SSI-072ILE-082HIE-1-dimer.test.32455.fchk

                         Distributed Multipole Analysis

Standard DMA

Positions and radii in angstrom
Multipole moments in atomic units, ea_0^k for rank k

C          x =  1.739365  y =  1.581133  z =  0.543039 angstrom
           Maximum rank =  0   Radius =  0.650 angstrom
                   Q00  =  -0.072108

C          x =  3.036365  y =  2.372133  z =  0.315039 angstrom
           Maximum rank =  0   Radius =  0.650 angstrom
                   Q00  =  -0.242782

C          x =  1.031365  y =  1.936133  z =  1.858039 angstrom
           Maximum rank =  0   Radius =  0.650 angstrom
                   Q00  =  -0.246472

H          x =  1.055365  y =  1.753133  z = -0.288961 angstrom
           Maximum rank =  0   Radius =  0.325 angstrom
                   Q00  =   0.060301

H          x =  1.956365  y =  0.514133  z =  0.577039 angstrom
           Maximum rank =  0   Radius =  0.325 angstrom
                   Q00  =   0.029493

H          x =  3.620365  y =  2.357133  z =  1.237039 angstrom
           Maximum rank =  0   Radius =  0.325 angstrom
                   Q00  =   0.071323

H          x =  0.696365  y =  2.971133  z =  1.852039 angstrom
           Maximum rank =  0   Radius =  0.325 angstrom
                   Q00  =   0.078094

H          x =  0.161365  y =  1.290133  z =  1.981039 angstrom
           Maximum rank =  0   Radius =  0.325 angstrom
                   Q00  =   0.089449

H          x =  1.711365  y =  1.777133  z =  2.695039 angstrom
           Maximum rank =  0   Radius =  0.325 angstrom
                   Q00  =   0.070207

H          x =  3.634141  y =  1.898207  z = -0.477461 angstrom
           Maximum rank =  0   Radius =  0.325 angstrom
                   Q00  =   0.078649

H          x =  2.822875  y =  3.422333  z =  0.067049 angstrom
           Maximum rank =  0   Radius =  0.325 angstrom
                   Q00  =   0.082124

C          x = -3.016635  y = -0.441867  z =  0.232039 angstrom
           Maximum rank =  0   Radius =  0.650 angstrom
                   Q00  =  -0.204551

C          x =  0.097365  y = -1.008867  z = -1.502961 angstrom
           Maximum rank =  0   Radius =  0.650 angstrom
                   Q00  =   0.462944

C          x = -1.669635  y = -0.862867  z = -0.224961 angstrom
           Maximum rank =  0   Radius =  0.650 angstrom
                   Q00  =   0.247055

C          x = -0.821635  y = -1.747867  z =  0.340039 angstrom
           Maximum rank =  0   Radius =  0.650 angstrom
                   Q00  =  -0.009482

N          x = -1.091635  y = -0.426867  z = -1.388961 angstrom
           Maximum rank =  0   Radius =  0.650 angstrom
                   Q00  =  -0.780565

N          x =  0.281365  y = -1.827867  z = -0.475961 angstrom
           Maximum rank =  0   Radius =  0.650 angstrom
                   Q00  =  -0.473370

H          x =  0.803365  y = -0.846867  z = -2.308961 angstrom
           Maximum rank =  0   Radius =  0.325 angstrom
                   Q00  =   0.121865

H          x =  1.129365  y = -2.368867  z = -0.322961 angstrom
           Maximum rank =  0   Radius =  0.325 angstrom
                   Q00  =   0.223807

H          x = -0.995635  y = -2.288867  z =  1.258039 angstrom
           Maximum rank =  0   Radius =  0.325 angstrom
                   Q00  =   0.097223

H          x = -3.459635  y =  0.214133  z = -0.516961 angstrom
           Maximum rank =  0   Radius =  0.325 angstrom
                   Q00  =   0.123434

H          x = -2.890635  y =  0.142133  z =  1.144039 angstrom
           Maximum rank =  0   Radius =  0.325 angstrom
                   Q00  =   0.095548

H          x = -3.708609  y = -1.271803  z =  0.437899 angstrom
           Maximum rank =  0   Radius =  0.325 angstrom
                   Q00  =   0.097813

Total multipoles referred to origin at
           x =   0.000000,  y =    0.000000,  z =    0.000000 angstrom
                   Q00  =  -0.000000

Finished at 0:50:37 on 28 Apr 2020

  DMA results are available in the Python driver through the
	  variable('DMA DISTRIBUTED MULTIPOLES')
  and
	  variable('DMA TOTAL MULTIPOLES')
  commands.

    Psi4 stopped on: Tuesday, 28 April 2020 12:50AM
    Psi4 wall time for execution: 0:01:33.88

*** Psi4 exiting successfully. Buy a developer a beer!
