                               Psi4 1.3.2 release

  ==> Input File <==

--------------------------------------------------------------------------
import numpy as np
set {scf_type pk
basis cc-pvdz
d_convergence 10
gdma_switch   0
gdma_limit    0
gdma_origin   [ 0.0,  0.0,  0.0 ]
}
molecule test {
    units Angstrom
    0 1
    --
    0 1
    C                2.742253994404656    -0.498879308703583    -2.694954363920713
    C                2.555253994404656     0.206120691296417     1.018045636079287
    C                2.286253994404656     1.568120691296417     1.067045636079287
    C                2.696253994404656    -0.429879308703583    -0.209954363920713
    C                2.558253994404656     0.271120691296417    -1.408954363920713
    C                2.156253994404656     2.289120691296417    -0.119954363920713
    C                2.302253994404656     1.646120691296417    -1.356954363920713
    H                2.630253994404656    -0.366879308703583     1.928045636079287
    H                2.173253994404656     2.066120691296418     2.021045636079287
    H                2.902253994404656    -1.490879308703583    -0.231954363920713
    H                1.950253994404656     3.350120691296417    -0.082954363920713
    H                2.132253994404656    -1.401879308703583    -2.639954363920713
    H                3.785253994404655    -0.803879308703583    -2.731954363920713
    H                2.240253994404656     2.234120691296417    -2.244954363920713
    H                2.517737394404655     0.028340691296417    -3.633904363920713
    C               -4.650746005595344     0.382120691296417     0.296045636079287
    C               -0.933746005595344    -0.344879308703583     0.027045636079287
    C               -0.826746005595344    -1.520879308703583     0.771045636079287
    C               -2.174746005595344     0.270120691296417    -0.126954363920713
    C               -3.314746005595344    -0.282879308703583     0.460045636079287
    C               -1.963746005595344    -2.076879308703583     1.361045636079287
    C               -3.200746005595344    -1.454879308703583     1.207045636079287
    H               -0.056746005595344     0.090120691296417    -0.428954363920713
    H                0.136253994404656    -1.997879308703583     0.879045636079287
    H               -2.254746005595344     1.174120691296417    -0.707954363920713
    H               -1.886746005595344    -2.989879308703583     1.935045636079287
    H               -4.479746005595343     1.443120691296417     0.104045636079287
    H               -5.200746005595343     0.310120691296417     1.236045636079287
    H               -4.077746005595344    -1.890879308703582     1.663045636079287
    H               -5.268390005595344    -0.036099308703583    -0.512415363920713

}
e, wfn = energy('scf', return_wfn=True)
gdma(wfn)
dmavals = variable('DMA DISTRIBUTED MULTIPOLES')
charges = np.array(dmavals)
print(charges)
np.save('SSI-012PHE-026PHE-1-dimer.npy', np.array(charges))--------------------------------------------------------------------------

*** tstart() called on ds3
*** at Sun Apr 26 17:07:00 2020

   => Loading Basis Set <=

    Name: CC-PVDZ
    Role: ORBITAL
    Keyword: BASIS
    atoms 1-7, 16-22  entry C          line   138 file /theoryfs2/ds/metcalf/miniconda2/envs/tf2gpu/share/psi4/basis/cc-pvdz.gbs
    atoms 8-15, 23-30 entry H          line    22 file /theoryfs2/ds/metcalf/miniconda2/envs/tf2gpu/share/psi4/basis/cc-pvdz.gbs

         ---------------------------------------------------------
                                   SCF
               by Justin Turney, Rob Parrish, Andy Simmonett
                          and Daniel G. A. Smith
                              RHF Reference
                        1 Threads,    500 MiB Core
         ---------------------------------------------------------

  ==> Geometry <==

    Molecular point group: c1
    Full point group: C1

    Geometry (in Angstrom), charge = 0, multiplicity = 1:

       Center              X                  Y                   Z               Mass
    ------------   -----------------  -----------------  -----------------  -----------------
         C            2.742253994405    -0.498879308704    -2.694954363921    12.000000000000
         C            2.555253994405     0.206120691296     1.018045636079    12.000000000000
         C            2.286253994405     1.568120691296     1.067045636079    12.000000000000
         C            2.696253994405    -0.429879308704    -0.209954363921    12.000000000000
         C            2.558253994405     0.271120691296    -1.408954363921    12.000000000000
         C            2.156253994405     2.289120691296    -0.119954363921    12.000000000000
         C            2.302253994405     1.646120691296    -1.356954363921    12.000000000000
         H            2.630253994405    -0.366879308704     1.928045636079     1.007825032230
         H            2.173253994405     2.066120691296     2.021045636079     1.007825032230
         H            2.902253994405    -1.490879308704    -0.231954363921     1.007825032230
         H            1.950253994405     3.350120691296    -0.082954363921     1.007825032230
         H            2.132253994405    -1.401879308704    -2.639954363921     1.007825032230
         H            3.785253994405    -0.803879308704    -2.731954363921     1.007825032230
         H            2.240253994405     2.234120691296    -2.244954363921     1.007825032230
         H            2.517737394405     0.028340691296    -3.633904363921     1.007825032230
         C           -4.650746005595     0.382120691296     0.296045636079    12.000000000000
         C           -0.933746005595    -0.344879308704     0.027045636079    12.000000000000
         C           -0.826746005595    -1.520879308704     0.771045636079    12.000000000000
         C           -2.174746005595     0.270120691296    -0.126954363921    12.000000000000
         C           -3.314746005595    -0.282879308704     0.460045636079    12.000000000000
         C           -1.963746005595    -2.076879308704     1.361045636079    12.000000000000
         C           -3.200746005595    -1.454879308704     1.207045636079    12.000000000000
         H           -0.056746005595     0.090120691296    -0.428954363921     1.007825032230
         H            0.136253994405    -1.997879308704     0.879045636079     1.007825032230
         H           -2.254746005595     1.174120691296    -0.707954363921     1.007825032230
         H           -1.886746005595    -2.989879308704     1.935045636079     1.007825032230
         H           -4.479746005595     1.443120691296     0.104045636079     1.007825032230
         H           -5.200746005595     0.310120691296     1.236045636079     1.007825032230
         H           -4.077746005595    -1.890879308704     1.663045636079     1.007825032230
         H           -5.268390005595    -0.036099308704    -0.512415363921     1.007825032230

  Running in c1 symmetry.

  Rotational constants: A =      0.03966  B =      0.01038  C =      0.01013 [cm^-1]
  Rotational constants: A =   1188.92199  B =    311.30569  C =    303.61002 [MHz]
  Nuclear repulsion =  782.028410578168860

  Charge       = 0
  Multiplicity = 1
  Electrons    = 100
  Nalpha       = 50
  Nbeta        = 50

  ==> Algorithm <==

  SCF Algorithm Type is PK.
  DIIS enabled.
  MOM disabled.
  Fractional occupation disabled.
  Guess Type is SAD.
  Energy threshold   = 1.00e-06
  Density threshold  = 1.00e-10
  Integral threshold = 0.00e+00

  ==> Primary Basis <==

  Basis Set: CC-PVDZ
    Blend: CC-PVDZ
    Number of shells: 132
    Number of basis function: 276
    Number of Cartesian functions: 290
    Spherical Harmonics?: true
    Max angular momentum: 2

  ==> Pre-Iterations <==

   -------------------------------------------------------
    Irrep   Nso     Nmo     Nalpha   Nbeta   Ndocc  Nsocc
   -------------------------------------------------------
     A        276     276       0       0       0       0
   -------------------------------------------------------
    Total     276     276      50      50      50       0
   -------------------------------------------------------

  ==> Integral Setup <==

  Using integral reordering PK algorithm.
  Sizing the integral batches needed.
  Building batch lookup table.
   Calculation information:
      Number of atoms:                  30
      Number of AO shells:             132
      Number of primitives:            388
      Number of atomic orbitals:       290
      Number of basis functions:       276

      Integral cutoff                 1.00e-12
      Number of threads:                 1

	Batch   1 pq = [       0,    9405] index = [             0,44231715] size =     44231715
	Batch   2 pq = [    9405,   13301] index = [      44231715,88464951] size =     44233236
	Batch   3 pq = [   13301,   16290] index = [      88464951,132690195] size =     44225244
	Batch   4 pq = [   16290,   18810] index = [     132690195,176917455] size =     44227260
	Batch   5 pq = [   18810,   21030] index = [     176917455,221140965] size =     44223510
	Batch   6 pq = [   21030,   23037] index = [     221140965,265363203] size =     44222238
	Batch   7 pq = [   23037,   24883] index = [     265363203,309594286] size =     44231083
	Batch   8 pq = [   24883,   26601] index = [     309594286,353819901] size =     44225615
	Batch   9 pq = [   26601,   28214] index = [     353819901,398029005] size =     44209104
	Batch  10 pq = [   28214,   29740] index = [     398029005,442248670] size =     44219665
	Batch  11 pq = [   29740,   31191] index = [     442248670,486454836] size =     44206166
	Batch  12 pq = [   31191,   32578] index = [     486454836,530679331] size =     44224495
	Batch  13 pq = [   32578,   33908] index = [     530679331,574893186] size =     44213855
	Batch  14 pq = [   33908,   35188] index = [     574893186,619115266] size =     44222080
	Batch  15 pq = [   35188,   36423] index = [     619115266,663335676] size =     44220410
	Batch  16 pq = [   36423,   37617] index = [     663335676,707538153] size =     44202477
	Batch  17 pq = [   37617,   38226] index = [     707538153,730632651] size =     23094498
  Task number: 67
  Buffer size: 11059200
  Buffer per thread: 2
  We computed 37790292 shell quartets total.
  Whereas there are 38531031 unique shell quartets.

  ==> DiskJK: Disk-Based J/K Matrices <==

    J tasked:                  Yes
    K tasked:                  Yes
    wK tasked:                  No
    Memory [MiB]:              375
    Schwarz Cutoff:          1E-12

    OpenMP threads:              1

  Minimum eigenvalue in the overlap matrix is 3.0070521955E-04.
  Using Symmetric Orthogonalization.

  SCF Guess: Superposition of Atomic Densities via on-the-fly atomic UHF.

  ==> Iterations <==

                        Total Energy        Delta E     RMS |[F,P]|

   @RHF iter SAD:  -538.36088150497289   -5.38361e+02   0.00000e+00
   @RHF iter   1:  -539.22919406094400   -8.68313e-01   2.28908e-03 DIIS
   @RHF iter   2:  -539.47929665921868   -2.50103e-01   9.20421e-04 DIIS
   @RHF iter   3:  -539.51482165059065   -3.55250e-02   2.11958e-04 DIIS
   @RHF iter   4:  -539.51790399265622   -3.08234e-03   4.57267e-05 DIIS
   @RHF iter   5:  -539.51801069319527   -1.06701e-04   1.33203e-05 DIIS
   @RHF iter   6:  -539.51801970994120   -9.01675e-06   3.87128e-06 DIIS
   @RHF iter   7:  -539.51802058813848   -8.78197e-07   1.11829e-06 DIIS
   @RHF iter   8:  -539.51802068920369   -1.01065e-07   3.38613e-07 DIIS
   @RHF iter   9:  -539.51802070811698   -1.89133e-08   1.65102e-07 DIIS
   @RHF iter  10:  -539.51802071266115   -4.54418e-09   8.32370e-08 DIIS
   @RHF iter  11:  -539.51802071422833   -1.56717e-09   3.11932e-08 DIIS
   @RHF iter  12:  -539.51802071444149   -2.13163e-10   1.29281e-08 DIIS
   @RHF iter  13:  -539.51802071446923   -2.77396e-11   3.95102e-09 DIIS
   @RHF iter  14:  -539.51802071446900    2.27374e-13   1.21107e-09 DIIS
   @RHF iter  15:  -539.51802071446934   -3.41061e-13   5.16643e-10 DIIS
   @RHF iter  16:  -539.51802071446855    7.95808e-13   2.53300e-10 DIIS
   @RHF iter  17:  -539.51802071446957   -1.02318e-12   1.29283e-10 DIIS
   @RHF iter  18:  -539.51802071446809    1.47793e-12   4.15489e-11 DIIS
  Energy and wave function converged.

  ==> Post-Iterations <==

    Orbital Energies [Eh]
    ---------------------

    Doubly Occupied:

       1A    -11.246563     2A    -11.239441     3A    -11.237289
       4A    -11.234377     5A    -11.233620     6A    -11.233057
       7A    -11.232057     8A    -11.231999     9A    -11.229746
      10A    -11.224671    11A    -11.224197    12A    -11.223389
      13A    -11.223266    14A    -11.221894    15A     -1.154356
      16A     -1.143629    17A     -1.046068    18A     -1.036729
      19A     -1.013656    20A     -1.003331    21A     -0.933845
      22A     -0.923925    23A     -0.826608    24A     -0.816610
      25A     -0.798582    26A     -0.787469    27A     -0.693428
      28A     -0.683103    29A     -0.633949    30A     -0.631657
      31A     -0.623820    32A     -0.622688    33A     -0.585155
      34A     -0.581249    35A     -0.572974    36A     -0.571884
      37A     -0.566299    38A     -0.555005    39A     -0.537887
      40A     -0.528138    41A     -0.490772    42A     -0.487896
      43A     -0.483880    44A     -0.478139    45A     -0.475499
      46A     -0.471125    47A     -0.335138    48A     -0.327225
      49A     -0.321334    50A     -0.312679

    Virtual:

      51A      0.129379    52A      0.138134    53A      0.144368
      54A      0.149169    55A      0.174969    56A      0.195130
      57A      0.201300    58A      0.204523    59A      0.219831
      60A      0.232887    61A      0.240610    62A      0.251342
      63A      0.259160    64A      0.265183    65A      0.273448
      66A      0.275703    67A      0.281981    68A      0.287670
      69A      0.300346    70A      0.324111    71A      0.362719
      72A      0.373509    73A      0.374899    74A      0.384093
      75A      0.448607    76A      0.455459    77A      0.459463
      78A      0.469236    79A      0.470965    80A      0.482865
      81A      0.494924    82A      0.498477    83A      0.557190
      84A      0.565366    85A      0.587490    86A      0.606604
      87A      0.624463    88A      0.643604    89A      0.664049
      90A      0.676994    91A      0.678900    92A      0.681204
      93A      0.705612    94A      0.707056    95A      0.715953
      96A      0.726888    97A      0.730174    98A      0.736224
      99A      0.740993   100A      0.745660   101A      0.750469
     102A      0.753073   103A      0.754466   104A      0.764746
     105A      0.771555   106A      0.776719   107A      0.791797
     108A      0.802257   109A      0.810435   110A      0.826424
     111A      0.848678   112A      0.851965   113A      0.857705
     114A      0.861013   115A      0.874586   116A      0.877378
     117A      0.881811   118A      0.884580   119A      0.891781
     120A      0.897748   121A      0.902361   122A      0.906851
     123A      0.914961   124A      0.923822   125A      0.934038
     126A      0.936018   127A      0.943942   128A      0.947735
     129A      0.955573   130A      0.980843   131A      0.989858
     132A      1.002510   133A      1.007471   134A      1.031351
     135A      1.054334   136A      1.101737   137A      1.120475
     138A      1.126916   139A      1.139241   140A      1.147997
     141A      1.158739   142A      1.163296   143A      1.165011
     144A      1.193271   145A      1.203053   146A      1.217441
     147A      1.227943   148A      1.234050   149A      1.242980
     150A      1.254911   151A      1.257549   152A      1.267668
     153A      1.276310   154A      1.296616   155A      1.303420
     156A      1.311971   157A      1.313270   158A      1.321477
     159A      1.323120   160A      1.327806   161A      1.337516
     162A      1.372961   163A      1.424649   164A      1.456813
     165A      1.511163   166A      1.515667   167A      1.524181
     168A      1.549284   169A      1.565170   170A      1.571977
     171A      1.588249   172A      1.621191   173A      1.670259
     174A      1.684705   175A      1.692703   176A      1.706422
     177A      1.735120   178A      1.738617   179A      1.741421
     180A      1.756343   181A      1.760825   182A      1.774030
     183A      1.795170   184A      1.798309   185A      1.817521
     186A      1.824973   187A      1.852328   188A      1.870304
     189A      1.877054   190A      1.888474   191A      1.896569
     192A      1.905249   193A      1.910118   194A      1.915384
     195A      1.917816   196A      1.924319   197A      1.927374
     198A      1.938799   199A      1.940628   200A      1.950075
     201A      1.956836   202A      1.959894   203A      1.971226
     204A      1.982142   205A      1.995407   206A      1.998208
     207A      2.003735   208A      2.009612   209A      2.031153
     210A      2.046124   211A      2.056045   212A      2.071275
     213A      2.079106   214A      2.085160   215A      2.104400
     216A      2.113288   217A      2.129424   218A      2.150900
     219A      2.153262   220A      2.158214   221A      2.172682
     222A      2.175074   223A      2.178460   224A      2.191458
     225A      2.199824   226A      2.228556   227A      2.244763
     228A      2.262337   229A      2.272274   230A      2.277096
     231A      2.286675   232A      2.298275   233A      2.306605
     234A      2.314262   235A      2.319391   236A      2.323522
     237A      2.356193   238A      2.398325   239A      2.446723
     240A      2.465476   241A      2.476520   242A      2.484710
     243A      2.499474   244A      2.512611   245A      2.532303
     246A      2.550473   247A      2.628015   248A      2.640506
     249A      2.718237   250A      2.754192   251A      2.757659
     252A      2.760948   253A      2.770061   254A      2.773854
     255A      2.788713   256A      2.805223   257A      2.814562
     258A      2.833333   259A      2.850142   260A      2.853848
     261A      2.858490   262A      2.888561   263A      2.983363
     264A      2.989605   265A      3.004992   266A      3.015355
     267A      3.035970   268A      3.046191   269A      3.161325
     270A      3.165253   271A      3.199095   272A      3.210284
     273A      3.298450   274A      3.314265   275A      3.957672
     276A      3.973605

    Final Occupation by Irrep:
              A
    DOCC [    50 ]

  @RHF Final Energy:  -539.51802071446809

   => Energetics <=

    Nuclear Repulsion Energy =            782.0284105781688595
    One-Electron Energy =               -2280.5102662229114685
    Two-Electron Energy =                 958.9638349302745155
    Total Energy =                       -539.5180207144680935

Computation Completed

Properties will be evaluated at   0.000000,   0.000000,   0.000000 [a0]

Properties computed using the SCF density matrix

  Nuclear Dipole Moment: [e a0]
     X:    -2.5847      Y:    -0.2644      Z:    -3.2330

  Electronic Dipole Moment: [e a0]
     X:     2.6723      Y:     0.3188      Z:     3.0832

  Dipole Moment: [e a0]
     X:     0.0876      Y:     0.0543      Z:    -0.1498     Total:     0.1819

  Dipole Moment: [D]
     X:     0.2227      Y:     0.1381      Z:    -0.3808     Total:     0.4623

*** tstop() called on ds3 at Sun Apr 26 17:19:12 2020
Module time:
	user time   =     323.98 seconds =       5.40 minutes
	system time =     133.75 seconds =       2.23 minutes
	total time  =        732 seconds =      12.20 minutes
Total time:
	user time   =     323.98 seconds =       5.40 minutes
	system time =     133.75 seconds =       2.23 minutes
	total time  =        732 seconds =      12.20 minutes
                                     G D M A

                                 by Anthony Stone

                           version 2.2.06, 22 June 2011

               Distributed Multipoles from Gaussian wavefunctions

Starting at 17:19:12 on 26 Apr 2020

Using SCF density matrix from file ./SSI/SSI-012PHE-026PHE-1-dimer.test.17572.fchk

                         Distributed Multipole Analysis

Standard DMA

Positions and radii in angstrom
Multipole moments in atomic units, ea_0^k for rank k

C          x =  2.742254  y = -0.498879  z = -2.694954 angstrom
           Maximum rank =  0   Radius =  0.650 angstrom
                   Q00  =  -0.208537

C          x =  2.555254  y =  0.206121  z =  1.018046 angstrom
           Maximum rank =  0   Radius =  0.650 angstrom
                   Q00  =  -0.059820

C          x =  2.286254  y =  1.568121  z =  1.067046 angstrom
           Maximum rank =  0   Radius =  0.650 angstrom
                   Q00  =  -0.083399

C          x =  2.696254  y = -0.429879  z = -0.209954 angstrom
           Maximum rank =  0   Radius =  0.650 angstrom
                   Q00  =  -0.009019

C          x =  2.558254  y =  0.271121  z = -1.408954 angstrom
           Maximum rank =  0   Radius =  0.650 angstrom
                   Q00  =  -0.095282

C          x =  2.156254  y =  2.289121  z = -0.119954 angstrom
           Maximum rank =  0   Radius =  0.650 angstrom
                   Q00  =  -0.064746

C          x =  2.302254  y =  1.646121  z = -1.356954 angstrom
           Maximum rank =  0   Radius =  0.650 angstrom
                   Q00  =  -0.093234

H          x =  2.630254  y = -0.366879  z =  1.928046 angstrom
           Maximum rank =  0   Radius =  0.325 angstrom
                   Q00  =   0.066697

H          x =  2.173254  y =  2.066121  z =  2.021046 angstrom
           Maximum rank =  0   Radius =  0.325 angstrom
                   Q00  =   0.065081

H          x =  2.902254  y = -1.490879  z = -0.231954 angstrom
           Maximum rank =  0   Radius =  0.325 angstrom
                   Q00  =   0.053872

H          x =  1.950254  y =  3.350121  z = -0.082954 angstrom
           Maximum rank =  0   Radius =  0.325 angstrom
                   Q00  =   0.067361

H          x =  2.132254  y = -1.401879  z = -2.639954 angstrom
           Maximum rank =  0   Radius =  0.325 angstrom
                   Q00  =   0.101777

H          x =  3.785254  y = -0.803879  z = -2.731954 angstrom
           Maximum rank =  0   Radius =  0.325 angstrom
                   Q00  =   0.102396

H          x =  2.240254  y =  2.234121  z = -2.244954 angstrom
           Maximum rank =  0   Radius =  0.325 angstrom
                   Q00  =   0.059729

H          x =  2.517737  y =  0.028341  z = -3.633904 angstrom
           Maximum rank =  0   Radius =  0.325 angstrom
                   Q00  =   0.103033

C          x = -4.650746  y =  0.382121  z =  0.296046 angstrom
           Maximum rank =  0   Radius =  0.650 angstrom
                   Q00  =  -0.196905

C          x = -0.933746  y = -0.344879  z =  0.027046 angstrom
           Maximum rank =  0   Radius =  0.650 angstrom
                   Q00  =  -0.057865

C          x = -0.826746  y = -1.520879  z =  0.771046 angstrom
           Maximum rank =  0   Radius =  0.650 angstrom
                   Q00  =  -0.089006

C          x = -2.174746  y =  0.270121  z = -0.126954 angstrom
           Maximum rank =  0   Radius =  0.650 angstrom
                   Q00  =  -0.052935

C          x = -3.314746  y = -0.282879  z =  0.460046 angstrom
           Maximum rank =  0   Radius =  0.650 angstrom
                   Q00  =  -0.103302

C          x = -1.963746  y = -2.076879  z =  1.361046 angstrom
           Maximum rank =  0   Radius =  0.650 angstrom
                   Q00  =  -0.079055

C          x = -3.200746  y = -1.454879  z =  1.207046 angstrom
           Maximum rank =  0   Radius =  0.650 angstrom
                   Q00  =  -0.019198

H          x = -0.056746  y =  0.090121  z = -0.428954 angstrom
           Maximum rank =  0   Radius =  0.325 angstrom
                   Q00  =   0.079419

H          x =  0.136254  y = -1.997879  z =  0.879046 angstrom
           Maximum rank =  0   Radius =  0.325 angstrom
                   Q00  =   0.052983

H          x = -2.254746  y =  1.174121  z = -0.707954 angstrom
           Maximum rank =  0   Radius =  0.325 angstrom
                   Q00  =   0.051145

H          x = -1.886746  y = -2.989879  z =  1.935046 angstrom
           Maximum rank =  0   Radius =  0.325 angstrom
                   Q00  =   0.061335

H          x = -4.479746  y =  1.443121  z =  0.104046 angstrom
           Maximum rank =  0   Radius =  0.325 angstrom
                   Q00  =   0.094544

H          x = -5.200746  y =  0.310121  z =  1.236046 angstrom
           Maximum rank =  0   Radius =  0.325 angstrom
                   Q00  =   0.096165

H          x = -4.077746  y = -1.890879  z =  1.663046 angstrom
           Maximum rank =  0   Radius =  0.325 angstrom
                   Q00  =   0.053233

H          x = -5.268390  y = -0.036099  z = -0.512415 angstrom
           Maximum rank =  0   Radius =  0.325 angstrom
                   Q00  =   0.103534

Total multipoles referred to origin at
           x =   0.000000,  y =    0.000000,  z =    0.000000 angstrom
                   Q00  =  -0.000000

Finished at 17:19:12 on 26 Apr 2020

  DMA results are available in the Python driver through the
	  variable('DMA DISTRIBUTED MULTIPOLES')
  and
	  variable('DMA TOTAL MULTIPOLES')
  commands.

    Psi4 stopped on: Sunday, 26 April 2020 05:19PM
    Psi4 wall time for execution: 0:12:11.68

*** Psi4 exiting successfully. Buy a developer a beer!
