                               Psi4 1.3.2 release

  ==> Input File <==

--------------------------------------------------------------------------
import numpy as np
set {scf_type pk
basis cc-pvdz
d_convergence 10
gdma_switch   0
gdma_limit    0
gdma_origin   [ 0.0,  0.0,  0.0 ]
}
molecule test {
    units Angstrom
    0 1
    --
    0 1
    C               -1.301012639465102    -0.123638846230910     1.102362515548129
    C               -1.424012639465102     0.699361153769090     2.372362515548129
    H               -1.647012639465102    -1.140638846230910     1.285362515548129
    H               -1.899012639465102     0.321361153769090     0.306362515548129
    H               -0.258012639465102    -0.164638846230910     0.811362515548129
    H               -1.325012639465102     1.750361153769090     2.103362515548129
    H               -0.612352639465102     0.430961153769090     3.064579515548129
    H               -2.408942639465102     0.539291153769090     2.835267515548129
    C                0.632987360534898    -0.452638846230910    -1.855637484451871
    C                2.093987360534898    -0.129638846230910    -1.618637484451871
    H                0.430987360534898    -1.502638846230910    -1.638637484451871
    H                0.024987360534898     0.189361153769090    -1.228637484451871
    H                0.322987360534898    -0.219638846230910    -2.869637484451871
    H                2.227987360534898     0.951361153769090    -1.659637484451871
    H                2.715507360534898    -0.602078846230910    -2.393560484451871
    H                2.404677360534898    -0.475008846230910    -0.621545484451871

}
e, wfn = energy('scf', return_wfn=True)
gdma(wfn)
dmavals = variable('DMA DISTRIBUTED MULTIPOLES')
charges = np.array(dmavals)
print(charges)
np.save('SSI-017LEU-066LEU-1-dimer.npy', np.array(charges))--------------------------------------------------------------------------

*** tstart() called on ds3
*** at Tue Apr 28 10:36:39 2020

   => Loading Basis Set <=

    Name: CC-PVDZ
    Role: ORBITAL
    Keyword: BASIS
    atoms 1-2, 9-10  entry C          line   138 file /theoryfs2/ds/metcalf/miniconda2/envs/tf2gpu/share/psi4/basis/cc-pvdz.gbs
    atoms 3-8, 11-16 entry H          line    22 file /theoryfs2/ds/metcalf/miniconda2/envs/tf2gpu/share/psi4/basis/cc-pvdz.gbs

         ---------------------------------------------------------
                                   SCF
               by Justin Turney, Rob Parrish, Andy Simmonett
                          and Daniel G. A. Smith
                              RHF Reference
                        1 Threads,    500 MiB Core
         ---------------------------------------------------------

  ==> Geometry <==

    Molecular point group: c1
    Full point group: C1

    Geometry (in Angstrom), charge = 0, multiplicity = 1:

       Center              X                  Y                   Z               Mass
    ------------   -----------------  -----------------  -----------------  -----------------
         C           -1.301012639465    -0.123638846231     1.102362515548    12.000000000000
         C           -1.424012639465     0.699361153769     2.372362515548    12.000000000000
         H           -1.647012639465    -1.140638846231     1.285362515548     1.007825032230
         H           -1.899012639465     0.321361153769     0.306362515548     1.007825032230
         H           -0.258012639465    -0.164638846231     0.811362515548     1.007825032230
         H           -1.325012639465     1.750361153769     2.103362515548     1.007825032230
         H           -0.612352639465     0.430961153769     3.064579515548     1.007825032230
         H           -2.408942639465     0.539291153769     2.835267515548     1.007825032230
         C            0.632987360535    -0.452638846231    -1.855637484452    12.000000000000
         C            2.093987360535    -0.129638846231    -1.618637484452    12.000000000000
         H            0.430987360535    -1.502638846231    -1.638637484452     1.007825032230
         H            0.024987360535     0.189361153769    -1.228637484452     1.007825032230
         H            0.322987360535    -0.219638846231    -2.869637484452     1.007825032230
         H            2.227987360535     0.951361153769    -1.659637484452     1.007825032230
         H            2.715507360535    -0.602078846231    -2.393560484452     1.007825032230
         H            2.404677360535    -0.475008846231    -0.621545484452     1.007825032230

  Running in c1 symmetry.

  Rotational constants: A =      0.48213  B =      0.05172  C =      0.04872 [cm^-1]
  Rotational constants: A =  14453.99496  B =   1550.61308  C =   1460.65356 [MHz]
  Nuclear repulsion =  123.723485546140680

  Charge       = 0
  Multiplicity = 1
  Electrons    = 36
  Nalpha       = 18
  Nbeta        = 18

  ==> Algorithm <==

  SCF Algorithm Type is PK.
  DIIS enabled.
  MOM disabled.
  Fractional occupation disabled.
  Guess Type is SAD.
  Energy threshold   = 1.00e-06
  Density threshold  = 1.00e-10
  Integral threshold = 0.00e+00

  ==> Primary Basis <==

  Basis Set: CC-PVDZ
    Blend: CC-PVDZ
    Number of shells: 60
    Number of basis function: 116
    Number of Cartesian functions: 120
    Spherical Harmonics?: true
    Max angular momentum: 2

  ==> Pre-Iterations <==

   -------------------------------------------------------
    Irrep   Nso     Nmo     Nalpha   Nbeta   Ndocc  Nsocc
   -------------------------------------------------------
     A        116     116       0       0       0       0
   -------------------------------------------------------
    Total     116     116      18      18      18       0
   -------------------------------------------------------

  ==> Integral Setup <==

  Using integral reordering PK algorithm.
  Sizing the integral batches needed.
  Building batch lookup table.
   Calculation information:
      Number of atoms:                  16
      Number of AO shells:              60
      Number of primitives:            148
      Number of atomic orbitals:       120
      Number of basis functions:       116

      Integral cutoff                 1.00e-12
      Number of threads:                 1

	Batch   1 pq = [       0,    6786] index = [             0,23028291] size =     23028291
  Task number: 3
  Buffer size: 11059200
  Buffer per thread: 2
  We computed 1467483 shell quartets total.
  Whereas there are 1675365 unique shell quartets.

  ==> DiskJK: Disk-Based J/K Matrices <==

    J tasked:                  Yes
    K tasked:                  Yes
    wK tasked:                  No
    Memory [MiB]:              375
    Schwarz Cutoff:          1E-12

    OpenMP threads:              1

  Minimum eigenvalue in the overlap matrix is 6.9414025395E-03.
  Using Symmetric Orthogonalization.

  SCF Guess: Superposition of Atomic Densities via on-the-fly atomic UHF.

  ==> Iterations <==

                        Total Energy        Delta E     RMS |[F,P]|

   @RHF iter SAD:  -157.42408305911044   -1.57424e+02   0.00000e+00
   @RHF iter   1:  -158.30068178898330   -8.76599e-01   4.25151e-03 DIIS
   @RHF iter   2:  -158.43626488429013   -1.35583e-01   1.80620e-03 DIIS
   @RHF iter   3:  -158.45992252047034   -2.36576e-02   3.52962e-04 DIIS
   @RHF iter   4:  -158.46178797376484   -1.86545e-03   3.98813e-05 DIIS
   @RHF iter   5:  -158.46181288111086   -2.49073e-05   7.39399e-06 DIIS
   @RHF iter   6:  -158.46181362494366   -7.43833e-07   1.58821e-06 DIIS
   @RHF iter   7:  -158.46181364852200   -2.35783e-08   3.21461e-07 DIIS
   @RHF iter   8:  -158.46181364961996   -1.09796e-09   4.20477e-08 DIIS
   @RHF iter   9:  -158.46181364964968   -2.97291e-11   8.82231e-09 DIIS
   @RHF iter  10:  -158.46181364965065   -9.66338e-13   2.81182e-09 DIIS
   @RHF iter  11:  -158.46181364965076   -1.13687e-13   6.73543e-10 DIIS
   @RHF iter  12:  -158.46181364965136   -5.96856e-13   1.24763e-10 DIIS
   @RHF iter  13:  -158.46181364965074    6.25278e-13   2.56486e-11 DIIS
  Energy and wave function converged.

  ==> Post-Iterations <==

    Orbital Energies [Eh]
    ---------------------

    Doubly Occupied:

       1A    -11.218026     2A    -11.217734     3A    -11.214022
       4A    -11.211697     5A     -1.023374     6A     -1.019375
       7A     -0.839533     8A     -0.831308     9A     -0.607307
      10A     -0.602933    11A     -0.599158    12A     -0.591277
      13A     -0.507001    14A     -0.499855    15A     -0.489768
      16A     -0.486686    17A     -0.483629    18A     -0.470229

    Virtual:

      19A      0.173722    20A      0.199114    21A      0.220950
      22A      0.234751    23A      0.249246    24A      0.252736
      25A      0.268375    26A      0.273357    27A      0.282473
      28A      0.291856    29A      0.320726    30A      0.336667
      31A      0.389313    32A      0.405748    33A      0.568589
      34A      0.599421    35A      0.605521    36A      0.605923
      37A      0.624771    38A      0.628209    39A      0.678301
      40A      0.684910    41A      0.707150    42A      0.805503
      43A      0.850079    44A      0.877469    45A      0.882419
      46A      0.887190    47A      0.891779    48A      0.898146
      49A      0.906031    50A      0.909922    51A      0.912892
      52A      0.924113    53A      0.936555    54A      0.944188
      55A      0.977750    56A      1.025483    57A      1.119195
      58A      1.123622    59A      1.133669    60A      1.172552
      61A      1.240322    62A      1.262014    63A      1.466886
      64A      1.486322    65A      1.489344    66A      1.495897
      67A      1.560282    68A      1.601926    69A      1.674023
      70A      1.682020    71A      1.685179    72A      1.721678
      73A      1.852134    74A      1.861060    75A      1.876501
      76A      1.886331    77A      1.905012    78A      1.922348
      79A      1.940644    80A      1.941564    81A      1.945629
      82A      1.947638    83A      1.947777    84A      1.956860
      85A      1.962673    86A      1.981369    87A      1.994600
      88A      2.023136    89A      2.105460    90A      2.133060
      91A      2.136538    92A      2.165124    93A      2.293568
      94A      2.301748    95A      2.311822    96A      2.329895
      97A      2.439366    98A      2.451789    99A      2.458138
     100A      2.478908   101A      2.574530   102A      2.577519
     103A      2.580484   104A      2.612956   105A      2.761825
     106A      2.765426   107A      2.791885   108A      2.801009
     109A      2.835256   110A      2.847964   111A      2.855084
     112A      2.874562   113A      2.943149   114A      2.949833
     115A      2.983343   116A      3.000211

    Final Occupation by Irrep:
              A
    DOCC [    18 ]

  @RHF Final Energy:  -158.46181364965074

   => Energetics <=

    Nuclear Repulsion Energy =            123.7234855461406795
    One-Electron Energy =                -456.5447734388499157
    Two-Electron Energy =                 174.3594742430584859
    Total Energy =                       -158.4618136496507361

Computation Completed

Properties will be evaluated at   0.000000,   0.000000,   0.000000 [a0]

Properties computed using the SCF density matrix

  Nuclear Dipole Moment: [e a0]
     X:    -0.0218      Y:     0.0732      Z:    -0.0050

  Electronic Dipole Moment: [e a0]
     X:     0.0019      Y:    -0.0589      Z:     0.0032

  Dipole Moment: [e a0]
     X:    -0.0198      Y:     0.0143      Z:    -0.0018     Total:     0.0245

  Dipole Moment: [D]
     X:    -0.0504      Y:     0.0363      Z:    -0.0047     Total:     0.0623

*** tstop() called on ds3 at Tue Apr 28 10:36:49 2020
Module time:
	user time   =       7.51 seconds =       0.13 minutes
	system time =       3.04 seconds =       0.05 minutes
	total time  =         10 seconds =       0.17 minutes
Total time:
	user time   =       7.51 seconds =       0.13 minutes
	system time =       3.04 seconds =       0.05 minutes
	total time  =         10 seconds =       0.17 minutes
                                     G D M A

                                 by Anthony Stone

                           version 2.2.06, 22 June 2011

               Distributed Multipoles from Gaussian wavefunctions

Starting at 10:36:49 on 28 Apr 2020

Using SCF density matrix from file ./SSI/SSI-017LEU-066LEU-1-dimer.test.3470.fchk

                         Distributed Multipole Analysis

Standard DMA

Positions and radii in angstrom
Multipole moments in atomic units, ea_0^k for rank k

C          x = -1.301013  y = -0.123639  z =  1.102363 angstrom
           Maximum rank =  0   Radius =  0.650 angstrom
                   Q00  =  -0.236450

C          x = -1.424013  y =  0.699361  z =  2.372363 angstrom
           Maximum rank =  0   Radius =  0.650 angstrom
                   Q00  =  -0.222460

H          x = -1.647013  y = -1.140639  z =  1.285363 angstrom
           Maximum rank =  0   Radius =  0.325 angstrom
                   Q00  =   0.077461

H          x = -1.899013  y =  0.321361  z =  0.306363 angstrom
           Maximum rank =  0   Radius =  0.325 angstrom
                   Q00  =   0.075535

H          x = -0.258013  y = -0.164639  z =  0.811363 angstrom
           Maximum rank =  0   Radius =  0.325 angstrom
                   Q00  =   0.077904

H          x = -1.325013  y =  1.750361  z =  2.103363 angstrom
           Maximum rank =  0   Radius =  0.325 angstrom
                   Q00  =   0.075266

H          x = -0.612353  y =  0.430961  z =  3.064580 angstrom
           Maximum rank =  0   Radius =  0.325 angstrom
                   Q00  =   0.076908

H          x = -2.408943  y =  0.539291  z =  2.835268 angstrom
           Maximum rank =  0   Radius =  0.325 angstrom
                   Q00  =   0.077754

C          x =  0.632987  y = -0.452639  z = -1.855637 angstrom
           Maximum rank =  0   Radius =  0.650 angstrom
                   Q00  =  -0.234037

C          x =  2.093987  y = -0.129639  z = -1.618637 angstrom
           Maximum rank =  0   Radius =  0.650 angstrom
                   Q00  =  -0.232625

H          x =  0.430987  y = -1.502639  z = -1.638637 angstrom
           Maximum rank =  0   Radius =  0.325 angstrom
                   Q00  =   0.077435

H          x =  0.024987  y =  0.189361  z = -1.228637 angstrom
           Maximum rank =  0   Radius =  0.325 angstrom
                   Q00  =   0.079560

H          x =  0.322987  y = -0.219639  z = -2.869637 angstrom
           Maximum rank =  0   Radius =  0.325 angstrom
                   Q00  =   0.077592

H          x =  2.227987  y =  0.951361  z = -1.659637 angstrom
           Maximum rank =  0   Radius =  0.325 angstrom
                   Q00  =   0.076478

H          x =  2.715507  y = -0.602079  z = -2.393560 angstrom
           Maximum rank =  0   Radius =  0.325 angstrom
                   Q00  =   0.077770

H          x =  2.404677  y = -0.475009  z = -0.621545 angstrom
           Maximum rank =  0   Radius =  0.325 angstrom
                   Q00  =   0.075909

Total multipoles referred to origin at
           x =   0.000000,  y =    0.000000,  z =    0.000000 angstrom
                   Q00  =  -0.000000

Finished at 10:36:49 on 28 Apr 2020

  DMA results are available in the Python driver through the
	  variable('DMA DISTRIBUTED MULTIPOLES')
  and
	  variable('DMA TOTAL MULTIPOLES')
  commands.

    Psi4 stopped on: Tuesday, 28 April 2020 10:36AM
    Psi4 wall time for execution: 0:00:10.52

*** Psi4 exiting successfully. Buy a developer a beer!
