                               Psi4 1.3.2 release

  ==> Input File <==

--------------------------------------------------------------------------
import numpy as np
set {scf_type pk
basis cc-pvdz
d_convergence 10
gdma_switch   0
gdma_limit    0
gdma_origin   [ 0.0,  0.0,  0.0 ]
}
molecule test {
    units Angstrom
    0 1
    --
    0 1
    C               -2.242161189914913     1.931353950884060    -1.142091464996998
    C               -1.744161189914914     3.220353950884061    -1.763091464996998
    H               -3.071161189914914     1.502353950884061    -1.674091464996998
    H               -1.437161189914913     1.203353950884060    -1.193091464996998
    H               -2.507161189914914     2.098353950884060    -0.099091464996998
    H               -0.798161189914914     3.476353950884060    -1.283091464996998
    H               -2.450341189914914     4.040364950884061    -1.565882464996998
    H               -1.583781189914914     3.107574950884060    -2.845477464996998
    C               -1.383161189914914    -2.216646049115940     0.509908535003002
    C               -0.191161189914914    -0.012646049115939     0.785908535003002
    C               -0.123161189914914    -1.382646049115940     0.521908535003002
    C                0.949838810085086     0.787353950884061     0.728908535003002
    C                1.112838810085086    -1.950646049115939     0.211908535003002
    C                2.181838810085087     0.217353950884061     0.412908535003002
    C                2.260838810085086    -1.155646049115939     0.155908535003002
    H               -1.141161189914914     0.437353950884061     1.037908535003002
    H                0.867838810085086     1.851353950884061     0.896908535003002
    H               -1.277161189914914    -3.005646049115939    -0.235091464996998
    H               -2.208161189914914    -1.578646049115940     0.187908535003002
    H                1.182838810085086    -3.007646049115940     0.000908535003002
    H                3.069838810085086     0.834353950884061     0.361908535003002
    H                3.215838810085086    -1.591646049115939    -0.090091464996998
    H               -1.644151189914913    -2.678405049115939     1.473579035003002

}
e, wfn = energy('scf', return_wfn=True)
gdma(wfn)
dmavals = variable('DMA DISTRIBUTED MULTIPOLES')
charges = np.array(dmavals)
print(charges)
np.save('SSI-105LEU-175PHE-1-dimer.npy', np.array(charges))--------------------------------------------------------------------------

*** tstart() called on ds3
*** at Mon Apr 27 23:09:33 2020

   => Loading Basis Set <=

    Name: CC-PVDZ
    Role: ORBITAL
    Keyword: BASIS
    atoms 1-2, 9-15  entry C          line   138 file /theoryfs2/ds/metcalf/miniconda2/envs/tf2gpu/share/psi4/basis/cc-pvdz.gbs
    atoms 3-8, 16-23 entry H          line    22 file /theoryfs2/ds/metcalf/miniconda2/envs/tf2gpu/share/psi4/basis/cc-pvdz.gbs

         ---------------------------------------------------------
                                   SCF
               by Justin Turney, Rob Parrish, Andy Simmonett
                          and Daniel G. A. Smith
                              RHF Reference
                        1 Threads,    500 MiB Core
         ---------------------------------------------------------

  ==> Geometry <==

    Molecular point group: c1
    Full point group: C1

    Geometry (in Angstrom), charge = 0, multiplicity = 1:

       Center              X                  Y                   Z               Mass
    ------------   -----------------  -----------------  -----------------  -----------------
         C           -2.242161189915     1.931353950884    -1.142091464997    12.000000000000
         C           -1.744161189915     3.220353950884    -1.763091464997    12.000000000000
         H           -3.071161189915     1.502353950884    -1.674091464997     1.007825032230
         H           -1.437161189915     1.203353950884    -1.193091464997     1.007825032230
         H           -2.507161189915     2.098353950884    -0.099091464997     1.007825032230
         H           -0.798161189915     3.476353950884    -1.283091464997     1.007825032230
         H           -2.450341189915     4.040364950884    -1.565882464997     1.007825032230
         H           -1.583781189915     3.107574950884    -2.845477464997     1.007825032230
         C           -1.383161189915    -2.216646049116     0.509908535003    12.000000000000
         C           -0.191161189915    -0.012646049116     0.785908535003    12.000000000000
         C           -0.123161189915    -1.382646049116     0.521908535003    12.000000000000
         C            0.949838810085     0.787353950884     0.728908535003    12.000000000000
         C            1.112838810085    -1.950646049116     0.211908535003    12.000000000000
         C            2.181838810085     0.217353950884     0.412908535003    12.000000000000
         C            2.260838810085    -1.155646049116     0.155908535003    12.000000000000
         H           -1.141161189915     0.437353950884     1.037908535003     1.007825032230
         H            0.867838810085     1.851353950884     0.896908535003     1.007825032230
         H           -1.277161189915    -3.005646049116    -0.235091464997     1.007825032230
         H           -2.208161189915    -1.578646049116     0.187908535003     1.007825032230
         H            1.182838810085    -3.007646049116     0.000908535003     1.007825032230
         H            3.069838810085     0.834353950884     0.361908535003     1.007825032230
         H            3.215838810085    -1.591646049116    -0.090091464997     1.007825032230
         H           -1.644151189915    -2.678405049116     1.473579035003     1.007825032230

  Running in c1 symmetry.

  Rotational constants: A =      0.06798  B =      0.02760  C =      0.02139 [cm^-1]
  Rotational constants: A =   2037.90605  B =    827.39364  C =    641.21468 [MHz]
  Nuclear repulsion =  409.651230952820185

  Charge       = 0
  Multiplicity = 1
  Electrons    = 68
  Nalpha       = 34
  Nbeta        = 34

  ==> Algorithm <==

  SCF Algorithm Type is PK.
  DIIS enabled.
  MOM disabled.
  Fractional occupation disabled.
  Guess Type is SAD.
  Energy threshold   = 1.00e-06
  Density threshold  = 1.00e-10
  Integral threshold = 0.00e+00

  ==> Primary Basis <==

  Basis Set: CC-PVDZ
    Blend: CC-PVDZ
    Number of shells: 96
    Number of basis function: 196
    Number of Cartesian functions: 205
    Spherical Harmonics?: true
    Max angular momentum: 2

  ==> Pre-Iterations <==

   -------------------------------------------------------
    Irrep   Nso     Nmo     Nalpha   Nbeta   Ndocc  Nsocc
   -------------------------------------------------------
     A        196     196       0       0       0       0
   -------------------------------------------------------
    Total     196     196      34      34      34       0
   -------------------------------------------------------

  ==> Integral Setup <==

  Using integral reordering PK algorithm.
  Sizing the integral batches needed.
  Building batch lookup table.
   Calculation information:
      Number of atoms:                  23
      Number of AO shells:              96
      Number of primitives:            268
      Number of atomic orbitals:       205
      Number of basis functions:       196

      Integral cutoff                 1.00e-12
      Number of threads:                 1

	Batch   1 pq = [       0,    9405] index = [             0,44231715] size =     44231715
	Batch   2 pq = [    9405,   13301] index = [      44231715,88464951] size =     44233236
	Batch   3 pq = [   13301,   16290] index = [      88464951,132690195] size =     44225244
	Batch   4 pq = [   16290,   18810] index = [     132690195,176917455] size =     44227260
	Batch   5 pq = [   18810,   19306] index = [     176917455,186370471] size =      9453016
  Task number: 17
  Buffer size: 11059200
  Buffer per thread: 2
  We computed 9628806 shell quartets total.
  Whereas there are 10841496 unique shell quartets.

  ==> DiskJK: Disk-Based J/K Matrices <==

    J tasked:                  Yes
    K tasked:                  Yes
    wK tasked:                  No
    Memory [MiB]:              375
    Schwarz Cutoff:          1E-12

    OpenMP threads:              1

  Minimum eigenvalue in the overlap matrix is 3.1205701829E-04.
  Using Symmetric Orthogonalization.

  SCF Guess: Superposition of Atomic Densities via on-the-fly atomic UHF.

  ==> Iterations <==

                        Total Energy        Delta E     RMS |[F,P]|

   @RHF iter SAD:  -347.87609138496202   -3.47876e+02   0.00000e+00
   @RHF iter   1:  -348.76449118033383   -8.88400e-01   2.89192e-03 DIIS
   @RHF iter   2:  -348.95694624071200   -1.92455e-01   1.19286e-03 DIIS
   @RHF iter   3:  -348.98679930356150   -2.98531e-02   2.58161e-04 DIIS
   @RHF iter   4:  -348.98928008545244   -2.48078e-03   5.13675e-05 DIIS
   @RHF iter   5:  -348.98935074166519   -7.06562e-05   1.78926e-05 DIIS
   @RHF iter   6:  -348.98935862761510   -7.88595e-06   4.85562e-06 DIIS
   @RHF iter   7:  -348.98935932640939   -6.98794e-07   1.36652e-06 DIIS
   @RHF iter   8:  -348.98935940637278   -7.99634e-08   4.70518e-07 DIIS
   @RHF iter   9:  -348.98935942619266   -1.98199e-08   2.40392e-07 DIIS
   @RHF iter  10:  -348.98935943198080   -5.78814e-09   1.01402e-07 DIIS
   @RHF iter  11:  -348.98935943327461   -1.29381e-09   3.08452e-08 DIIS
   @RHF iter  12:  -348.98935943334834   -7.37259e-11   1.26372e-08 DIIS
   @RHF iter  13:  -348.98935943335448   -6.13909e-12   4.46573e-09 DIIS
   @RHF iter  14:  -348.98935943335488   -3.97904e-13   1.11897e-09 DIIS
   @RHF iter  15:  -348.98935943335425    6.25278e-13   3.89066e-10 DIIS
   @RHF iter  16:  -348.98935943335647   -2.21689e-12   1.33543e-10 DIIS
   @RHF iter  17:  -348.98935943335584    6.25278e-13   5.52093e-11 DIIS
  Energy and wave function converged.

  ==> Post-Iterations <==

    Orbital Energies [Eh]
    ---------------------

    Doubly Occupied:

       1A    -11.241086     2A    -11.236333     3A    -11.235658
       4A    -11.232875     5A    -11.231817     6A    -11.229979
       7A    -11.229568     8A    -11.216869     9A    -11.210146
      10A     -1.150219    11A     -1.042273    12A     -1.021038
      13A     -1.009873    14A     -0.930240    15A     -0.836621
      16A     -0.823717    17A     -0.794901    18A     -0.690189
      19A     -0.631048    20A     -0.629363    21A     -0.601875
      22A     -0.596700    23A     -0.580578    24A     -0.575360
      25A     -0.561520    26A     -0.534237    27A     -0.503301
      28A     -0.489513    29A     -0.488142    30A     -0.483285
      31A     -0.481703    32A     -0.472943    33A     -0.330451
      34A     -0.321378

    Virtual:

      35A      0.135176    36A      0.139008    37A      0.173181
      38A      0.191667    39A      0.201276    40A      0.220240
      41A      0.231043    42A      0.237796    43A      0.254234
      44A      0.259175    45A      0.275399    46A      0.280651
      47A      0.285628    48A      0.291232    49A      0.318383
      50A      0.329708    51A      0.366623    52A      0.379317
      53A      0.406884    54A      0.454722    55A      0.461663
      56A      0.478845    57A      0.489953    58A      0.560000
      59A      0.589556    60A      0.600486    61A      0.606613
      62A      0.611462    63A      0.650270    64A      0.678864
      65A      0.683336    66A      0.690695    67A      0.700845
      68A      0.704655    69A      0.718673    70A      0.739114
      71A      0.739911    72A      0.745023    73A      0.762487
      74A      0.776140    75A      0.782833    76A      0.812116
      77A      0.846892    78A      0.850192    79A      0.862851
      80A      0.865342    81A      0.877492    82A      0.881602
      83A      0.887333    84A      0.892929    85A      0.903396
      86A      0.907293    87A      0.909825    88A      0.928897
      89A      0.944574    90A      0.949635    91A      0.956079
      92A      0.976719    93A      1.001973    94A      1.005571
      95A      1.029077    96A      1.050381    97A      1.113294
      98A      1.124449    99A      1.128246   100A      1.150654
     101A      1.157795   102A      1.176399   103A      1.190801
     104A      1.231237   105A      1.237484   106A      1.245018
     107A      1.264364   108A      1.271543   109A      1.302335
     110A      1.307719   111A      1.320911   112A      1.347654
     113A      1.411922   114A      1.474083   115A      1.485821
     116A      1.512337   117A      1.527579   118A      1.546464
     119A      1.588651   120A      1.610304   121A      1.682376
     122A      1.684307   123A      1.701470   124A      1.712471
     125A      1.736072   126A      1.756232   127A      1.764410
     128A      1.788779   129A      1.808455   130A      1.852713
     131A      1.860160   132A      1.878659   133A      1.889633
     134A      1.905201   135A      1.909456   136A      1.915854
     137A      1.922203   138A      1.924447   139A      1.939573
     140A      1.946054   141A      1.949077   142A      1.962142
     143A      1.968758   144A      1.974308   145A      1.979396
     146A      1.986436   147A      1.989441   148A      2.023445
     149A      2.041812   150A      2.058890   151A      2.077834
     152A      2.101650   153A      2.111454   154A      2.139436
     155A      2.147612   156A      2.151252   157A      2.160768
     158A      2.170039   159A      2.188953   160A      2.259305
     161A      2.278281   162A      2.295653   163A      2.300599
     164A      2.313576   165A      2.314370   166A      2.321976
     167A      2.335562   168A      2.455934   169A      2.462242
     170A      2.470070   171A      2.487211   172A      2.500492
     173A      2.548614   174A      2.579142   175A      2.590796
     176A      2.616459   177A      2.737142   178A      2.750573
     179A      2.764474   180A      2.769393   181A      2.780486
     182A      2.806643   183A      2.821395   184A      2.852188
     185A      2.857119   186A      2.866641   187A      2.886625
     188A      2.959288   189A      2.980841   190A      2.988100
     191A      3.006810   192A      3.038769   193A      3.150528
     194A      3.191941   195A      3.293422   196A      3.953652

    Final Occupation by Irrep:
              A
    DOCC [    34 ]

  @RHF Final Energy:  -348.98935943335584

   => Energetics <=

    Nuclear Repulsion Energy =            409.6512309528201854
    One-Electron Energy =               -1281.9915803031281030
    Two-Electron Energy =                 523.3509899169520168
    Total Energy =                       -348.9893594333558440

Computation Completed

Properties will be evaluated at   0.000000,   0.000000,   0.000000 [a0]

Properties computed using the SCF density matrix

  Nuclear Dipole Moment: [e a0]
     X:    -9.1704      Y:     6.2711      Z:    -4.7125

  Electronic Dipole Moment: [e a0]
     X:     9.0902      Y:    -6.3751      Z:     4.6843

  Dipole Moment: [e a0]
     X:    -0.0802      Y:    -0.1040      Z:    -0.0281     Total:     0.1343

  Dipole Moment: [D]
     X:    -0.2038      Y:    -0.2642      Z:    -0.0715     Total:     0.3413

*** tstop() called on ds3 at Mon Apr 27 23:11:15 2020
Module time:
	user time   =      73.71 seconds =       1.23 minutes
	system time =      32.63 seconds =       0.54 minutes
	total time  =        102 seconds =       1.70 minutes
Total time:
	user time   =      73.71 seconds =       1.23 minutes
	system time =      32.63 seconds =       0.54 minutes
	total time  =        102 seconds =       1.70 minutes
                                     G D M A

                                 by Anthony Stone

                           version 2.2.06, 22 June 2011

               Distributed Multipoles from Gaussian wavefunctions

Starting at 23:11:15 on 27 Apr 2020

Using SCF density matrix from file ./SSI/SSI-105LEU-175PHE-1-dimer.test.1330.fchk

                         Distributed Multipole Analysis

Standard DMA

Positions and radii in angstrom
Multipole moments in atomic units, ea_0^k for rank k

C          x = -2.242161  y =  1.931354  z = -1.142091 angstrom
           Maximum rank =  0   Radius =  0.650 angstrom
                   Q00  =  -0.232071

C          x = -1.744161  y =  3.220354  z = -1.763091 angstrom
           Maximum rank =  0   Radius =  0.650 angstrom
                   Q00  =  -0.238537

H          x = -3.071161  y =  1.502354  z = -1.674091 angstrom
           Maximum rank =  0   Radius =  0.325 angstrom
                   Q00  =   0.080124

H          x = -1.437161  y =  1.203354  z = -1.193091 angstrom
           Maximum rank =  0   Radius =  0.325 angstrom
                   Q00  =   0.088780

H          x = -2.507161  y =  2.098354  z = -0.099091 angstrom
           Maximum rank =  0   Radius =  0.325 angstrom
                   Q00  =   0.070361

H          x = -0.798161  y =  3.476354  z = -1.283091 angstrom
           Maximum rank =  0   Radius =  0.325 angstrom
                   Q00  =   0.074117

H          x = -2.450341  y =  4.040365  z = -1.565882 angstrom
           Maximum rank =  0   Radius =  0.325 angstrom
                   Q00  =   0.073335

H          x = -1.583781  y =  3.107575  z = -2.845477 angstrom
           Maximum rank =  0   Radius =  0.325 angstrom
                   Q00  =   0.081333

C          x = -1.383161  y = -2.216646  z =  0.509909 angstrom
           Maximum rank =  0   Radius =  0.650 angstrom
                   Q00  =  -0.206117

C          x = -0.191161  y = -0.012646  z =  0.785909 angstrom
           Maximum rank =  0   Radius =  0.650 angstrom
                   Q00  =   0.015439

C          x = -0.123161  y = -1.382646  z =  0.521909 angstrom
           Maximum rank =  0   Radius =  0.650 angstrom
                   Q00  =  -0.108363

C          x =  0.949839  y =  0.787354  z =  0.728909 angstrom
           Maximum rank =  0   Radius =  0.650 angstrom
                   Q00  =  -0.073706

C          x =  1.112839  y = -1.950646  z =  0.211909 angstrom
           Maximum rank =  0   Radius =  0.650 angstrom
                   Q00  =  -0.087024

C          x =  2.181839  y =  0.217354  z =  0.412909 angstrom
           Maximum rank =  0   Radius =  0.650 angstrom
                   Q00  =  -0.088345

C          x =  2.260839  y = -1.155646  z =  0.155909 angstrom
           Maximum rank =  0   Radius =  0.650 angstrom
                   Q00  =  -0.062202

H          x = -1.141161  y =  0.437354  z =  1.037909 angstrom
           Maximum rank =  0   Radius =  0.325 angstrom
                   Q00  =   0.059019

H          x =  0.867839  y =  1.851354  z =  0.896909 angstrom
           Maximum rank =  0   Radius =  0.325 angstrom
                   Q00  =   0.064980

H          x = -1.277161  y = -3.005646  z = -0.235091 angstrom
           Maximum rank =  0   Radius =  0.325 angstrom
                   Q00  =   0.098314

H          x = -2.208161  y = -1.578646  z =  0.187909 angstrom
           Maximum rank =  0   Radius =  0.325 angstrom
                   Q00  =   0.098157

H          x =  1.182839  y = -3.007646  z =  0.000909 angstrom
           Maximum rank =  0   Radius =  0.325 angstrom
                   Q00  =   0.058388

H          x =  3.069839  y =  0.834354  z =  0.361909 angstrom
           Maximum rank =  0   Radius =  0.325 angstrom
                   Q00  =   0.063121

H          x =  3.215839  y = -1.591646  z = -0.090091 angstrom
           Maximum rank =  0   Radius =  0.325 angstrom
                   Q00  =   0.065382

H          x = -1.644151  y = -2.678405  z =  1.473579 angstrom
           Maximum rank =  0   Radius =  0.325 angstrom
                   Q00  =   0.105514

Total multipoles referred to origin at
           x =   0.000000,  y =    0.000000,  z =    0.000000 angstrom
                   Q00  =  -0.000000

Finished at 23:11:15 on 27 Apr 2020

  DMA results are available in the Python driver through the
	  variable('DMA DISTRIBUTED MULTIPOLES')
  and
	  variable('DMA TOTAL MULTIPOLES')
  commands.

    Psi4 stopped on: Monday, 27 April 2020 11:11PM
    Psi4 wall time for execution: 0:01:41.92

*** Psi4 exiting successfully. Buy a developer a beer!
