                               Psi4 1.3.2 release

  ==> Input File <==

--------------------------------------------------------------------------
import numpy as np
set {scf_type pk
basis cc-pvdz
d_convergence 10
gdma_switch   0
gdma_limit    0
gdma_origin   [ 0.0,  0.0,  0.0 ]
}
molecule test {
    units Angstrom
    0 1
    --
    0 1
    C               -0.244174690788677     1.080383962107957    -1.166923844095418
    C               -0.755174690788677     2.179383962107957    -2.142923844095418
    H                0.119825309211323     0.207383962107957    -1.705923844095418
    H                0.568825309211323     1.512383962107956    -0.589923844095418
    H               -1.052174690788677     0.785383962107956    -0.495923844095418
    H               -1.236174690788677     2.957383962107957    -1.550923844095418
    H               -1.470284690788677     1.822183962107957    -2.898593844095418
    H                0.099955309211323     2.645953962107956    -2.653863844095418
    C                0.140825309211323    -1.996616037892043     1.085076155904582
    C                0.855825309211323    -1.269616037892044     2.219076155904582
    H                0.849825309211323    -2.596616037892043     0.512076155904582
    H               -0.608174690788677    -2.667616037892043     1.503076155904582
    H               -0.365174690788677    -1.285616037892044     0.433076155904582
    H                1.494825309211323    -1.988616037892043     2.730076155904582
    H                1.477175309211323    -0.452806037892043     1.823156155904582
    H                0.153685309211323    -0.862436037892043     2.961506155904582

}
e, wfn = energy('scf', return_wfn=True)
gdma(wfn)
dmavals = variable('DMA DISTRIBUTED MULTIPOLES')
charges = np.array(dmavals)
print(charges)
np.save('SSI-089THR-098LEU-1-dimer.npy', np.array(charges))--------------------------------------------------------------------------

*** tstart() called on ds3
*** at Sun Apr 26 21:05:45 2020

   => Loading Basis Set <=

    Name: CC-PVDZ
    Role: ORBITAL
    Keyword: BASIS
    atoms 1-2, 9-10  entry C          line   138 file /theoryfs2/ds/metcalf/miniconda2/envs/tf2gpu/share/psi4/basis/cc-pvdz.gbs
    atoms 3-8, 11-16 entry H          line    22 file /theoryfs2/ds/metcalf/miniconda2/envs/tf2gpu/share/psi4/basis/cc-pvdz.gbs

         ---------------------------------------------------------
                                   SCF
               by Justin Turney, Rob Parrish, Andy Simmonett
                          and Daniel G. A. Smith
                              RHF Reference
                        1 Threads,    500 MiB Core
         ---------------------------------------------------------

  ==> Geometry <==

    Molecular point group: c1
    Full point group: C1

    Geometry (in Angstrom), charge = 0, multiplicity = 1:

       Center              X                  Y                   Z               Mass
    ------------   -----------------  -----------------  -----------------  -----------------
         C           -0.244174690789     1.080383962108    -1.166923844095    12.000000000000
         C           -0.755174690789     2.179383962108    -2.142923844095    12.000000000000
         H            0.119825309211     0.207383962108    -1.705923844095     1.007825032230
         H            0.568825309211     1.512383962108    -0.589923844095     1.007825032230
         H           -1.052174690789     0.785383962108    -0.495923844095     1.007825032230
         H           -1.236174690789     2.957383962108    -1.550923844095     1.007825032230
         H           -1.470284690789     1.822183962108    -2.898593844095     1.007825032230
         H            0.099955309211     2.645953962108    -2.653863844095     1.007825032230
         C            0.140825309211    -1.996616037892     1.085076155905    12.000000000000
         C            0.855825309211    -1.269616037892     2.219076155905    12.000000000000
         H            0.849825309211    -2.596616037892     0.512076155905     1.007825032230
         H           -0.608174690789    -2.667616037892     1.503076155905     1.007825032230
         H           -0.365174690789    -1.285616037892     0.433076155905     1.007825032230
         H            1.494825309211    -1.988616037892     2.730076155905     1.007825032230
         H            1.477175309211    -0.452806037892     1.823156155905     1.007825032230
         H            0.153685309211    -0.862436037892     2.961506155905     1.007825032230

  Running in c1 symmetry.

  Rotational constants: A =      0.56020  B =      0.04512  C =      0.04319 [cm^-1]
  Rotational constants: A =  16794.38092  B =   1352.56281  C =   1294.67090 [MHz]
  Nuclear repulsion =  120.871454220760583

  Charge       = 0
  Multiplicity = 1
  Electrons    = 36
  Nalpha       = 18
  Nbeta        = 18

  ==> Algorithm <==

  SCF Algorithm Type is PK.
  DIIS enabled.
  MOM disabled.
  Fractional occupation disabled.
  Guess Type is SAD.
  Energy threshold   = 1.00e-06
  Density threshold  = 1.00e-10
  Integral threshold = 0.00e+00

  ==> Primary Basis <==

  Basis Set: CC-PVDZ
    Blend: CC-PVDZ
    Number of shells: 60
    Number of basis function: 116
    Number of Cartesian functions: 120
    Spherical Harmonics?: true
    Max angular momentum: 2

  ==> Pre-Iterations <==

   -------------------------------------------------------
    Irrep   Nso     Nmo     Nalpha   Nbeta   Ndocc  Nsocc
   -------------------------------------------------------
     A        116     116       0       0       0       0
   -------------------------------------------------------
    Total     116     116      18      18      18       0
   -------------------------------------------------------

  ==> Integral Setup <==

  Using integral reordering PK algorithm.
  Sizing the integral batches needed.
  Building batch lookup table.
   Calculation information:
      Number of atoms:                  16
      Number of AO shells:              60
      Number of primitives:            148
      Number of atomic orbitals:       120
      Number of basis functions:       116

      Integral cutoff                 1.00e-12
      Number of threads:                 1

	Batch   1 pq = [       0,    6786] index = [             0,23028291] size =     23028291
  Task number: 3
  Buffer size: 11059200
  Buffer per thread: 2
  We computed 1396082 shell quartets total.
  Whereas there are 1675365 unique shell quartets.

  ==> DiskJK: Disk-Based J/K Matrices <==

    J tasked:                  Yes
    K tasked:                  Yes
    wK tasked:                  No
    Memory [MiB]:              375
    Schwarz Cutoff:          1E-12

    OpenMP threads:              1

  Minimum eigenvalue in the overlap matrix is 6.7451215353E-03.
  Using Symmetric Orthogonalization.

  SCF Guess: Superposition of Atomic Densities via on-the-fly atomic UHF.

  ==> Iterations <==

                        Total Energy        Delta E     RMS |[F,P]|

   @RHF iter SAD:  -157.31049818300681   -1.57310e+02   0.00000e+00
   @RHF iter   1:  -158.30905021973820   -9.98552e-01   4.17452e-03 DIIS
   @RHF iter   2:  -158.44062027858212   -1.31570e-01   1.77183e-03 DIIS
   @RHF iter   3:  -158.46346291053555   -2.28426e-02   3.47396e-04 DIIS
   @RHF iter   4:  -158.46527276325895   -1.80985e-03   3.86482e-05 DIIS
   @RHF iter   5:  -158.46529622285479   -2.34596e-05   6.71647e-06 DIIS
   @RHF iter   6:  -158.46529686511712   -6.42262e-07   1.35694e-06 DIIS
   @RHF iter   7:  -158.46529688261086   -1.74937e-08   3.33943e-07 DIIS
   @RHF iter   8:  -158.46529688373670   -1.12584e-09   4.78640e-08 DIIS
   @RHF iter   9:  -158.46529688377433   -3.76303e-11   1.19339e-08 DIIS
   @RHF iter  10:  -158.46529688377646   -2.13163e-12   3.49755e-09 DIIS
   @RHF iter  11:  -158.46529688377646    0.00000e+00   9.72512e-10 DIIS
   @RHF iter  12:  -158.46529688377697   -5.11591e-13   1.99892e-10 DIIS
   @RHF iter  13:  -158.46529688377686    1.13687e-13   3.24509e-11 DIIS
  Energy and wave function converged.

  ==> Post-Iterations <==

    Orbital Energies [Eh]
    ---------------------

    Doubly Occupied:

       1A    -11.221461     2A    -11.220430     3A    -11.217731
       4A    -11.214680     5A     -1.017703     6A     -1.012494
       7A     -0.841617     8A     -0.835068     9A     -0.600345
      10A     -0.595860    11A     -0.594906    12A     -0.593795
      13A     -0.502198    14A     -0.497260    15A     -0.492524
      16A     -0.488359    17A     -0.482369    18A     -0.478689

    Virtual:

      19A      0.173187    20A      0.194111    21A      0.226702
      22A      0.232163    23A      0.244893    24A      0.254504
      25A      0.261842    26A      0.277330    27A      0.284869
      28A      0.290151    29A      0.313195    30A      0.341285
      31A      0.390600    32A      0.412683    33A      0.577167
      34A      0.587401    35A      0.594881    36A      0.603998
      37A      0.606413    38A      0.662929    39A      0.677721
      40A      0.696999    41A      0.700999    42A      0.745399
      43A      0.841979    44A      0.867219    45A      0.882118
      46A      0.887639    47A      0.891589    48A      0.892836
      49A      0.904810    50A      0.908433    51A      0.914537
      52A      0.926725    53A      0.933608    54A      0.946411
      55A      0.974287    56A      0.996906    57A      1.117343
      58A      1.121410    59A      1.126997    60A      1.144204
      61A      1.228633    62A      1.282052    63A      1.451132
      64A      1.474519    65A      1.477918    66A      1.486207
      67A      1.569999    68A      1.592403    69A      1.682771
      70A      1.686378    71A      1.693505    72A      1.697774
      73A      1.848392    74A      1.853099    75A      1.859783
      76A      1.881529    77A      1.895604    78A      1.896984
      79A      1.927527    80A      1.929384    81A      1.932202
      82A      1.944774    83A      1.947526    84A      1.954259
      85A      1.958497    86A      1.965981    87A      1.979880
      88A      2.044298    89A      2.099580    90A      2.114658
      91A      2.127869    92A      2.133066    93A      2.286172
      94A      2.304520    95A      2.313115    96A      2.338061
      97A      2.434901    98A      2.444176    99A      2.458439
     100A      2.464703   101A      2.557641   102A      2.568758
     103A      2.574506   104A      2.588856   105A      2.754790
     106A      2.764828   107A      2.785616   108A      2.793529
     109A      2.838518   110A      2.849524   111A      2.852923
     112A      2.866616   113A      2.935619   114A      2.940976
     115A      2.957393   116A      2.971461

    Final Occupation by Irrep:
              A
    DOCC [    18 ]

  @RHF Final Energy:  -158.46529688377686

   => Energetics <=

    Nuclear Repulsion Energy =            120.8714542207605831
    One-Electron Energy =                -450.8585193674462062
    Two-Electron Energy =                 171.5217682629087506
    Total Energy =                       -158.4652968837768583

Computation Completed

Properties will be evaluated at   0.000000,   0.000000,   0.000000 [a0]

Properties computed using the SCF density matrix

  Nuclear Dipole Moment: [e a0]
     X:     0.0301      Y:     0.0722      Z:     0.0636

  Electronic Dipole Moment: [e a0]
     X:    -0.0328      Y:    -0.0598      Z:    -0.0676

  Dipole Moment: [e a0]
     X:    -0.0027      Y:     0.0124      Z:    -0.0040     Total:     0.0133

  Dipole Moment: [D]
     X:    -0.0069      Y:     0.0314      Z:    -0.0102     Total:     0.0337

*** tstop() called on ds3 at Sun Apr 26 21:05:55 2020
Module time:
	user time   =       7.71 seconds =       0.13 minutes
	system time =       3.06 seconds =       0.05 minutes
	total time  =         10 seconds =       0.17 minutes
Total time:
	user time   =       7.71 seconds =       0.13 minutes
	system time =       3.06 seconds =       0.05 minutes
	total time  =         10 seconds =       0.17 minutes
                                     G D M A

                                 by Anthony Stone

                           version 2.2.06, 22 June 2011

               Distributed Multipoles from Gaussian wavefunctions

Starting at 21:5:55 on 26 Apr 2020

Using SCF density matrix from file ./SSI/SSI-089THR-098LEU-1-dimer.test.10959.fchk

                         Distributed Multipole Analysis

Standard DMA

Positions and radii in angstrom
Multipole moments in atomic units, ea_0^k for rank k

C          x = -0.244175  y =  1.080384  z = -1.166924 angstrom
           Maximum rank =  0   Radius =  0.650 angstrom
                   Q00  =  -0.242954

C          x = -0.755175  y =  2.179384  z = -2.142924 angstrom
           Maximum rank =  0   Radius =  0.650 angstrom
                   Q00  =  -0.246987

H          x =  0.119825  y =  0.207384  z = -1.705924 angstrom
           Maximum rank =  0   Radius =  0.325 angstrom
                   Q00  =   0.083582

H          x =  0.568825  y =  1.512384  z = -0.589924 angstrom
           Maximum rank =  0   Radius =  0.325 angstrom
                   Q00  =   0.084311

H          x = -1.052175  y =  0.785384  z = -0.495924 angstrom
           Maximum rank =  0   Radius =  0.325 angstrom
                   Q00  =   0.079143

H          x = -1.236175  y =  2.957384  z = -1.550924 angstrom
           Maximum rank =  0   Radius =  0.325 angstrom
                   Q00  =   0.080407

H          x = -1.470285  y =  1.822184  z = -2.898594 angstrom
           Maximum rank =  0   Radius =  0.325 angstrom
                   Q00  =   0.084544

H          x =  0.099955  y =  2.645954  z = -2.653864 angstrom
           Maximum rank =  0   Radius =  0.325 angstrom
                   Q00  =   0.079270

C          x =  0.140825  y = -1.996616  z =  1.085076 angstrom
           Maximum rank =  0   Radius =  0.650 angstrom
                   Q00  =  -0.236824

C          x =  0.855825  y = -1.269616  z =  2.219076 angstrom
           Maximum rank =  0   Radius =  0.650 angstrom
                   Q00  =  -0.237190

H          x =  0.849825  y = -2.596616  z =  0.512076 angstrom
           Maximum rank =  0   Radius =  0.325 angstrom
                   Q00  =   0.078503

H          x = -0.608175  y = -2.667616  z =  1.503076 angstrom
           Maximum rank =  0   Radius =  0.325 angstrom
                   Q00  =   0.076222

H          x = -0.365175  y = -1.285616  z =  0.433076 angstrom
           Maximum rank =  0   Radius =  0.325 angstrom
                   Q00  =   0.084422

H          x =  1.494825  y = -1.988616  z =  2.730076 angstrom
           Maximum rank =  0   Radius =  0.325 angstrom
                   Q00  =   0.077002

H          x =  1.477175  y = -0.452806  z =  1.823156 angstrom
           Maximum rank =  0   Radius =  0.325 angstrom
                   Q00  =   0.078170

H          x =  0.153685  y = -0.862436  z =  2.961506 angstrom
           Maximum rank =  0   Radius =  0.325 angstrom
                   Q00  =   0.078379

Total multipoles referred to origin at
           x =   0.000000,  y =    0.000000,  z =    0.000000 angstrom
                   Q00  =  -0.000000

Finished at 21:5:55 on 26 Apr 2020

  DMA results are available in the Python driver through the
	  variable('DMA DISTRIBUTED MULTIPOLES')
  and
	  variable('DMA TOTAL MULTIPOLES')
  commands.

    Psi4 stopped on: Sunday, 26 April 2020 09:05PM
    Psi4 wall time for execution: 0:00:10.78

*** Psi4 exiting successfully. Buy a developer a beer!
