                               Psi4 1.3.2 release

  ==> Input File <==

--------------------------------------------------------------------------
import numpy as np
set {scf_type pk
basis cc-pvdz
d_convergence 10
gdma_switch   0
gdma_limit    0
gdma_origin   [ 0.0,  0.0,  0.0 ]
}
molecule test {
    units Angstrom
    1 1
    --
    1 1
    C                1.300563125594203    -0.347554841302007     0.415999563550733
    C                1.191563125594203    -1.050554841302007     1.744999563550732
    C               -0.354436874405797     1.467445158697993     0.745999563550733
    N                0.068563125594203     0.379445158697993     0.106999563550733
    N                0.337563125594203     1.991445158697993     1.747999563550733
    N               -1.483436874405797     2.035445158697993     0.375999563550733
    H                2.147563125594203     0.341445158697993     0.435999563550733
    H                1.497563125594203    -1.086554841302007    -0.362000436449267
    H                0.980563125594203    -0.349554841302007     2.549999563550732
    H                2.161563125594203    -1.501554841302007     1.945999563550733
    H               -0.488436874405797     0.014445158697993    -0.656000436449267
    H                1.223563125594203     1.595445158697993     2.004999563550732
    H                0.003563125594203     2.817445158697993     2.219999563550732
    H               -2.007436874405797     1.664445158697993    -0.400000436449267
    H               -1.815436874405797     2.860445158697993     0.848999563550733
    H                0.423574425594203    -1.838014841302007     1.734899563550732
    C               -0.300436874405797    -2.287554841302007    -3.074000436449267
    O               -0.576436874405797    -1.870554841302007    -1.746000436449267
    H               -1.208436874405797    -2.509554841302007    -1.361000436449267
    H                0.294563125594203    -1.514554841302007    -3.562000436449267
    H                0.272430325594203    -3.226594841302007    -3.069710436449268
    H               -1.244047274405797    -2.391434841302007    -3.629706436449267

}
e, wfn = energy('scf', return_wfn=True)
gdma(wfn)
dmavals = variable('DMA DISTRIBUTED MULTIPOLES')
charges = np.array(dmavals)
print(charges)
np.save('SSI-068ARG-072THR-1-dimer.npy', np.array(charges))--------------------------------------------------------------------------

*** tstart() called on ds3
*** at Mon Apr 27 06:48:07 2020

   => Loading Basis Set <=

    Name: CC-PVDZ
    Role: ORBITAL
    Keyword: BASIS
    atoms 1-3, 17     entry C          line   138 file /theoryfs2/ds/metcalf/miniconda2/envs/tf2gpu/share/psi4/basis/cc-pvdz.gbs
    atoms 4-6         entry N          line   168 file /theoryfs2/ds/metcalf/miniconda2/envs/tf2gpu/share/psi4/basis/cc-pvdz.gbs
    atoms 7-16, 19-22 entry H          line    22 file /theoryfs2/ds/metcalf/miniconda2/envs/tf2gpu/share/psi4/basis/cc-pvdz.gbs
    atoms 18          entry O          line   198 file /theoryfs2/ds/metcalf/miniconda2/envs/tf2gpu/share/psi4/basis/cc-pvdz.gbs

         ---------------------------------------------------------
                                   SCF
               by Justin Turney, Rob Parrish, Andy Simmonett
                          and Daniel G. A. Smith
                              RHF Reference
                        1 Threads,    500 MiB Core
         ---------------------------------------------------------

  ==> Geometry <==

    Molecular point group: c1
    Full point group: C1

    Geometry (in Angstrom), charge = 1, multiplicity = 1:

       Center              X                  Y                   Z               Mass
    ------------   -----------------  -----------------  -----------------  -----------------
         C            1.300563125594    -0.347554841302     0.415999563551    12.000000000000
         C            1.191563125594    -1.050554841302     1.744999563551    12.000000000000
         C           -0.354436874406     1.467445158698     0.745999563551    12.000000000000
         N            0.068563125594     0.379445158698     0.106999563551    14.003074004430
         N            0.337563125594     1.991445158698     1.747999563551    14.003074004430
         N           -1.483436874406     2.035445158698     0.375999563551    14.003074004430
         H            2.147563125594     0.341445158698     0.435999563551     1.007825032230
         H            1.497563125594    -1.086554841302    -0.362000436449     1.007825032230
         H            0.980563125594    -0.349554841302     2.549999563551     1.007825032230
         H            2.161563125594    -1.501554841302     1.945999563551     1.007825032230
         H           -0.488436874406     0.014445158698    -0.656000436449     1.007825032230
         H            1.223563125594     1.595445158698     2.004999563551     1.007825032230
         H            0.003563125594     2.817445158698     2.219999563551     1.007825032230
         H           -2.007436874406     1.664445158698    -0.400000436449     1.007825032230
         H           -1.815436874406     2.860445158698     0.848999563551     1.007825032230
         H            0.423574425594    -1.838014841302     1.734899563551     1.007825032230
         C           -0.300436874406    -2.287554841302    -3.074000436449    12.000000000000
         O           -0.576436874406    -1.870554841302    -1.746000436449    15.994914619570
         H           -1.208436874406    -2.509554841302    -1.361000436449     1.007825032230
         H            0.294563125594    -1.514554841302    -3.562000436449     1.007825032230
         H            0.272430325594    -3.226594841302    -3.069710436449     1.007825032230
         H           -1.244047274406    -2.391434841302    -3.629706436449     1.007825032230

  Running in c1 symmetry.

  Rotational constants: A =      0.08242  B =      0.02989  C =      0.02336 [cm^-1]
  Rotational constants: A =   2470.98826  B =    896.01024  C =    700.18396 [MHz]
  Nuclear repulsion =  405.859940347619897

  Charge       = 1
  Multiplicity = 1
  Electrons    = 66
  Nalpha       = 33
  Nbeta        = 33

  ==> Algorithm <==

  SCF Algorithm Type is PK.
  DIIS enabled.
  MOM disabled.
  Fractional occupation disabled.
  Guess Type is SAD.
  Energy threshold   = 1.00e-06
  Density threshold  = 1.00e-10
  Integral threshold = 0.00e+00

  ==> Primary Basis <==

  Basis Set: CC-PVDZ
    Blend: CC-PVDZ
    Number of shells: 90
    Number of basis function: 182
    Number of Cartesian functions: 190
    Spherical Harmonics?: true
    Max angular momentum: 2

  ==> Pre-Iterations <==

   -------------------------------------------------------
    Irrep   Nso     Nmo     Nalpha   Nbeta   Ndocc  Nsocc
   -------------------------------------------------------
     A        182     182       0       0       0       0
   -------------------------------------------------------
    Total     182     182      33      33      33       0
   -------------------------------------------------------

  ==> Integral Setup <==

  Using integral reordering PK algorithm.
  Sizing the integral batches needed.
  Building batch lookup table.
   Calculation information:
      Number of atoms:                  22
      Number of AO shells:              90
      Number of primitives:            246
      Number of atomic orbitals:       190
      Number of basis functions:       182

      Integral cutoff                 1.00e-12
      Number of threads:                 1

	Batch   1 pq = [       0,    9405] index = [             0,44231715] size =     44231715
	Batch   2 pq = [    9405,   13301] index = [      44231715,88464951] size =     44233236
	Batch   3 pq = [   13301,   16290] index = [      88464951,132690195] size =     44225244
	Batch   4 pq = [   16290,   16653] index = [     132690195,138669531] size =      5979336
  Task number: 13
  Buffer size: 11059200
  Buffer per thread: 2
  We computed 7172245 shell quartets total.
  Whereas there are 8386560 unique shell quartets.

  ==> DiskJK: Disk-Based J/K Matrices <==

    J tasked:                  Yes
    K tasked:                  Yes
    wK tasked:                  No
    Memory [MiB]:              375
    Schwarz Cutoff:          1E-12

    OpenMP threads:              1

  Minimum eigenvalue in the overlap matrix is 3.8132827057E-03.
  Using Symmetric Orthogonalization.

  SCF Guess: Superposition of Atomic Densities via on-the-fly atomic UHF.

  ==> Iterations <==

                        Total Energy        Delta E     RMS |[F,P]|

   @RHF iter SAD:  -396.91086885951268   -3.96911e+02   0.00000e+00
   @RHF iter   1:  -397.47580015298894   -5.64931e-01   3.37299e-03 DIIS
   @RHF iter   2:  -397.65668939260445   -1.80889e-01   1.43665e-03 DIIS
   @RHF iter   3:  -397.68604083770958   -2.93514e-02   3.50218e-04 DIIS
   @RHF iter   4:  -397.68878058224533   -2.73974e-03   9.31415e-05 DIIS
   @RHF iter   5:  -397.68893975272067   -1.59170e-04   2.27276e-05 DIIS
   @RHF iter   6:  -397.68895496419987   -1.52115e-05   6.22960e-06 DIIS
   @RHF iter   7:  -397.68895617383214   -1.20963e-06   1.77359e-06 DIIS
   @RHF iter   8:  -397.68895628710186   -1.13270e-07   5.88294e-07 DIIS
   @RHF iter   9:  -397.68895629682993   -9.72807e-09   1.07748e-07 DIIS
   @RHF iter  10:  -397.68895629732049   -4.90559e-10   4.35551e-08 DIIS
   @RHF iter  11:  -397.68895629738103   -6.05382e-11   1.29639e-08 DIIS
   @RHF iter  12:  -397.68895629739052   -9.49285e-12   5.83282e-09 DIIS
   @RHF iter  13:  -397.68895629738984    6.82121e-13   1.53981e-09 DIIS
   @RHF iter  14:  -397.68895629739154   -1.70530e-12   4.72128e-10 DIIS
   @RHF iter  15:  -397.68895629739058    9.66338e-13   1.25733e-10 DIIS
   @RHF iter  16:  -397.68895629739103   -4.54747e-13   4.46732e-11 DIIS
  Energy and wave function converged.

  ==> Post-Iterations <==

    Orbital Energies [Eh]
    ---------------------

    Doubly Occupied:

       1A    -20.688096     2A    -15.775056     3A    -15.774102
       4A    -15.757413     5A    -11.573576     6A    -11.415587
       7A    -11.389365     8A    -11.355692     9A     -1.527579
      10A     -1.481669    11A     -1.383444    12A     -1.378283
      13A     -1.174472    14A     -1.049052    15A     -1.035003
      16A     -0.995077    17A     -0.959510    18A     -0.917810
      19A     -0.846430    20A     -0.845321    21A     -0.807742
      22A     -0.803207    23A     -0.780156    24A     -0.750395
      25A     -0.736332    26A     -0.714030    27A     -0.687374
      28A     -0.661354    29A     -0.638848    30A     -0.617377
      31A     -0.602784    32A     -0.569985    33A     -0.558424

    Virtual:

      34A      0.005440    35A      0.033243    36A      0.044405
      37A      0.051205    38A      0.068039    39A      0.095032
      40A      0.097080    41A      0.113372    42A      0.118629
      43A      0.143898    44A      0.150990    45A      0.166107
      46A      0.168845    47A      0.183353    48A      0.190907
      49A      0.240035    50A      0.244570    51A      0.254791
      52A      0.304851    53A      0.346954    54A      0.361551
      55A      0.452384    56A      0.475548    57A      0.481936
      58A      0.507084    59A      0.515120    60A      0.532103
      61A      0.546098    62A      0.562002    63A      0.564880
      64A      0.569288    65A      0.587017    66A      0.603147
      67A      0.611972    68A      0.683378    69A      0.696790
      70A      0.725608    71A      0.732245    72A      0.738727
      73A      0.755055    74A      0.756107    75A      0.771301
      76A      0.782262    77A      0.787559    78A      0.790419
      79A      0.807696    80A      0.820396    81A      0.850136
      82A      0.865167    83A      0.885806    84A      0.899354
      85A      0.941035    86A      0.952691    87A      0.959554
      88A      0.990654    89A      1.026980    90A      1.038066
      91A      1.066609    92A      1.073908    93A      1.121118
      94A      1.129371    95A      1.144905    96A      1.167886
      97A      1.205923    98A      1.217535    99A      1.241120
     100A      1.250278   101A      1.299222   102A      1.321453
     103A      1.361909   104A      1.403604   105A      1.416635
     106A      1.458555   107A      1.500124   108A      1.510058
     109A      1.535444   110A      1.553354   111A      1.558793
     112A      1.566806   113A      1.626667   114A      1.652134
     115A      1.677977   116A      1.702182   117A      1.706049
     118A      1.730114   119A      1.730390   120A      1.739408
     121A      1.751971   122A      1.771972   123A      1.787800
     124A      1.794713   125A      1.811371   126A      1.820612
     127A      1.827125   128A      1.846709   129A      1.852590
     130A      1.864355   131A      1.878020   132A      1.896813
     133A      1.916683   134A      1.955346   135A      1.961691
     136A      2.016183   137A      2.031639   138A      2.069032
     139A      2.086761   140A      2.133280   141A      2.155866
     142A      2.156426   143A      2.209767   144A      2.227327
     145A      2.258143   146A      2.269552   147A      2.272509
     148A      2.275856   149A      2.318445   150A      2.334855
     151A      2.348041   152A      2.360344   153A      2.379934
     154A      2.394437   155A      2.438129   156A      2.457050
     157A      2.495718   158A      2.585802   159A      2.626883
     160A      2.642449   161A      2.644986   162A      2.648886
     163A      2.655512   164A      2.660091   165A      2.709636
     166A      2.769579   167A      2.784253   168A      2.798047
     169A      2.838158   170A      2.874167   171A      2.906363
     172A      2.994893   173A      3.086448   174A      3.115732
     175A      3.155328   176A      3.165239   177A      3.248131
     178A      3.332475   179A      3.451240   180A      3.603376
     181A      3.664445   182A      3.938087

    Final Occupation by Irrep:
              A
    DOCC [    33 ]

  @RHF Final Energy:  -397.68895629739103

   => Energetics <=

    Nuclear Repulsion Energy =            405.8599403476198972
    One-Electron Energy =               -1334.5967045587019584
    Two-Electron Energy =                 531.0478079136910310
    Total Energy =                       -397.6889562973910870

Computation Completed

Properties will be evaluated at   0.000000,   0.000000,   0.000000 [a0]

Properties computed using the SCF density matrix

  Nuclear Dipole Moment: [e a0]
     X:     2.1014      Y:    -4.8255      Z:    -1.2331

  Electronic Dipole Moment: [e a0]
     X:    -2.8365      Y:     6.3173      Z:     1.9123

  Dipole Moment: [e a0]
     X:    -0.7351      Y:     1.4918      Z:     0.6792     Total:     1.7964

  Dipole Moment: [D]
     X:    -1.8684      Y:     3.7917      Z:     1.7263     Total:     4.5660

*** tstop() called on ds3 at Mon Apr 27 06:49:13 2020
Module time:
	user time   =      47.87 seconds =       0.80 minutes
	system time =      20.15 seconds =       0.34 minutes
	total time  =         66 seconds =       1.10 minutes
Total time:
	user time   =      47.87 seconds =       0.80 minutes
	system time =      20.15 seconds =       0.34 minutes
	total time  =         66 seconds =       1.10 minutes
                                     G D M A

                                 by Anthony Stone

                           version 2.2.06, 22 June 2011

               Distributed Multipoles from Gaussian wavefunctions

Starting at 6:49:13 on 27 Apr 2020

Using SCF density matrix from file ./SSI/SSI-068ARG-072THR-1-dimer.test.16429.fchk

                         Distributed Multipole Analysis

Standard DMA

Positions and radii in angstrom
Multipole moments in atomic units, ea_0^k for rank k

C          x =  1.300563  y = -0.347555  z =  0.416000 angstrom
           Maximum rank =  0   Radius =  0.650 angstrom
                   Q00  =   0.018279

C          x =  1.191563  y = -1.050555  z =  1.745000 angstrom
           Maximum rank =  0   Radius =  0.650 angstrom
                   Q00  =  -0.248455

C          x = -0.354437  y =  1.467445  z =  0.746000 angstrom
           Maximum rank =  0   Radius =  0.650 angstrom
                   Q00  =   1.071844

N          x =  0.068563  y =  0.379445  z =  0.107000 angstrom
           Maximum rank =  0   Radius =  0.650 angstrom
                   Q00  =  -0.508101

N          x =  0.337563  y =  1.991445  z =  1.748000 angstrom
           Maximum rank =  0   Radius =  0.650 angstrom
                   Q00  =  -0.580745

N          x = -1.483437  y =  2.035445  z =  0.376000 angstrom
           Maximum rank =  0   Radius =  0.650 angstrom
                   Q00  =  -0.590745

H          x =  2.147563  y =  0.341445  z =  0.436000 angstrom
           Maximum rank =  0   Radius =  0.325 angstrom
                   Q00  =   0.061277

H          x =  1.497563  y = -1.086555  z = -0.362000 angstrom
           Maximum rank =  0   Radius =  0.325 angstrom
                   Q00  =   0.151656

H          x =  0.980563  y = -0.349555  z =  2.550000 angstrom
           Maximum rank =  0   Radius =  0.325 angstrom
                   Q00  =   0.070533

H          x =  2.161563  y = -1.501555  z =  1.946000 angstrom
           Maximum rank =  0   Radius =  0.325 angstrom
                   Q00  =   0.116647

H          x = -0.488437  y =  0.014445  z = -0.656000 angstrom
           Maximum rank =  0   Radius =  0.325 angstrom
                   Q00  =   0.248688

H          x =  1.223563  y =  1.595445  z =  2.005000 angstrom
           Maximum rank =  0   Radius =  0.325 angstrom
                   Q00  =   0.271796

H          x =  0.003563  y =  2.817445  z =  2.220000 angstrom
           Maximum rank =  0   Radius =  0.325 angstrom
                   Q00  =   0.262576

H          x = -2.007437  y =  1.664445  z = -0.400000 angstrom
           Maximum rank =  0   Radius =  0.325 angstrom
                   Q00  =   0.265541

H          x = -1.815437  y =  2.860445  z =  0.849000 angstrom
           Maximum rank =  0   Radius =  0.325 angstrom
                   Q00  =   0.259287

H          x =  0.423574  y = -1.838015  z =  1.734900 angstrom
           Maximum rank =  0   Radius =  0.325 angstrom
                   Q00  =   0.110093

C          x = -0.300437  y = -2.287555  z = -3.074000 angstrom
           Maximum rank =  0   Radius =  0.650 angstrom
                   Q00  =  -0.069576

O          x = -0.576437  y = -1.870555  z = -1.746000 angstrom
           Maximum rank =  0   Radius =  0.650 angstrom
                   Q00  =  -0.633016

H          x = -1.208437  y = -2.509555  z = -1.361000 angstrom
           Maximum rank =  0   Radius =  0.325 angstrom
                   Q00  =   0.407549

H          x =  0.294563  y = -1.514555  z = -3.562000 angstrom
           Maximum rank =  0   Radius =  0.325 angstrom
                   Q00  =   0.121178

H          x =  0.272430  y = -3.226595  z = -3.069710 angstrom
           Maximum rank =  0   Radius =  0.325 angstrom
                   Q00  =   0.099312

H          x = -1.244047  y = -2.391435  z = -3.629706 angstrom
           Maximum rank =  0   Radius =  0.325 angstrom
                   Q00  =   0.094382

Total multipoles referred to origin at
           x =   0.000000,  y =    0.000000,  z =    0.000000 angstrom
                   Q00  =   1.000000

Finished at 6:49:13 on 27 Apr 2020

  DMA results are available in the Python driver through the
	  variable('DMA DISTRIBUTED MULTIPOLES')
  and
	  variable('DMA TOTAL MULTIPOLES')
  commands.

    Psi4 stopped on: Monday, 27 April 2020 06:49AM
    Psi4 wall time for execution: 0:01:06.29

*** Psi4 exiting successfully. Buy a developer a beer!
