                               Psi4 1.3.2 release

  ==> Input File <==

--------------------------------------------------------------------------
import numpy as np
set {scf_type pk
basis cc-pvdz
d_convergence 10
gdma_switch   0
gdma_limit    0
gdma_origin   [ 0.0,  0.0,  0.0 ]
}
molecule test {
    units Angstrom
    0 1
    --
    0 1
    C               -0.892943342059458     1.443056737125104     0.487276253548129
    C               -0.346943342059458     2.729056737125104     1.111276253548129
    C               -2.203943342059458     1.664056737125104    -0.275723746451871
    H               -0.154943342059458     1.087056737125104    -0.228723746451871
    H               -1.038943342059458     0.680056737125104     1.250276253548129
    H               -1.137943342059458     3.214056737125104     1.684276253548129
    H               -2.079943342059458     2.500056737125103    -0.962723746451871
    H               -0.003213342059458     3.407459737125103     0.316533253548129
    H                0.458406657940542     2.536175737125104     1.835299253548129
    H               -2.458693342059458     0.787226737125104    -0.889140746451871
    H               -3.027383342059458     1.916760737125104     0.408443253548129
    C                0.295056657940542    -2.589943262874896     0.406276253548129
    C                0.855056657940542    -1.426943262874896    -0.400723746451871
    O                0.517056657940542    -1.238943262874896    -1.566723746451871
    N                1.718056657940542    -0.634943262874896     0.214276253548129
    H               -0.680943342059458    -2.287943262874896     0.788276253548129
    H                0.950056657940542    -2.790943262874896     1.256276253548129
    H                2.119056657940542     0.127056737125104    -0.317723746451871
    H                2.103056657940542    -0.850943262874896     1.127276253548129
    H                0.184976657940542    -3.502923262874897    -0.197339746451871

}
e, wfn = energy('scf', return_wfn=True)
gdma(wfn)
dmavals = variable('DMA DISTRIBUTED MULTIPOLES')
charges = np.array(dmavals)
print(charges)
np.save('SSI-010LEU-091ASN-1-dimer.npy', np.array(charges))--------------------------------------------------------------------------

*** tstart() called on ds3
*** at Mon Apr 27 12:48:43 2020

   => Loading Basis Set <=

    Name: CC-PVDZ
    Role: ORBITAL
    Keyword: BASIS
    atoms 1-3, 12-13  entry C          line   138 file /theoryfs2/ds/metcalf/miniconda2/envs/tf2gpu/share/psi4/basis/cc-pvdz.gbs
    atoms 4-11, 16-20 entry H          line    22 file /theoryfs2/ds/metcalf/miniconda2/envs/tf2gpu/share/psi4/basis/cc-pvdz.gbs
    atoms 14          entry O          line   198 file /theoryfs2/ds/metcalf/miniconda2/envs/tf2gpu/share/psi4/basis/cc-pvdz.gbs
    atoms 15          entry N          line   168 file /theoryfs2/ds/metcalf/miniconda2/envs/tf2gpu/share/psi4/basis/cc-pvdz.gbs

         ---------------------------------------------------------
                                   SCF
               by Justin Turney, Rob Parrish, Andy Simmonett
                          and Daniel G. A. Smith
                              RHF Reference
                        1 Threads,    500 MiB Core
         ---------------------------------------------------------

  ==> Geometry <==

    Molecular point group: c1
    Full point group: C1

    Geometry (in Angstrom), charge = 0, multiplicity = 1:

       Center              X                  Y                   Z               Mass
    ------------   -----------------  -----------------  -----------------  -----------------
         C           -0.892943342059     1.443056737125     0.487276253548    12.000000000000
         C           -0.346943342059     2.729056737125     1.111276253548    12.000000000000
         C           -2.203943342059     1.664056737125    -0.275723746452    12.000000000000
         H           -0.154943342059     1.087056737125    -0.228723746452     1.007825032230
         H           -1.038943342059     0.680056737125     1.250276253548     1.007825032230
         H           -1.137943342059     3.214056737125     1.684276253548     1.007825032230
         H           -2.079943342059     2.500056737125    -0.962723746452     1.007825032230
         H           -0.003213342059     3.407459737125     0.316533253548     1.007825032230
         H            0.458406657941     2.536175737125     1.835299253548     1.007825032230
         H           -2.458693342059     0.787226737125    -0.889140746452     1.007825032230
         H           -3.027383342059     1.916760737125     0.408443253548     1.007825032230
         C            0.295056657941    -2.589943262875     0.406276253548    12.000000000000
         C            0.855056657941    -1.426943262875    -0.400723746452    12.000000000000
         O            0.517056657941    -1.238943262875    -1.566723746452    15.994914619570
         N            1.718056657941    -0.634943262875     0.214276253548    14.003074004430
         H           -0.680943342059    -2.287943262875     0.788276253548     1.007825032230
         H            0.950056657941    -2.790943262875     1.256276253548     1.007825032230
         H            2.119056657941     0.127056737125    -0.317723746452     1.007825032230
         H            2.103056657941    -0.850943262875     1.127276253548     1.007825032230
         H            0.184976657941    -3.502923262875    -0.197339746452     1.007825032230

  Running in c1 symmetry.

  Rotational constants: A =      0.11355  B =      0.03474  C =      0.03165 [cm^-1]
  Rotational constants: A =   3404.20374  B =   1041.54046  C =    948.72168 [MHz]
  Nuclear repulsion =  307.245642380395282

  Charge       = 0
  Multiplicity = 1
  Electrons    = 58
  Nalpha       = 29
  Nbeta        = 29

  ==> Algorithm <==

  SCF Algorithm Type is PK.
  DIIS enabled.
  MOM disabled.
  Fractional occupation disabled.
  Guess Type is SAD.
  Energy threshold   = 1.00e-06
  Density threshold  = 1.00e-10
  Integral threshold = 0.00e+00

  ==> Primary Basis <==

  Basis Set: CC-PVDZ
    Blend: CC-PVDZ
    Number of shells: 81
    Number of basis function: 163
    Number of Cartesian functions: 170
    Spherical Harmonics?: true
    Max angular momentum: 2

  ==> Pre-Iterations <==

   -------------------------------------------------------
    Irrep   Nso     Nmo     Nalpha   Nbeta   Ndocc  Nsocc
   -------------------------------------------------------
     A        163     163       0       0       0       0
   -------------------------------------------------------
    Total     163     163      29      29      29       0
   -------------------------------------------------------

  ==> Integral Setup <==

  Using integral reordering PK algorithm.
  Sizing the integral batches needed.
  Building batch lookup table.
   Calculation information:
      Number of atoms:                  20
      Number of AO shells:              81
      Number of primitives:            219
      Number of atomic orbitals:       170
      Number of basis functions:       163

      Integral cutoff                 1.00e-12
      Number of threads:                 1

	Batch   1 pq = [       0,    9405] index = [             0,44231715] size =     44231715
	Batch   2 pq = [    9405,   13366] index = [      44231715,89331661] size =     45099946
  Task number: 9
  Buffer size: 11059200
  Buffer per thread: 2
  We computed 5127666 shell quartets total.
  Whereas there are 5516181 unique shell quartets.

  ==> DiskJK: Disk-Based J/K Matrices <==

    J tasked:                  Yes
    K tasked:                  Yes
    wK tasked:                  No
    Memory [MiB]:              375
    Schwarz Cutoff:          1E-12

    OpenMP threads:              1

  Minimum eigenvalue in the overlap matrix is 4.3733252011E-03.
  Using Symmetric Orthogonalization.

  SCF Guess: Superposition of Atomic Densities via on-the-fly atomic UHF.

  ==> Iterations <==

                        Total Energy        Delta E     RMS |[F,P]|

   @RHF iter SAD:  -324.93952917974570   -3.24940e+02   0.00000e+00
   @RHF iter   1:  -325.99980745728635   -1.06028e+00   4.15097e-03 DIIS
   @RHF iter   2:  -326.20143120314970   -2.01624e-01   2.28944e-03 DIIS
   @RHF iter   3:  -326.25629000132602   -5.48588e-02   4.88814e-04 DIIS
   @RHF iter   4:  -326.26009032254876   -3.80032e-03   2.01450e-04 DIIS
   @RHF iter   5:  -326.26075647053466   -6.66148e-04   3.10273e-05 DIIS
   @RHF iter   6:  -326.26078863658483   -3.21661e-05   1.36764e-05 DIIS
   @RHF iter   7:  -326.26079397289124   -5.33631e-06   5.32483e-06 DIIS
   @RHF iter   8:  -326.26079508293685   -1.11005e-06   1.84025e-06 DIIS
   @RHF iter   9:  -326.26079521946127   -1.36524e-07   4.93924e-07 DIIS
   @RHF iter  10:  -326.26079522624491   -6.78364e-09   1.60327e-07 DIIS
   @RHF iter  11:  -326.26079522708250   -8.37588e-10   3.79243e-08 DIIS
   @RHF iter  12:  -326.26079522712564   -4.31442e-11   9.24020e-09 DIIS
   @RHF iter  13:  -326.26079522713059   -4.94538e-12   2.23976e-09 DIIS
   @RHF iter  14:  -326.26079522712894    1.64846e-12   7.95294e-10 DIIS
   @RHF iter  15:  -326.26079522712735    1.59162e-12   2.53552e-10 DIIS
   @RHF iter  16:  -326.26079522713121   -3.86535e-12   8.97823e-11 DIIS
  Energy and wave function converged.

  ==> Post-Iterations <==

    Orbital Energies [Eh]
    ---------------------

    Doubly Occupied:

       1A    -20.503977     2A    -15.590863     3A    -11.348911
       4A    -11.244165     5A    -11.216447     6A    -11.213360
       7A    -11.209800     8A     -1.368988     9A     -1.217868
      10A     -1.047352    11A     -0.999430    12A     -0.918394
      13A     -0.802481    14A     -0.793378    15A     -0.726388
      16A     -0.654198    17A     -0.623262    18A     -0.613594
      19A     -0.587435    20A     -0.568786    21A     -0.559852
      22A     -0.539546    23A     -0.528264    24A     -0.525210
      25A     -0.468151    26A     -0.466558    27A     -0.457978
      28A     -0.410376    29A     -0.404080

    Virtual:

      30A      0.154383    31A      0.185277    32A      0.195135
      33A      0.208175    34A      0.223877    35A      0.234444
      36A      0.246412    37A      0.256104    38A      0.269398
      39A      0.273686    40A      0.292827    41A      0.297874
      42A      0.314776    43A      0.346281    44A      0.373509
      45A      0.384531    46A      0.429811    47A      0.480030
      48A      0.546150    49A      0.583001    50A      0.607808
      51A      0.612800    52A      0.613133    53A      0.623988
      54A      0.667347    55A      0.677612    56A      0.695396
      57A      0.719214    58A      0.746232    59A      0.784160
      60A      0.820547    61A      0.829406    62A      0.845198
      63A      0.856777    64A      0.866731    65A      0.877959
      66A      0.893458    67A      0.895892    68A      0.904876
      69A      0.914384    70A      0.915965    71A      0.922224
      72A      0.926555    73A      0.956199    74A      0.961633
      75A      0.977080    76A      0.985004    77A      1.015826
      78A      1.049805    79A      1.063162    80A      1.111351
      81A      1.122001    82A      1.130129    83A      1.202486
      84A      1.218408    85A      1.325642    86A      1.347150
      87A      1.379216    88A      1.395316    89A      1.420189
      90A      1.431631    91A      1.453361    92A      1.475696
      93A      1.491506    94A      1.502288    95A      1.572892
      96A      1.622402    97A      1.654076    98A      1.656534
      99A      1.674368   100A      1.694421   101A      1.717454
     102A      1.755727   103A      1.823835   104A      1.855631
     105A      1.863251   106A      1.874806   107A      1.878819
     108A      1.885526   109A      1.900420   110A      1.912205
     111A      1.927945   112A      1.936578   113A      1.945029
     114A      1.961865   115A      1.978361   116A      1.996788
     117A      1.999573   118A      2.006967   119A      2.016258
     120A      2.032218   121A      2.034800   122A      2.052750
     123A      2.086944   124A      2.143158   125A      2.165496
     126A      2.174398   127A      2.221383   128A      2.275111
     129A      2.284812   130A      2.296397   131A      2.330278
     132A      2.359755   133A      2.426432   134A      2.445392
     135A      2.477208   136A      2.499240   137A      2.533749
     138A      2.547132   139A      2.563390   140A      2.588833
     141A      2.618527   142A      2.634350   143A      2.658946
     144A      2.736403   145A      2.755636   146A      2.756969
     147A      2.760866   148A      2.784723   149A      2.801482
     150A      2.820523   151A      2.857304   152A      2.922829
     153A      2.966946   154A      2.978475   155A      2.999703
     156A      3.083436   157A      3.089142   158A      3.144149
     159A      3.255714   160A      3.496685   161A      3.534660
     162A      3.872072   163A      3.905578

    Final Occupation by Irrep:
              A
    DOCC [    29 ]

  @RHF Final Energy:  -326.26079522713121

   => Energetics <=

    Nuclear Repulsion Energy =            307.2456423803952816
    One-Electron Energy =               -1051.7946932525401280
    Two-Electron Energy =                 418.2882556450135780
    Total Energy =                       -326.2607952271312115

Computation Completed

Properties will be evaluated at   0.000000,   0.000000,   0.000000 [a0]

Properties computed using the SCF density matrix

  Nuclear Dipole Moment: [e a0]
     X:    -4.4709      Y:     6.3924      Z:     5.6832

  Electronic Dipole Moment: [e a0]
     X:     5.2223      Y:    -6.5262      Z:    -4.2341

  Dipole Moment: [e a0]
     X:     0.7514      Y:    -0.1338      Z:     1.4492     Total:     1.6379

  Dipole Moment: [D]
     X:     1.9099      Y:    -0.3400      Z:     3.6834     Total:     4.1631

*** tstop() called on ds3 at Mon Apr 27 12:49:37 2020
Module time:
	user time   =      39.06 seconds =       0.65 minutes
	system time =      16.64 seconds =       0.28 minutes
	total time  =         54 seconds =       0.90 minutes
Total time:
	user time   =      39.06 seconds =       0.65 minutes
	system time =      16.64 seconds =       0.28 minutes
	total time  =         54 seconds =       0.90 minutes
                                     G D M A

                                 by Anthony Stone

                           version 2.2.06, 22 June 2011

               Distributed Multipoles from Gaussian wavefunctions

Starting at 12:49:37 on 27 Apr 2020

Using SCF density matrix from file ./SSI/SSI-010LEU-091ASN-1-dimer.test.4169.fchk

                         Distributed Multipole Analysis

Standard DMA

Positions and radii in angstrom
Multipole moments in atomic units, ea_0^k for rank k

C          x = -0.892943  y =  1.443057  z =  0.487276 angstrom
           Maximum rank =  0   Radius =  0.650 angstrom
                   Q00  =  -0.090473

C          x = -0.346943  y =  2.729057  z =  1.111276 angstrom
           Maximum rank =  0   Radius =  0.650 angstrom
                   Q00  =  -0.237921

C          x = -2.203943  y =  1.664057  z = -0.275724 angstrom
           Maximum rank =  0   Radius =  0.650 angstrom
                   Q00  =  -0.236184

H          x = -0.154943  y =  1.087057  z = -0.228724 angstrom
           Maximum rank =  0   Radius =  0.325 angstrom
                   Q00  =   0.056526

H          x = -1.038943  y =  0.680057  z =  1.250276 angstrom
           Maximum rank =  0   Radius =  0.325 angstrom
                   Q00  =   0.035493

H          x = -1.137943  y =  3.214057  z =  1.684276 angstrom
           Maximum rank =  0   Radius =  0.325 angstrom
                   Q00  =   0.073051

H          x = -2.079943  y =  2.500057  z = -0.962724 angstrom
           Maximum rank =  0   Radius =  0.325 angstrom
                   Q00  =   0.075395

H          x = -0.003213  y =  3.407460  z =  0.316533 angstrom
           Maximum rank =  0   Radius =  0.325 angstrom
                   Q00  =   0.078576

H          x =  0.458407  y =  2.536176  z =  1.835299 angstrom
           Maximum rank =  0   Radius =  0.325 angstrom
                   Q00  =   0.073211

H          x = -2.458693  y =  0.787227  z = -0.889141 angstrom
           Maximum rank =  0   Radius =  0.325 angstrom
                   Q00  =   0.093235

H          x = -3.027383  y =  1.916761  z =  0.408443 angstrom
           Maximum rank =  0   Radius =  0.325 angstrom
                   Q00  =   0.071050

C          x =  0.295057  y = -2.589943  z =  0.406276 angstrom
           Maximum rank =  0   Radius =  0.650 angstrom
                   Q00  =  -0.259897

C          x =  0.855057  y = -1.426943  z = -0.400724 angstrom
           Maximum rank =  0   Radius =  0.650 angstrom
                   Q00  =   0.804997

O          x =  0.517057  y = -1.238943  z = -1.566724 angstrom
           Maximum rank =  0   Radius =  0.650 angstrom
                   Q00  =  -0.788269

N          x =  1.718057  y = -0.634943  z =  0.214276 angstrom
           Maximum rank =  0   Radius =  0.650 angstrom
                   Q00  =  -0.514928

H          x = -0.680943  y = -2.287943  z =  0.788276 angstrom
           Maximum rank =  0   Radius =  0.325 angstrom
                   Q00  =   0.131086

H          x =  0.950057  y = -2.790943  z =  1.256276 angstrom
           Maximum rank =  0   Radius =  0.325 angstrom
                   Q00  =   0.075365

H          x =  2.119057  y =  0.127057  z = -0.317724 angstrom
           Maximum rank =  0   Radius =  0.325 angstrom
                   Q00  =   0.218393

H          x =  2.103057  y = -0.850943  z =  1.127276 angstrom
           Maximum rank =  0   Radius =  0.325 angstrom
                   Q00  =   0.208926

H          x =  0.184977  y = -3.502923  z = -0.197340 angstrom
           Maximum rank =  0   Radius =  0.325 angstrom
                   Q00  =   0.132369

Total multipoles referred to origin at
           x =   0.000000,  y =    0.000000,  z =    0.000000 angstrom
                   Q00  =  -0.000000

Finished at 12:49:37 on 27 Apr 2020

  DMA results are available in the Python driver through the
	  variable('DMA DISTRIBUTED MULTIPOLES')
  and
	  variable('DMA TOTAL MULTIPOLES')
  commands.

    Psi4 stopped on: Monday, 27 April 2020 12:49PM
    Psi4 wall time for execution: 0:00:53.82

*** Psi4 exiting successfully. Buy a developer a beer!
