                               Psi4 1.3.2 release

  ==> Input File <==

--------------------------------------------------------------------------
import numpy as np
set {scf_type pk
basis cc-pvdz
d_convergence 10
gdma_switch   0
gdma_limit    0
gdma_origin   [ 0.0,  0.0,  0.0 ]
}
molecule test {
    units Angstrom
    -1 1
    --
    -1 1
    C               -2.439873666359715     1.401772917177299     1.186138275139367
    O               -1.615873666359716     0.296772917177299     1.493138275139366
    H               -1.348873666359716    -0.112227082822701     0.643138275139366
    H               -3.184873666359715     1.511772917177299     1.973138275139366
    H               -2.972873666359716     1.208772917177299     0.253138275139366
    H               -1.848443666359716     2.325116917177299     1.098678275139366
    C                1.225126333640284    -0.701227082822701     0.386138275139366
    C                2.415126333640285     0.232772917177299     0.484138275139367
    C                0.459126333640284    -0.510227082822701    -0.904861724860633
    O                1.053126333640284    -0.011227082822701    -1.876861724860633
    O               -0.742873666359716    -0.857227082822701    -0.929861724860633
    H                1.594126333640284    -1.728227082822701     0.427138275139366
    H                0.586126333640284    -0.566227082822701     1.251138275139366
    H                2.067126333640284     1.260772917177299     0.393138275139366
    H                3.105126333640285     0.023772917177299    -0.332861724860634
    H                2.964266333640285     0.111788917177299     1.429558275139367

}
e, wfn = energy('scf', return_wfn=True)
gdma(wfn)
dmavals = variable('DMA DISTRIBUTED MULTIPOLES')
charges = np.array(dmavals)
print(charges)
np.save('SSI-014SER-017GLU-1-dimer.npy', np.array(charges))--------------------------------------------------------------------------

*** tstart() called on ds3
*** at Sun Apr 26 18:50:07 2020

   => Loading Basis Set <=

    Name: CC-PVDZ
    Role: ORBITAL
    Keyword: BASIS
    atoms 1, 7-9     entry C          line   138 file /theoryfs2/ds/metcalf/miniconda2/envs/tf2gpu/share/psi4/basis/cc-pvdz.gbs
    atoms 2, 10-11   entry O          line   198 file /theoryfs2/ds/metcalf/miniconda2/envs/tf2gpu/share/psi4/basis/cc-pvdz.gbs
    atoms 3-6, 12-16 entry H          line    22 file /theoryfs2/ds/metcalf/miniconda2/envs/tf2gpu/share/psi4/basis/cc-pvdz.gbs

         ---------------------------------------------------------
                                   SCF
               by Justin Turney, Rob Parrish, Andy Simmonett
                          and Daniel G. A. Smith
                              RHF Reference
                        1 Threads,    500 MiB Core
         ---------------------------------------------------------

  ==> Geometry <==

    Molecular point group: c1
    Full point group: C1

    Geometry (in Angstrom), charge = -1, multiplicity = 1:

       Center              X                  Y                   Z               Mass
    ------------   -----------------  -----------------  -----------------  -----------------
         C           -2.439873666360     1.401772917177     1.186138275139    12.000000000000
         O           -1.615873666360     0.296772917177     1.493138275139    15.994914619570
         H           -1.348873666360    -0.112227082823     0.643138275139     1.007825032230
         H           -3.184873666360     1.511772917177     1.973138275139     1.007825032230
         H           -2.972873666360     1.208772917177     0.253138275139     1.007825032230
         H           -1.848443666360     2.325116917177     1.098678275139     1.007825032230
         C            1.225126333640    -0.701227082823     0.386138275139    12.000000000000
         C            2.415126333640     0.232772917177     0.484138275139    12.000000000000
         C            0.459126333640    -0.510227082823    -0.904861724861    12.000000000000
         O            1.053126333640    -0.011227082823    -1.876861724861    15.994914619570
         O           -0.742873666360    -0.857227082823    -0.929861724861    15.994914619570
         H            1.594126333640    -1.728227082823     0.427138275139     1.007825032230
         H            0.586126333640    -0.566227082823     1.251138275139     1.007825032230
         H            2.067126333640     1.260772917177     0.393138275139     1.007825032230
         H            3.105126333640     0.023772917177    -0.332861724861     1.007825032230
         H            2.964266333640     0.111788917177     1.429558275139     1.007825032230

  Running in c1 symmetry.

  Rotational constants: A =      0.11400  B =      0.04475  C =      0.03735 [cm^-1]
  Rotational constants: A =   3417.72873  B =   1341.57371  C =   1119.75438 [MHz]
  Nuclear repulsion =  307.717552896662824

  Charge       = -1
  Multiplicity = 1
  Electrons    = 58
  Nalpha       = 29
  Nbeta        = 29

  ==> Algorithm <==

  SCF Algorithm Type is PK.
  DIIS enabled.
  MOM disabled.
  Fractional occupation disabled.
  Guess Type is SAD.
  Energy threshold   = 1.00e-06
  Density threshold  = 1.00e-10
  Integral threshold = 0.00e+00

  ==> Primary Basis <==

  Basis Set: CC-PVDZ
    Blend: CC-PVDZ
    Number of shells: 69
    Number of basis function: 143
    Number of Cartesian functions: 150
    Spherical Harmonics?: true
    Max angular momentum: 2

  ==> Pre-Iterations <==

   -------------------------------------------------------
    Irrep   Nso     Nmo     Nalpha   Nbeta   Ndocc  Nsocc
   -------------------------------------------------------
     A        143     143       0       0       0       0
   -------------------------------------------------------
    Total     143     143      29      29      29       0
   -------------------------------------------------------

  ==> Integral Setup <==

  Using integral reordering PK algorithm.
  Sizing the integral batches needed.
  Building batch lookup table.
   Calculation information:
      Number of atoms:                  16
      Number of AO shells:              69
      Number of primitives:            199
      Number of atomic orbitals:       150
      Number of basis functions:       143

      Integral cutoff                 1.00e-12
      Number of threads:                 1

	Batch   1 pq = [       0,    9405] index = [             0,44231715] size =     44231715
	Batch   2 pq = [    9405,   10296] index = [      44231715,53008956] size =      8777241
  Task number: 5
  Buffer size: 11059200
  Buffer per thread: 2
  We computed 2663787 shell quartets total.
  Whereas there are 2917320 unique shell quartets.

  ==> DiskJK: Disk-Based J/K Matrices <==

    J tasked:                  Yes
    K tasked:                  Yes
    wK tasked:                  No
    Memory [MiB]:              375
    Schwarz Cutoff:          1E-12

    OpenMP threads:              1

  Minimum eigenvalue in the overlap matrix is 3.7041140142E-03.
  Using Symmetric Orthogonalization.

  SCF Guess: Superposition of Atomic Densities via on-the-fly atomic UHF.

  ==> Iterations <==

                        Total Energy        Delta E     RMS |[F,P]|

   @RHF iter SAD:  -379.76961761918250   -3.79770e+02   0.00000e+00
   @RHF iter   1:  -381.09252305723055   -1.32291e+00   5.12504e-03 DIIS
   @RHF iter   2:  -381.28771332741383   -1.95190e-01   2.85926e-03 DIIS
   @RHF iter   3:  -381.34755933027157   -5.98460e-02   4.24158e-04 DIIS
   @RHF iter   4:  -381.35005279567827   -2.49347e-03   1.65252e-04 DIIS
   @RHF iter   5:  -381.35040247977162   -3.49684e-04   3.27423e-05 DIIS
   @RHF iter   6:  -381.35041828519036   -1.58054e-05   1.37518e-05 DIIS
   @RHF iter   7:  -381.35042045075750   -2.16557e-06   3.32022e-06 DIIS
   @RHF iter   8:  -381.35042070249921   -2.51742e-07   1.37151e-06 DIIS
   @RHF iter   9:  -381.35042073830027   -3.58011e-08   5.72297e-07 DIIS
   @RHF iter  10:  -381.35042074749600   -9.19573e-09   1.99673e-07 DIIS
   @RHF iter  11:  -381.35042074863435   -1.13835e-09   6.42128e-08 DIIS
   @RHF iter  12:  -381.35042074874133   -1.06979e-10   2.06969e-08 DIIS
   @RHF iter  13:  -381.35042074875281   -1.14824e-11   4.59715e-09 DIIS
   @RHF iter  14:  -381.35042074875412   -1.30740e-12   1.07749e-09 DIIS
   @RHF iter  15:  -381.35042074875355    5.68434e-13   3.13181e-10 DIIS
   @RHF iter  16:  -381.35042074875292    6.25278e-13   1.12475e-10 DIIS
   @RHF iter  17:  -381.35042074875196    9.66338e-13   3.74344e-11 DIIS
  Energy and wave function converged.

  ==> Post-Iterations <==

    Orbital Energies [Eh]
    ---------------------

    Doubly Occupied:

       1A    -20.382988     2A    -20.284488     3A    -20.279056
       4A    -11.139049     5A    -11.130353     6A    -11.068587
       7A    -11.051285     8A     -1.190303     9A     -1.173093
      10A     -1.061978    11A     -0.875952    12A     -0.778971
      13A     -0.705063    14A     -0.535549    15A     -0.518033
      16A     -0.477282    17A     -0.462083    18A     -0.448607
      19A     -0.439435    20A     -0.404969    21A     -0.373102
      22A     -0.365391    23A     -0.343533    24A     -0.331433
      25A     -0.309950    26A     -0.286285    27A     -0.200698
      28A     -0.194375    29A     -0.185300

    Virtual:

      30A      0.315879    31A      0.336237    32A      0.375744
      33A      0.384458    34A      0.388087    35A      0.402001
      36A      0.411957    37A      0.423123    38A      0.469169
      39A      0.493845    40A      0.550015    41A      0.582075
      42A      0.613683    43A      0.698188    44A      0.735798
      45A      0.762609    46A      0.768714    47A      0.778643
      48A      0.785963    49A      0.881185    50A      0.900497
      51A      0.940860    52A      0.956002    53A      0.968161
      54A      0.989973    55A      1.001498    56A      1.016163
      57A      1.025891    58A      1.037924    59A      1.043510
      60A      1.052561    61A      1.055466    62A      1.063765
      63A      1.079542    64A      1.106913    65A      1.162685
      66A      1.222591    67A      1.273194    68A      1.278962
      69A      1.299761    70A      1.304873    71A      1.326880
      72A      1.383496    73A      1.448707    74A      1.489523
      75A      1.532185    76A      1.538771    77A      1.575876
      78A      1.612166    79A      1.630802    80A      1.648642
      81A      1.664879    82A      1.686407    83A      1.771950
      84A      1.782157    85A      1.800183    86A      1.837750
      87A      1.845348    88A      1.874801    89A      1.901398
      90A      1.938812    91A      1.994089    92A      2.017196
      93A      2.041004    94A      2.043157    95A      2.065106
      96A      2.086992    97A      2.102492    98A      2.107826
      99A      2.147368   100A      2.162296   101A      2.169303
     102A      2.198680   103A      2.210488   104A      2.232145
     105A      2.264650   106A      2.269591   107A      2.333446
     108A      2.379028   109A      2.437571   110A      2.461150
     111A      2.509284   112A      2.526704   113A      2.547071
     114A      2.559016   115A      2.568084   116A      2.669811
     117A      2.694416   118A      2.756793   119A      2.788411
     120A      2.852309   121A      2.895246   122A      2.908981
     123A      2.917601   124A      2.922695   125A      3.006641
     126A      3.020951   127A      3.068476   128A      3.130348
     129A      3.258715   130A      3.269222   131A      3.338351
     132A      3.352231   133A      3.479673   134A      3.557156
     135A      3.605764   136A      3.619317   137A      3.758773
     138A      3.793547   139A      3.826171   140A      4.049687
     141A      4.084211   142A      4.194583   143A      4.293884

    Final Occupation by Irrep:
              A
    DOCC [    29 ]

  @RHF Final Energy:  -381.35042074875196

   => Energetics <=

    Nuclear Repulsion Energy =            307.7175528966628235
    One-Electron Energy =               -1144.1415617727336667
    Two-Electron Energy =                 455.0735881273188852
    Total Energy =                       -381.3504207487519579

Computation Completed

Properties will be evaluated at   0.000000,   0.000000,   0.000000 [a0]

Properties computed using the SCF density matrix

  Nuclear Dipole Moment: [e a0]
     X:     0.8953      Y:     3.7802      Z:     6.6837

  Electronic Dipole Moment: [e a0]
     X:    -0.9997      Y:    -3.1274      Z:    -5.0185

  Dipole Moment: [e a0]
     X:    -0.1044      Y:     0.6529      Z:     1.6652     Total:     1.7917

  Dipole Moment: [D]
     X:    -0.2654      Y:     1.6594      Z:     4.2325     Total:     4.5539

*** tstop() called on ds3 at Sun Apr 26 18:50:35 2020
Module time:
	user time   =      20.07 seconds =       0.33 minutes
	system time =       7.72 seconds =       0.13 minutes
	total time  =         28 seconds =       0.47 minutes
Total time:
	user time   =      20.07 seconds =       0.33 minutes
	system time =       7.72 seconds =       0.13 minutes
	total time  =         28 seconds =       0.47 minutes
                                     G D M A

                                 by Anthony Stone

                           version 2.2.06, 22 June 2011

               Distributed Multipoles from Gaussian wavefunctions

Starting at 18:50:35 on 26 Apr 2020

Using SCF density matrix from file ./SSI/SSI-014SER-017GLU-1-dimer.test.20617.fchk

                         Distributed Multipole Analysis

Standard DMA

Positions and radii in angstrom
Multipole moments in atomic units, ea_0^k for rank k

C          x = -2.439874  y =  1.401773  z =  1.186138 angstrom
           Maximum rank =  0   Radius =  0.650 angstrom
                   Q00  =  -0.007724

O          x = -1.615874  y =  0.296773  z =  1.493138 angstrom
           Maximum rank =  0   Radius =  0.650 angstrom
                   Q00  =  -0.666675

H          x = -1.348874  y = -0.112227  z =  0.643138 angstrom
           Maximum rank =  0   Radius =  0.325 angstrom
                   Q00  =   0.501836

H          x = -3.184874  y =  1.511773  z =  1.973138 angstrom
           Maximum rank =  0   Radius =  0.325 angstrom
                   Q00  =   0.051368

H          x = -2.972874  y =  1.208773  z =  0.253138 angstrom
           Maximum rank =  0   Radius =  0.325 angstrom
                   Q00  =   0.063196

H          x = -1.848444  y =  2.325117  z =  1.098678 angstrom
           Maximum rank =  0   Radius =  0.325 angstrom
                   Q00  =   0.048223

C          x =  1.225126  y = -0.701227  z =  0.386138 angstrom
           Maximum rank =  0   Radius =  0.650 angstrom
                   Q00  =  -0.172287

C          x =  2.415126  y =  0.232773  z =  0.484138 angstrom
           Maximum rank =  0   Radius =  0.650 angstrom
                   Q00  =  -0.214235

C          x =  0.459126  y = -0.510227  z = -0.904862 angstrom
           Maximum rank =  0   Radius =  0.650 angstrom
                   Q00  =   0.983353

O          x =  1.053126  y = -0.011227  z = -1.876862 angstrom
           Maximum rank =  0   Radius =  0.650 angstrom
                   Q00  =  -0.940244

O          x = -0.742874  y = -0.857227  z = -0.929862 angstrom
           Maximum rank =  0   Radius =  0.650 angstrom
                   Q00  =  -0.936059

H          x =  1.594126  y = -1.728227  z =  0.427138 angstrom
           Maximum rank =  0   Radius =  0.325 angstrom
                   Q00  =   0.050307

H          x =  0.586126  y = -0.566227  z =  1.251138 angstrom
           Maximum rank =  0   Radius =  0.325 angstrom
                   Q00  =   0.062658

H          x =  2.067126  y =  1.260773  z =  0.393138 angstrom
           Maximum rank =  0   Radius =  0.325 angstrom
                   Q00  =   0.075007

H          x =  3.105126  y =  0.023773  z = -0.332862 angstrom
           Maximum rank =  0   Radius =  0.325 angstrom
                   Q00  =   0.082265

H          x =  2.964266  y =  0.111789  z =  1.429558 angstrom
           Maximum rank =  0   Radius =  0.325 angstrom
                   Q00  =   0.019012

Total multipoles referred to origin at
           x =   0.000000,  y =    0.000000,  z =    0.000000 angstrom
                   Q00  =  -1.000000

Finished at 18:50:35 on 26 Apr 2020

  DMA results are available in the Python driver through the
	  variable('DMA DISTRIBUTED MULTIPOLES')
  and
	  variable('DMA TOTAL MULTIPOLES')
  commands.

    Psi4 stopped on: Sunday, 26 April 2020 06:50PM
    Psi4 wall time for execution: 0:00:27.61

*** Psi4 exiting successfully. Buy a developer a beer!
