                               Psi4 1.3.2 release

  ==> Input File <==

--------------------------------------------------------------------------
import numpy as np
set {scf_type pk
basis cc-pvdz
d_convergence 10
gdma_switch   0
gdma_limit    0
gdma_origin   [ 0.0,  0.0,  0.0 ]
}
molecule test {
    units Angstrom
    0 1
    --
    0 1
    C               -0.439675050808421    -1.023590063214645     1.396061012126444
    C               -1.734675050808421    -0.622590063214645     2.086061012126444
    C                0.766324949191579    -0.039590063214645     1.719061012126444
    H               -0.157675050808421    -2.031590063214645     1.694061012126444
    H               -0.561675050808421    -1.013590063214645     0.315061012126444
    H               -1.985675050808421     0.393409936785355     1.794061012126444
    H                1.054324949191579    -0.120590063214645     2.767061012126444
    H                1.622324949191579    -0.315590063214645     1.104061012126444
    H                0.478324949191579     0.987409936785355     1.496061012126444
    H               -2.547755050808421    -1.289670063214645     1.763721012126444
    H               -1.648985050808421    -0.649500063214645     3.182388012126444
    C                0.461324949191579     0.294409936785355    -2.035938987873556
    C                0.918324949191579     1.325409936785355    -3.062938987873556
    H                0.931324949191579     0.489409936785355    -1.072938987873556
    H               -0.623675050808421     0.342409936785355    -1.923938987873556
    H                0.731324949191579    -0.707590063214645    -2.372938987873556
    H                0.436324949191579     1.093409936785355    -4.014938987873555
    H                2.009894949191579     1.273249936785355    -3.188424987873556
    H                0.599454949191579     2.334079936785355    -2.761422987873556

}
e, wfn = energy('scf', return_wfn=True)
gdma(wfn)
dmavals = variable('DMA DISTRIBUTED MULTIPOLES')
charges = np.array(dmavals)
print(charges)
np.save('SSI-236ILE-260ALA-1-dimer.npy', np.array(charges))--------------------------------------------------------------------------

*** tstart() called on ds3
*** at Tue Apr 28 20:03:34 2020

   => Loading Basis Set <=

    Name: CC-PVDZ
    Role: ORBITAL
    Keyword: BASIS
    atoms 1-3, 12-13  entry C          line   138 file /theoryfs2/ds/metcalf/miniconda2/envs/tf2gpu/share/psi4/basis/cc-pvdz.gbs
    atoms 4-11, 14-19 entry H          line    22 file /theoryfs2/ds/metcalf/miniconda2/envs/tf2gpu/share/psi4/basis/cc-pvdz.gbs

         ---------------------------------------------------------
                                   SCF
               by Justin Turney, Rob Parrish, Andy Simmonett
                          and Daniel G. A. Smith
                              RHF Reference
                        1 Threads,    500 MiB Core
         ---------------------------------------------------------

  ==> Geometry <==

    Molecular point group: c1
    Full point group: C1

    Geometry (in Angstrom), charge = 0, multiplicity = 1:

       Center              X                  Y                   Z               Mass
    ------------   -----------------  -----------------  -----------------  -----------------
         C           -0.439675050808    -1.023590063215     1.396061012126    12.000000000000
         C           -1.734675050808    -0.622590063215     2.086061012126    12.000000000000
         C            0.766324949192    -0.039590063215     1.719061012126    12.000000000000
         H           -0.157675050808    -2.031590063215     1.694061012126     1.007825032230
         H           -0.561675050808    -1.013590063215     0.315061012126     1.007825032230
         H           -1.985675050808     0.393409936785     1.794061012126     1.007825032230
         H            1.054324949192    -0.120590063215     2.767061012126     1.007825032230
         H            1.622324949192    -0.315590063215     1.104061012126     1.007825032230
         H            0.478324949192     0.987409936785     1.496061012126     1.007825032230
         H           -2.547755050808    -1.289670063215     1.763721012126     1.007825032230
         H           -1.648985050808    -0.649500063215     3.182388012126     1.007825032230
         C            0.461324949192     0.294409936785    -2.035938987874    12.000000000000
         C            0.918324949192     1.325409936785    -3.062938987874    12.000000000000
         H            0.931324949192     0.489409936785    -1.072938987874     1.007825032230
         H           -0.623675050808     0.342409936785    -1.923938987874     1.007825032230
         H            0.731324949192    -0.707590063215    -2.372938987874     1.007825032230
         H            0.436324949192     1.093409936785    -4.014938987874     1.007825032230
         H            2.009894949192     1.273249936785    -3.188424987874     1.007825032230
         H            0.599454949192     2.334079936785    -2.761422987874     1.007825032230

  Running in c1 symmetry.

  Rotational constants: A =      0.24989  B =      0.03846  C =      0.03582 [cm^-1]
  Rotational constants: A =   7491.57049  B =   1152.94467  C =   1073.89562 [MHz]
  Nuclear repulsion =  177.499522069254994

  Charge       = 0
  Multiplicity = 1
  Electrons    = 44
  Nalpha       = 22
  Nbeta        = 22

  ==> Algorithm <==

  SCF Algorithm Type is PK.
  DIIS enabled.
  MOM disabled.
  Fractional occupation disabled.
  Guess Type is SAD.
  Energy threshold   = 1.00e-06
  Density threshold  = 1.00e-10
  Integral threshold = 0.00e+00

  ==> Primary Basis <==

  Basis Set: CC-PVDZ
    Blend: CC-PVDZ
    Number of shells: 72
    Number of basis function: 140
    Number of Cartesian functions: 145
    Spherical Harmonics?: true
    Max angular momentum: 2

  ==> Pre-Iterations <==

   -------------------------------------------------------
    Irrep   Nso     Nmo     Nalpha   Nbeta   Ndocc  Nsocc
   -------------------------------------------------------
     A        140     140       0       0       0       0
   -------------------------------------------------------
    Total     140     140      22      22      22       0
   -------------------------------------------------------

  ==> Integral Setup <==

  Using integral reordering PK algorithm.
  Sizing the integral batches needed.
  Building batch lookup table.
   Calculation information:
      Number of atoms:                  19
      Number of AO shells:              72
      Number of primitives:            180
      Number of atomic orbitals:       145
      Number of basis functions:       140

      Integral cutoff                 1.00e-12
      Number of threads:                 1

	Batch   1 pq = [       0,    9405] index = [             0,44231715] size =     44231715
	Batch   2 pq = [    9405,    9870] index = [      44231715,48713385] size =      4481670
  Task number: 5
  Buffer size: 11059200
  Buffer per thread: 2
  We computed 2847988 shell quartets total.
  Whereas there are 3454506 unique shell quartets.

  ==> DiskJK: Disk-Based J/K Matrices <==

    J tasked:                  Yes
    K tasked:                  Yes
    wK tasked:                  No
    Memory [MiB]:              375
    Schwarz Cutoff:          1E-12

    OpenMP threads:              1

  Minimum eigenvalue in the overlap matrix is 5.6931814575E-03.
  Using Symmetric Orthogonalization.

  SCF Guess: Superposition of Atomic Densities via on-the-fly atomic UHF.

  ==> Iterations <==

                        Total Energy        Delta E     RMS |[F,P]|

   @RHF iter SAD:  -196.29526840843323   -1.96295e+02   0.00000e+00
   @RHF iter   1:  -197.31492838493457   -1.01966e+00   3.75098e-03 DIIS
   @RHF iter   2:  -197.47222601852130   -1.57298e-01   1.59572e-03 DIIS
   @RHF iter   3:  -197.49927720269397   -2.70512e-02   3.22795e-04 DIIS
   @RHF iter   4:  -197.50147636814413   -2.19917e-03   4.70660e-05 DIIS
   @RHF iter   5:  -197.50151404210771   -3.76740e-05   1.46396e-05 DIIS
   @RHF iter   6:  -197.50151730739418   -3.26529e-06   2.52952e-06 DIIS
   @RHF iter   7:  -197.50151742346105   -1.16067e-07   4.89275e-07 DIIS
   @RHF iter   8:  -197.50151742887689   -5.41584e-09   1.29130e-07 DIIS
   @RHF iter   9:  -197.50151742924513   -3.68232e-10   4.34753e-08 DIIS
   @RHF iter  10:  -197.50151742928915   -4.40252e-11   9.23326e-09 DIIS
   @RHF iter  11:  -197.50151742929143   -2.27374e-12   1.66935e-09 DIIS
   @RHF iter  12:  -197.50151742929236   -9.37916e-13   3.13927e-10 DIIS
   @RHF iter  13:  -197.50151742929248   -1.13687e-13   7.13447e-11 DIIS
  Energy and wave function converged.

  ==> Post-Iterations <==

    Orbital Energies [Eh]
    ---------------------

    Doubly Occupied:

       1A    -11.221886     2A    -11.219440     3A    -11.218137
       4A    -11.216729     5A    -11.216613     6A     -1.044309
       7A     -1.019413     8A     -0.922665     9A     -0.836051
      10A     -0.798395    11A     -0.622202    12A     -0.600433
      13A     -0.598273    14A     -0.588505    15A     -0.548349
      16A     -0.533113    17A     -0.500292    18A     -0.487839
      19A     -0.483841    20A     -0.477305    21A     -0.470797
      22A     -0.455445

    Virtual:

      23A      0.172583    24A      0.195338    25A      0.223738
      26A      0.225665    27A      0.233250    28A      0.252958
      29A      0.257521    30A      0.270987    31A      0.273189
      32A      0.281299    33A      0.292564    34A      0.307934
      35A      0.315664    36A      0.318160    37A      0.364133
      38A      0.414466    39A      0.426355    40A      0.575240
      41A      0.594395    42A      0.599282    43A      0.604297
      44A      0.611967    45A      0.622012    46A      0.638285
      47A      0.670927    48A      0.694250    49A      0.754051
      50A      0.796908    51A      0.816976    52A      0.830833
      53A      0.869443    54A      0.878690    55A      0.886958
      56A      0.892330    57A      0.894638    58A      0.898342
      59A      0.902069    60A      0.911050    61A      0.917042
      62A      0.920579    63A      0.924167    64A      0.950889
      65A      0.953815    66A      0.981912    67A      1.015086
      68A      1.036180    69A      1.121927    70A      1.125400
      71A      1.131425    72A      1.142570    73A      1.209654
      74A      1.273696    75A      1.373668    76A      1.460176
      77A      1.472929    78A      1.477700    79A      1.486105
      80A      1.519481    81A      1.582523    82A      1.647531
      83A      1.672528    84A      1.678402    85A      1.689273
      86A      1.693985    87A      1.700205    88A      1.823742
      89A      1.852361    90A      1.865988    91A      1.875245
      92A      1.886814    93A      1.911606    94A      1.918238
      95A      1.928367    96A      1.933574    97A      1.940511
      98A      1.942863    99A      1.954722   100A      1.958917
     101A      1.962987   102A      1.972362   103A      1.986830
     104A      1.990392   105A      2.030090   106A      2.038242
     107A      2.061194   108A      2.107517   109A      2.115125
     110A      2.122645   111A      2.158301   112A      2.284463
     113A      2.298109   114A      2.309330   115A      2.315463
     116A      2.336447   117A      2.354424   118A      2.457347
     119A      2.466277   120A      2.486455   121A      2.531354
     122A      2.560651   123A      2.565698   124A      2.585927
     125A      2.609265   126A      2.624205   127A      2.753346
     128A      2.763487   129A      2.770404   130A      2.786986
     131A      2.813709   132A      2.821123   133A      2.847810
     134A      2.851966   135A      2.909278   136A      2.941895
     137A      2.963128   138A      2.978113   139A      2.985557
     140A      3.050077

    Final Occupation by Irrep:
              A
    DOCC [    22 ]

  @RHF Final Energy:  -197.50151742929248

   => Energetics <=

    Nuclear Repulsion Energy =            177.4995220692549935
    One-Electron Energy =                -615.8420135061860492
    Two-Electron Energy =                 240.8409740076385503
    Total Energy =                       -197.5015174292924769

Computation Completed

Properties will be evaluated at   0.000000,   0.000000,   0.000000 [a0]

Properties computed using the SCF density matrix

  Nuclear Dipole Moment: [e a0]
     X:     0.3167      Y:     0.7362      Z:    -1.1420

  Electronic Dipole Moment: [e a0]
     X:    -0.3208      Y:    -0.7647      Z:     1.1157

  Dipole Moment: [e a0]
     X:    -0.0041      Y:    -0.0285      Z:    -0.0263     Total:     0.0390

  Dipole Moment: [D]
     X:    -0.0104      Y:    -0.0726      Z:    -0.0669     Total:     0.0992

*** tstop() called on ds3 at Tue Apr 28 20:03:55 2020
Module time:
	user time   =      15.03 seconds =       0.25 minutes
	system time =       6.36 seconds =       0.11 minutes
	total time  =         21 seconds =       0.35 minutes
Total time:
	user time   =      15.03 seconds =       0.25 minutes
	system time =       6.36 seconds =       0.11 minutes
	total time  =         21 seconds =       0.35 minutes
                                     G D M A

                                 by Anthony Stone

                           version 2.2.06, 22 June 2011

               Distributed Multipoles from Gaussian wavefunctions

Starting at 20:3:55 on 28 Apr 2020

Using SCF density matrix from file ./SSI/SSI-236ILE-260ALA-1-dimer.test.19967.fchk

                         Distributed Multipole Analysis

Standard DMA

Positions and radii in angstrom
Multipole moments in atomic units, ea_0^k for rank k

C          x = -0.439675  y = -1.023590  z =  1.396061 angstrom
           Maximum rank =  0   Radius =  0.650 angstrom
                   Q00  =  -0.081547

C          x = -1.734675  y = -0.622590  z =  2.086061 angstrom
           Maximum rank =  0   Radius =  0.650 angstrom
                   Q00  =  -0.238469

C          x =  0.766325  y = -0.039590  z =  1.719061 angstrom
           Maximum rank =  0   Radius =  0.650 angstrom
                   Q00  =  -0.277721

H          x = -0.157675  y = -2.031590  z =  1.694061 angstrom
           Maximum rank =  0   Radius =  0.325 angstrom
                   Q00  =   0.052250

H          x = -0.561675  y = -1.013590  z =  0.315061 angstrom
           Maximum rank =  0   Radius =  0.325 angstrom
                   Q00  =   0.056813

H          x = -1.985675  y =  0.393410  z =  1.794061 angstrom
           Maximum rank =  0   Radius =  0.325 angstrom
                   Q00  =   0.075835

H          x =  1.054325  y = -0.120590  z =  2.767061 angstrom
           Maximum rank =  0   Radius =  0.325 angstrom
                   Q00  =   0.083250

H          x =  1.622325  y = -0.315590  z =  1.104061 angstrom
           Maximum rank =  0   Radius =  0.325 angstrom
                   Q00  =   0.087136

H          x =  0.478325  y =  0.987410  z =  1.496061 angstrom
           Maximum rank =  0   Radius =  0.325 angstrom
                   Q00  =   0.080543

H          x = -2.547755  y = -1.289670  z =  1.763721 angstrom
           Maximum rank =  0   Radius =  0.325 angstrom
                   Q00  =   0.081874

H          x = -1.648985  y = -0.649500  z =  3.182388 angstrom
           Maximum rank =  0   Radius =  0.325 angstrom
                   Q00  =   0.078012

C          x =  0.461325  y =  0.294410  z = -2.035939 angstrom
           Maximum rank =  0   Radius =  0.650 angstrom
                   Q00  =  -0.243333

C          x =  0.918325  y =  1.325410  z = -3.062939 angstrom
           Maximum rank =  0   Radius =  0.650 angstrom
                   Q00  =  -0.230268

H          x =  0.931325  y =  0.489410  z = -1.072939 angstrom
           Maximum rank =  0   Radius =  0.325 angstrom
                   Q00  =   0.083529

H          x = -0.623675  y =  0.342410  z = -1.923939 angstrom
           Maximum rank =  0   Radius =  0.325 angstrom
                   Q00  =   0.075923

H          x =  0.731325  y = -0.707590  z = -2.372939 angstrom
           Maximum rank =  0   Radius =  0.325 angstrom
                   Q00  =   0.078379

H          x =  0.436325  y =  1.093410  z = -4.014939 angstrom
           Maximum rank =  0   Radius =  0.325 angstrom
                   Q00  =   0.077713

H          x =  2.009895  y =  1.273250  z = -3.188425 angstrom
           Maximum rank =  0   Radius =  0.325 angstrom
                   Q00  =   0.080560

H          x =  0.599455  y =  2.334080  z = -2.761423 angstrom
           Maximum rank =  0   Radius =  0.325 angstrom
                   Q00  =   0.079521

Total multipoles referred to origin at
           x =   0.000000,  y =    0.000000,  z =    0.000000 angstrom
                   Q00  =  -0.000000

Finished at 20:3:55 on 28 Apr 2020

  DMA results are available in the Python driver through the
	  variable('DMA DISTRIBUTED MULTIPOLES')
  and
	  variable('DMA TOTAL MULTIPOLES')
  commands.

    Psi4 stopped on: Tuesday, 28 April 2020 08:03PM
    Psi4 wall time for execution: 0:00:21.07

*** Psi4 exiting successfully. Buy a developer a beer!
