                               Psi4 1.3.2 release

  ==> Input File <==

--------------------------------------------------------------------------
import numpy as np
set {scf_type pk
basis cc-pvdz
d_convergence 10
gdma_switch   0
gdma_limit    0
gdma_origin   [ 0.0,  0.0,  0.0 ]
}
molecule test {
    units Angstrom
    1 1
    --
    1 1
    C                1.212881321869630     0.772151545762435     2.159603966314638
    C                1.094881321869629    -0.492848454237565     0.077603966314638
    N                0.924881321869629    -0.426848454237565     1.393603966314638
    N                1.611881321869630     0.515151545762435    -0.596396033685362
    N                0.835881321869629    -1.612848454237565    -0.539396033685362
    H                0.535881321869629    -1.225848454237565     1.878603966314638
    H                1.815881321869630     1.394151545762435    -0.139396033685362
    H                1.781881321869630     0.435151545762435    -1.593396033685362
    H                0.433881321869629    -2.387848454237565    -0.024396033685362
    H                1.038881321869630    -1.727848454237565    -1.520396033685362
    H                0.558881321869629     0.766151545762435     3.033603966314638
    H                0.971881321869629     1.669151545762435     1.586603966314638
    H                2.259743321869629     0.782291545762435     2.497203966314638
    C               -2.507118678130371     0.669151545762435    -0.509396033685362
    C               -3.112118678130371     0.541151545762435    -1.908396033685362
    H               -1.695118678130370     1.397151545762435    -0.510396033685362
    H               -3.274118678130371     1.014151545762435     0.184603966314638
    H               -2.136118678130371    -0.298848454237565    -0.169396033685362
    H               -3.439118678130371     1.542151545762435    -2.179396033685362
    H               -2.290029678130371     0.202431545762435    -2.556036033685362
    H               -3.993942678130371    -0.116308454237565    -1.919756033685362

}
e, wfn = energy('scf', return_wfn=True)
gdma(wfn)
dmavals = variable('DMA DISTRIBUTED MULTIPOLES')
charges = np.array(dmavals)
print(charges)
np.save('SSI-190ARG-235LEU-1-dimer.npy', np.array(charges))--------------------------------------------------------------------------

*** tstart() called on ds3
*** at Tue Apr 28 10:42:30 2020

   => Loading Basis Set <=

    Name: CC-PVDZ
    Role: ORBITAL
    Keyword: BASIS
    atoms 1-2, 14-15  entry C          line   138 file /theoryfs2/ds/metcalf/miniconda2/envs/tf2gpu/share/psi4/basis/cc-pvdz.gbs
    atoms 3-5         entry N          line   168 file /theoryfs2/ds/metcalf/miniconda2/envs/tf2gpu/share/psi4/basis/cc-pvdz.gbs
    atoms 6-13, 16-21 entry H          line    22 file /theoryfs2/ds/metcalf/miniconda2/envs/tf2gpu/share/psi4/basis/cc-pvdz.gbs

         ---------------------------------------------------------
                                   SCF
               by Justin Turney, Rob Parrish, Andy Simmonett
                          and Daniel G. A. Smith
                              RHF Reference
                        1 Threads,    500 MiB Core
         ---------------------------------------------------------

  ==> Geometry <==

    Molecular point group: c1
    Full point group: C1

    Geometry (in Angstrom), charge = 1, multiplicity = 1:

       Center              X                  Y                   Z               Mass
    ------------   -----------------  -----------------  -----------------  -----------------
         C            1.212881321870     0.772151545762     2.159603966315    12.000000000000
         C            1.094881321870    -0.492848454238     0.077603966315    12.000000000000
         N            0.924881321870    -0.426848454238     1.393603966315    14.003074004430
         N            1.611881321870     0.515151545762    -0.596396033685    14.003074004430
         N            0.835881321870    -1.612848454238    -0.539396033685    14.003074004430
         H            0.535881321870    -1.225848454238     1.878603966315     1.007825032230
         H            1.815881321870     1.394151545762    -0.139396033685     1.007825032230
         H            1.781881321870     0.435151545762    -1.593396033685     1.007825032230
         H            0.433881321870    -2.387848454238    -0.024396033685     1.007825032230
         H            1.038881321870    -1.727848454238    -1.520396033685     1.007825032230
         H            0.558881321870     0.766151545762     3.033603966315     1.007825032230
         H            0.971881321870     1.669151545762     1.586603966315     1.007825032230
         H            2.259743321870     0.782291545762     2.497203966315     1.007825032230
         C           -2.507118678130     0.669151545762    -0.509396033685    12.000000000000
         C           -3.112118678130     0.541151545762    -1.908396033685    12.000000000000
         H           -1.695118678130     1.397151545762    -0.510396033685     1.007825032230
         H           -3.274118678130     1.014151545762     0.184603966315     1.007825032230
         H           -2.136118678130    -0.298848454238    -0.169396033685     1.007825032230
         H           -3.439118678130     1.542151545762    -2.179396033685     1.007825032230
         H           -2.290029678130     0.202431545762    -2.556036033685     1.007825032230
         H           -3.993942678130    -0.116308454238    -1.919756033685     1.007825032230

  Running in c1 symmetry.

  Rotational constants: A =      0.09603  B =      0.03428  C =      0.03021 [cm^-1]
  Rotational constants: A =   2879.01273  B =   1027.67432  C =    905.77886 [MHz]
  Nuclear repulsion =  322.172519671804650

  Charge       = 1
  Multiplicity = 1
  Electrons    = 58
  Nalpha       = 29
  Nbeta        = 29

  ==> Algorithm <==

  SCF Algorithm Type is PK.
  DIIS enabled.
  MOM disabled.
  Fractional occupation disabled.
  Guess Type is SAD.
  Energy threshold   = 1.00e-06
  Density threshold  = 1.00e-10
  Integral threshold = 0.00e+00

  ==> Primary Basis <==

  Basis Set: CC-PVDZ
    Blend: CC-PVDZ
    Number of shells: 84
    Number of basis function: 168
    Number of Cartesian functions: 175
    Spherical Harmonics?: true
    Max angular momentum: 2

  ==> Pre-Iterations <==

   -------------------------------------------------------
    Irrep   Nso     Nmo     Nalpha   Nbeta   Ndocc  Nsocc
   -------------------------------------------------------
     A        168     168       0       0       0       0
   -------------------------------------------------------
    Total     168     168      29      29      29       0
   -------------------------------------------------------

  ==> Integral Setup <==

  Using integral reordering PK algorithm.
  Sizing the integral batches needed.
  Building batch lookup table.
   Calculation information:
      Number of atoms:                  21
      Number of AO shells:              84
      Number of primitives:            224
      Number of atomic orbitals:       175
      Number of basis functions:       168

      Integral cutoff                 1.00e-12
      Number of threads:                 1

	Batch   1 pq = [       0,    9405] index = [             0,44231715] size =     44231715
	Batch   2 pq = [    9405,   13301] index = [      44231715,88464951] size =     44233236
	Batch   3 pq = [   13301,   14196] index = [      88464951,100770306] size =     12305355
  Task number: 10
  Buffer size: 11059200
  Buffer per thread: 2
  We computed 5738357 shell quartets total.
  Whereas there are 6374235 unique shell quartets.

  ==> DiskJK: Disk-Based J/K Matrices <==

    J tasked:                  Yes
    K tasked:                  Yes
    wK tasked:                  No
    Memory [MiB]:              375
    Schwarz Cutoff:          1E-12

    OpenMP threads:              1

  Minimum eigenvalue in the overlap matrix is 3.5529834749E-03.
  Using Symmetric Orthogonalization.

  SCF Guess: Superposition of Atomic Densities via on-the-fly atomic UHF.

  ==> Iterations <==

                        Total Energy        Delta E     RMS |[F,P]|

   @RHF iter SAD:  -322.16797901488422   -3.22168e+02   0.00000e+00
   @RHF iter   1:  -322.61272986849434   -4.44751e-01   3.42810e-03 DIIS
   @RHF iter   2:  -322.78552365002309   -1.72794e-01   1.34772e-03 DIIS
   @RHF iter   3:  -322.81090539128837   -2.53817e-02   3.16956e-04 DIIS
   @RHF iter   4:  -322.81328920972737   -2.38382e-03   4.83791e-05 DIIS
   @RHF iter   5:  -322.81334799566173   -5.87859e-05   1.98331e-05 DIIS
   @RHF iter   6:  -322.81335585397227   -7.85831e-06   4.01026e-06 DIIS
   @RHF iter   7:  -322.81335641826649   -5.64294e-07   1.31876e-06 DIIS
   @RHF iter   8:  -322.81335645849299   -4.02265e-08   3.86985e-07 DIIS
   @RHF iter   9:  -322.81335646216974   -3.67675e-09   9.36006e-08 DIIS
   @RHF iter  10:  -322.81335646240575   -2.36014e-10   2.66516e-08 DIIS
   @RHF iter  11:  -322.81335646242428   -1.85310e-11   7.50171e-09 DIIS
   @RHF iter  12:  -322.81335646242746   -3.18323e-12   2.33517e-09 DIIS
   @RHF iter  13:  -322.81335646242678    6.82121e-13   8.26126e-10 DIIS
   @RHF iter  14:  -322.81335646242661    1.70530e-13   2.90485e-10 DIIS
   @RHF iter  15:  -322.81335646242553    1.08002e-12   5.68479e-11 DIIS
  Energy and wave function converged.

  ==> Post-Iterations <==

    Orbital Energies [Eh]
    ---------------------

    Doubly Occupied:

       1A    -15.791054     2A    -15.789119     3A    -15.785481
       4A    -11.589409     5A    -11.439661     6A    -11.327629
       7A    -11.319479     8A     -1.550178     9A     -1.405736
      10A     -1.394559    11A     -1.141258    12A     -1.125632
      13A     -1.041170    14A     -0.981127    15A     -0.945324
      16A     -0.939698    17A     -0.862545    18A     -0.856991
      19A     -0.828671    20A     -0.794338    21A     -0.746939
      22A     -0.722194    23A     -0.708611    24A     -0.704858
      25A     -0.619940    26A     -0.605374    27A     -0.590573
      28A     -0.587437    29A     -0.584572

    Virtual:

      30A     -0.016227    31A      0.019491    32A      0.026712
      33A      0.030403    34A      0.057061    35A      0.079799
      36A      0.087742    37A      0.113502    38A      0.117785
      39A      0.132814    40A      0.145121    41A      0.154528
      42A      0.160329    43A      0.180207    44A      0.186362
      45A      0.205678    46A      0.279294    47A      0.284337
      48A      0.335255    49A      0.339772    50A      0.425800
      51A      0.449685    52A      0.474097    53A      0.493739
      54A      0.500795    55A      0.525870    56A      0.529044
      57A      0.538482    58A      0.545066    59A      0.558620
      60A      0.564207    61A      0.581062    62A      0.668502
      63A      0.683883    64A      0.689325    65A      0.703652
      66A      0.710598    67A      0.733877    68A      0.742550
      69A      0.751690    70A      0.760686    71A      0.774339
      72A      0.788060    73A      0.794704    74A      0.797272
      75A      0.815493    76A      0.842561    77A      0.853886
      78A      0.865663    79A      0.877657    80A      0.910669
      81A      0.920515    82A      0.940752    83A      0.988320
      84A      1.015140    85A      1.027328    86A      1.042370
      87A      1.115398    88A      1.133912    89A      1.140807
      90A      1.160016    91A      1.186919    92A      1.202478
      93A      1.234387    94A      1.290273    95A      1.362795
      96A      1.382044    97A      1.400793    98A      1.436109
      99A      1.471054   100A      1.505311   101A      1.537830
     102A      1.552990   103A      1.558868   104A      1.570782
     105A      1.605661   106A      1.615372   107A      1.662183
     108A      1.690960   109A      1.720808   110A      1.727319
     111A      1.743209   112A      1.747584   113A      1.753121
     114A      1.767199   115A      1.787308   116A      1.805074
     117A      1.808654   118A      1.814152   119A      1.827658
     120A      1.843803   121A      1.859654   122A      1.876683
     123A      1.883048   124A      1.887554   125A      1.895518
     126A      1.983186   127A      1.996754   128A      2.008565
     129A      2.021844   130A      2.042825   131A      2.125623
     132A      2.146760   133A      2.163961   134A      2.181434
     135A      2.202957   136A      2.227511   137A      2.263795
     138A      2.293419   139A      2.317191   140A      2.338174
     141A      2.343050   142A      2.355776   143A      2.379949
     144A      2.434492   145A      2.449715   146A      2.470219
     147A      2.486430   148A      2.529274   149A      2.586326
     150A      2.602284   151A      2.637958   152A      2.662382
     153A      2.688995   154A      2.720224   155A      2.722993
     156A      2.740168   157A      2.749182   158A      2.785411
     159A      2.823521   160A      2.826484   161A      2.859674
     162A      2.864158   163A      2.887472   164A      3.057300
     165A      3.086303   166A      3.108766   167A      3.582836
     168A      3.655846

    Final Occupation by Irrep:
              A
    DOCC [    29 ]

  @RHF Final Energy:  -322.81335646242553

   => Energetics <=

    Nuclear Repulsion Energy =            322.1725196718046504
    One-Electron Energy =               -1064.4126356008941912
    Two-Electron Energy =                 419.4267594666640662
    Total Energy =                       -322.8133564624255314

Computation Completed

Properties will be evaluated at   0.000000,   0.000000,   0.000000 [a0]

Properties computed using the SCF density matrix

  Nuclear Dipole Moment: [e a0]
     X:    -6.9766      Y:     3.2350      Z:    -1.3432

  Electronic Dipole Moment: [e a0]
     X:     8.8529      Y:    -3.9448      Z:     1.6906

  Dipole Moment: [e a0]
     X:     1.8763      Y:    -0.7098      Z:     0.3475     Total:     2.0360

  Dipole Moment: [D]
     X:     4.7691      Y:    -1.8042      Z:     0.8832     Total:     5.1749

*** tstop() called on ds3 at Tue Apr 28 10:43:18 2020
Module time:
	user time   =      34.96 seconds =       0.58 minutes
	system time =      13.59 seconds =       0.23 minutes
	total time  =         48 seconds =       0.80 minutes
Total time:
	user time   =      34.96 seconds =       0.58 minutes
	system time =      13.59 seconds =       0.23 minutes
	total time  =         48 seconds =       0.80 minutes
                                     G D M A

                                 by Anthony Stone

                           version 2.2.06, 22 June 2011

               Distributed Multipoles from Gaussian wavefunctions

Starting at 10:43:18 on 28 Apr 2020

Using SCF density matrix from file ./SSI/SSI-190ARG-235LEU-1-dimer.test.12086.fchk

                         Distributed Multipole Analysis

Standard DMA

Positions and radii in angstrom
Multipole moments in atomic units, ea_0^k for rank k

C          x =  1.212881  y =  0.772152  z =  2.159604 angstrom
           Maximum rank =  0   Radius =  0.650 angstrom
                   Q00  =  -0.133578

C          x =  1.094881  y = -0.492848  z =  0.077604 angstrom
           Maximum rank =  0   Radius =  0.650 angstrom
                   Q00  =   1.086375

N          x =  0.924881  y = -0.426848  z =  1.393604 angstrom
           Maximum rank =  0   Radius =  0.650 angstrom
                   Q00  =  -0.488281

N          x =  1.611881  y =  0.515152  z = -0.596396 angstrom
           Maximum rank =  0   Radius =  0.650 angstrom
                   Q00  =  -0.589393

N          x =  0.835881  y = -1.612848  z = -0.539396 angstrom
           Maximum rank =  0   Radius =  0.650 angstrom
                   Q00  =  -0.591204

H          x =  0.535881  y = -1.225848  z =  1.878604 angstrom
           Maximum rank =  0   Radius =  0.325 angstrom
                   Q00  =   0.241430

H          x =  1.815881  y =  1.394152  z = -0.139396 angstrom
           Maximum rank =  0   Radius =  0.325 angstrom
                   Q00  =   0.273731

H          x =  1.781881  y =  0.435152  z = -1.593396 angstrom
           Maximum rank =  0   Radius =  0.325 angstrom
                   Q00  =   0.269577

H          x =  0.433881  y = -2.387848  z = -0.024396 angstrom
           Maximum rank =  0   Radius =  0.325 angstrom
                   Q00  =   0.266679

H          x =  1.038881  y = -1.727848  z = -1.520396 angstrom
           Maximum rank =  0   Radius =  0.325 angstrom
                   Q00  =   0.267853

H          x =  0.558881  y =  0.766152  z =  3.033604 angstrom
           Maximum rank =  0   Radius =  0.325 angstrom
                   Q00  =   0.160038

H          x =  0.971881  y =  1.669152  z =  1.586604 angstrom
           Maximum rank =  0   Radius =  0.325 angstrom
                   Q00  =   0.108766

H          x =  2.259743  y =  0.782292  z =  2.497204 angstrom
           Maximum rank =  0   Radius =  0.325 angstrom
                   Q00  =   0.127106

C          x = -2.507119  y =  0.669152  z = -0.509396 angstrom
           Maximum rank =  0   Radius =  0.650 angstrom
                   Q00  =  -0.253187

C          x = -3.112119  y =  0.541152  z = -1.908396 angstrom
           Maximum rank =  0   Radius =  0.650 angstrom
                   Q00  =  -0.210291

H          x = -1.695119  y =  1.397152  z = -0.510396 angstrom
           Maximum rank =  0   Radius =  0.325 angstrom
                   Q00  =   0.058321

H          x = -3.274119  y =  1.014152  z =  0.184604 angstrom
           Maximum rank =  0   Radius =  0.325 angstrom
                   Q00  =   0.102271

H          x = -2.136119  y = -0.298848  z = -0.169396 angstrom
           Maximum rank =  0   Radius =  0.325 angstrom
                   Q00  =   0.046981

H          x = -3.439119  y =  1.542152  z = -2.179396 angstrom
           Maximum rank =  0   Radius =  0.325 angstrom
                   Q00  =   0.095769

H          x = -2.290030  y =  0.202432  z = -2.556036 angstrom
           Maximum rank =  0   Radius =  0.325 angstrom
                   Q00  =   0.059282

H          x = -3.993943  y = -0.116308  z = -1.919756 angstrom
           Maximum rank =  0   Radius =  0.325 angstrom
                   Q00  =   0.101753

Total multipoles referred to origin at
           x =   0.000000,  y =    0.000000,  z =    0.000000 angstrom
                   Q00  =   1.000000

Finished at 10:43:18 on 28 Apr 2020

  DMA results are available in the Python driver through the
	  variable('DMA DISTRIBUTED MULTIPOLES')
  and
	  variable('DMA TOTAL MULTIPOLES')
  commands.

    Psi4 stopped on: Tuesday, 28 April 2020 10:43AM
    Psi4 wall time for execution: 0:00:47.56

*** Psi4 exiting successfully. Buy a developer a beer!
