                               Psi4 1.3.2 release

  ==> Input File <==

--------------------------------------------------------------------------
import numpy as np
set {scf_type pk
basis cc-pvdz
d_convergence 10
gdma_switch   0
gdma_limit    0
gdma_origin   [ 0.0,  0.0,  0.0 ]
}
molecule test {
    units Angstrom
    -1 1
    --
    -1 1
    C               -1.288384115168184    -2.455528140268424     1.042195129268709
    C               -2.632384115168183    -2.878528140268425     0.453195129268710
    H               -1.228384115168184    -2.763528140268424     2.085195129268709
    H               -0.485384115168184    -2.935528140268424     0.481195129268709
    H               -1.153384115168183    -1.378528140268425     0.969195129268710
    H               -2.668384115168184    -2.582528140268424    -0.593804870731291
    H               -3.459451115168184    -2.400000140268424     0.998145129268709
    H               -2.727296115168183    -3.973663140268425     0.494080129268710
    C                1.159615884831816     0.108471859731575    -0.377804870731291
    C                2.197615884831816     0.327471859731575    -1.475804870731291
    C                0.399615884831816     1.358471859731575    -0.018804870731291
    O                1.081615884831816     2.389471859731576     0.074195129268709
    O               -0.819384115168184     1.262471859731575     0.264195129268710
    H                0.472615884831816    -0.683528140268425    -0.673804870731290
    H                1.673615884831817    -0.230528140268425     0.525195129268709
    H                2.762615884831817     1.234471859731575    -1.251804870731291
    H                1.712205884831816     0.426364859731575    -2.457944870731291
    H                2.891195884831816    -0.526106140268425    -1.456980870731291

}
e, wfn = energy('scf', return_wfn=True)
gdma(wfn)
dmavals = variable('DMA DISTRIBUTED MULTIPOLES')
charges = np.array(dmavals)
print(charges)
np.save('SSI-051LEU-055ASP-1-dimer.npy', np.array(charges))--------------------------------------------------------------------------

*** tstart() called on ds3
*** at Mon Apr 27 12:48:29 2020

   => Loading Basis Set <=

    Name: CC-PVDZ
    Role: ORBITAL
    Keyword: BASIS
    atoms 1-2, 9-11  entry C          line   138 file /theoryfs2/ds/metcalf/miniconda2/envs/tf2gpu/share/psi4/basis/cc-pvdz.gbs
    atoms 3-8, 14-18 entry H          line    22 file /theoryfs2/ds/metcalf/miniconda2/envs/tf2gpu/share/psi4/basis/cc-pvdz.gbs
    atoms 12-13      entry O          line   198 file /theoryfs2/ds/metcalf/miniconda2/envs/tf2gpu/share/psi4/basis/cc-pvdz.gbs

         ---------------------------------------------------------
                                   SCF
               by Justin Turney, Rob Parrish, Andy Simmonett
                          and Daniel G. A. Smith
                              RHF Reference
                        1 Threads,    500 MiB Core
         ---------------------------------------------------------

  ==> Geometry <==

    Molecular point group: c1
    Full point group: C1

    Geometry (in Angstrom), charge = -1, multiplicity = 1:

       Center              X                  Y                   Z               Mass
    ------------   -----------------  -----------------  -----------------  -----------------
         C           -1.288384115168    -2.455528140268     1.042195129269    12.000000000000
         C           -2.632384115168    -2.878528140268     0.453195129269    12.000000000000
         H           -1.228384115168    -2.763528140268     2.085195129269     1.007825032230
         H           -0.485384115168    -2.935528140268     0.481195129269     1.007825032230
         H           -1.153384115168    -1.378528140268     0.969195129269     1.007825032230
         H           -2.668384115168    -2.582528140268    -0.593804870731     1.007825032230
         H           -3.459451115168    -2.400000140268     0.998145129269     1.007825032230
         H           -2.727296115168    -3.973663140268     0.494080129269     1.007825032230
         C            1.159615884832     0.108471859732    -0.377804870731    12.000000000000
         C            2.197615884832     0.327471859732    -1.475804870731    12.000000000000
         C            0.399615884832     1.358471859732    -0.018804870731    12.000000000000
         O            1.081615884832     2.389471859732     0.074195129269    15.994914619570
         O           -0.819384115168     1.262471859732     0.264195129269    15.994914619570
         H            0.472615884832    -0.683528140268    -0.673804870731     1.007825032230
         H            1.673615884832    -0.230528140268     0.525195129269     1.007825032230
         H            2.762615884832     1.234471859732    -1.251804870731     1.007825032230
         H            1.712205884832     0.426364859732    -2.457944870731     1.007825032230
         H            2.891195884832    -0.526106140268    -1.456980870731     1.007825032230

  Running in c1 symmetry.

  Rotational constants: A =      0.12091  B =      0.02981  C =      0.02541 [cm^-1]
  Rotational constants: A =   3624.86085  B =    893.60416  C =    761.80106 [MHz]
  Nuclear repulsion =  289.163875044362669

  Charge       = -1
  Multiplicity = 1
  Electrons    = 58
  Nalpha       = 29
  Nbeta        = 29

  ==> Algorithm <==

  SCF Algorithm Type is PK.
  DIIS enabled.
  MOM disabled.
  Fractional occupation disabled.
  Guess Type is SAD.
  Energy threshold   = 1.00e-06
  Density threshold  = 1.00e-10
  Integral threshold = 0.00e+00

  ==> Primary Basis <==

  Basis Set: CC-PVDZ
    Blend: CC-PVDZ
    Number of shells: 75
    Number of basis function: 153
    Number of Cartesian functions: 160
    Spherical Harmonics?: true
    Max angular momentum: 2

  ==> Pre-Iterations <==

   -------------------------------------------------------
    Irrep   Nso     Nmo     Nalpha   Nbeta   Ndocc  Nsocc
   -------------------------------------------------------
     A        153     153       0       0       0       0
   -------------------------------------------------------
    Total     153     153      29      29      29       0
   -------------------------------------------------------

  ==> Integral Setup <==

  Using integral reordering PK algorithm.
  Sizing the integral batches needed.
  Building batch lookup table.
   Calculation information:
      Number of atoms:                  18
      Number of AO shells:              75
      Number of primitives:            209
      Number of atomic orbitals:       160
      Number of basis functions:       153

      Integral cutoff                 1.00e-12
      Number of threads:                 1

	Batch   1 pq = [       0,    9405] index = [             0,44231715] size =     44231715
	Batch   2 pq = [    9405,   11781] index = [      44231715,69401871] size =     25170156
  Task number: 7
  Buffer size: 11059200
  Buffer per thread: 2
  We computed 3325536 shell quartets total.
  Whereas there are 4062675 unique shell quartets.

  ==> DiskJK: Disk-Based J/K Matrices <==

    J tasked:                  Yes
    K tasked:                  Yes
    wK tasked:                  No
    Memory [MiB]:              375
    Schwarz Cutoff:          1E-12

    OpenMP threads:              1

  Minimum eigenvalue in the overlap matrix is 4.0221183045E-03.
  Using Symmetric Orthogonalization.

  SCF Guess: Superposition of Atomic Densities via on-the-fly atomic UHF.

  ==> Iterations <==

                        Total Energy        Delta E     RMS |[F,P]|

   @RHF iter SAD:  -343.91409140594010   -3.43914e+02   0.00000e+00
   @RHF iter   1:  -345.22832514245613   -1.31423e+00   4.87545e-03 DIIS
   @RHF iter   2:  -345.45037630234265   -2.22051e-01   2.66371e-03 DIIS
   @RHF iter   3:  -345.51304791958313   -6.26716e-02   4.17384e-04 DIIS
   @RHF iter   4:  -345.51596544896444   -2.91753e-03   1.65602e-04 DIIS
   @RHF iter   5:  -345.51638984303497   -4.24394e-04   2.41529e-05 DIIS
   @RHF iter   6:  -345.51640332733615   -1.34843e-05   5.03542e-06 DIIS
   @RHF iter   7:  -345.51640391840527   -5.91069e-07   1.99138e-06 DIIS
   @RHF iter   8:  -345.51640398237981   -6.39745e-08   6.72962e-07 DIIS
   @RHF iter   9:  -345.51640399303631   -1.06565e-08   3.40379e-07 DIIS
   @RHF iter  10:  -345.51640399560074   -2.56443e-09   9.83109e-08 DIIS
   @RHF iter  11:  -345.51640399603116   -4.30418e-10   3.09352e-08 DIIS
   @RHF iter  12:  -345.51640399606680   -3.56408e-11   8.81941e-09 DIIS
   @RHF iter  13:  -345.51640399607118   -4.37694e-12   2.79856e-09 DIIS
   @RHF iter  14:  -345.51640399606998    1.19371e-12   8.55650e-10 DIIS
   @RHF iter  15:  -345.51640399607044   -4.54747e-13   3.07797e-10 DIIS
   @RHF iter  16:  -345.51640399606958    8.52651e-13   1.16467e-10 DIIS
   @RHF iter  17:  -345.51640399606993   -3.41061e-13   4.61831e-11 DIIS
  Energy and wave function converged.

  ==> Post-Iterations <==

    Orbital Energies [Eh]
    ---------------------

    Doubly Occupied:

       1A    -20.262718     2A    -20.262673     3A    -11.116521
       4A    -11.112365     5A    -11.098388     6A    -11.070655
       7A    -11.047058     8A     -1.153758     9A     -1.043042
      10A     -0.908996    11A     -0.869270    12A     -0.726988
      13A     -0.700242    14A     -0.508469    15A     -0.491027
      16A     -0.486618    17A     -0.455431    18A     -0.433518
      19A     -0.392102    20A     -0.387867    21A     -0.378524
      22A     -0.373461    23A     -0.365679    24A     -0.359320
      25A     -0.321436    26A     -0.297411    27A     -0.180221
      28A     -0.176651    29A     -0.165545

    Virtual:

      30A      0.288215    31A      0.325521    32A      0.343512
      33A      0.353590    34A      0.357717    35A      0.373709
      36A      0.389288    37A      0.405378    38A      0.423736
      39A      0.443972    40A      0.451165    41A      0.489483
      42A      0.508025    43A      0.555446    44A      0.623776
      45A      0.693682    46A      0.699773    47A      0.711516
      48A      0.713162    49A      0.738847    50A      0.761660
      51A      0.767115    52A      0.794851    53A      0.835409
      54A      0.899785    55A      0.947445    56A      0.968741
      57A      0.983235    58A      0.990878    59A      0.996521
      60A      1.004098    61A      1.010587    62A      1.021070
      63A      1.026346    64A      1.037935    65A      1.046666
      66A      1.053662    67A      1.061401    68A      1.070864
      69A      1.080942    70A      1.116497    71A      1.147568
      72A      1.161505    73A      1.235331    74A      1.237151
      75A      1.280788    76A      1.300994    77A      1.313863
      78A      1.345306    79A      1.398662    80A      1.497869
      81A      1.515289    82A      1.543920    83A      1.587369
      84A      1.588104    85A      1.605794    86A      1.646586
      87A      1.658589    88A      1.687917    89A      1.696752
      90A      1.728216    91A      1.776142    92A      1.782074
      93A      1.818568    94A      1.837835    95A      1.880864
      96A      1.934076    97A      1.965725    98A      1.992615
      99A      2.010627   100A      2.021150   101A      2.036845
     102A      2.056262   103A      2.057760   104A      2.063974
     105A      2.068922   106A      2.078656   107A      2.095650
     108A      2.123656   109A      2.140841   110A      2.147912
     111A      2.165416   112A      2.179237   113A      2.198086
     114A      2.217893   115A      2.243189   116A      2.304919
     117A      2.374858   118A      2.398517   119A      2.404302
     120A      2.430992   121A      2.471387   122A      2.483629
     123A      2.549984   124A      2.574003   125A      2.584195
     126A      2.610641   127A      2.658588   128A      2.672826
     129A      2.688738   130A      2.733107   131A      2.751244
     132A      2.814654   133A      2.863979   134A      2.909950
     135A      2.919048   136A      2.961322   137A      2.965515
     138A      2.983705   139A      3.004075   140A      3.043756
     141A      3.066399   142A      3.088341   143A      3.152610
     144A      3.247564   145A      3.281624   146A      3.304445
     147A      3.363695   148A      3.623788   149A      3.804135
     150A      3.864113   151A      4.054476   152A      4.109896
     153A      4.198736

    Final Occupation by Irrep:
              A
    DOCC [    29 ]

  @RHF Final Energy:  -345.51640399606993

   => Energetics <=

    Nuclear Repulsion Energy =            289.1638750443626691
    One-Electron Energy =               -1055.0686460670488032
    Two-Electron Energy =                 420.3883670266162653
    Total Energy =                       -345.5164039960699256

Computation Completed

Properties will be evaluated at   0.000000,   0.000000,   0.000000 [a0]

Properties computed using the SCF density matrix

  Nuclear Dipole Moment: [e a0]
     X:    -2.0706      Y:   -14.8068      Z:    -0.8246

  Electronic Dipole Moment: [e a0]
     X:     1.9695      Y:    11.7167      Z:     0.5424

  Dipole Moment: [e a0]
     X:    -0.1010      Y:    -3.0901      Z:    -0.2822     Total:     3.1046

  Dipole Moment: [D]
     X:    -0.2568      Y:    -7.8542      Z:    -0.7173     Total:     7.8911

*** tstop() called on ds3 at Mon Apr 27 12:49:09 2020
Module time:
	user time   =      27.09 seconds =       0.45 minutes
	system time =      14.37 seconds =       0.24 minutes
	total time  =         40 seconds =       0.67 minutes
Total time:
	user time   =      27.09 seconds =       0.45 minutes
	system time =      14.37 seconds =       0.24 minutes
	total time  =         40 seconds =       0.67 minutes
                                     G D M A

                                 by Anthony Stone

                           version 2.2.06, 22 June 2011

               Distributed Multipoles from Gaussian wavefunctions

Starting at 12:49:9 on 27 Apr 2020

Using SCF density matrix from file ./SSI/SSI-051LEU-055ASP-1-dimer.test.4147.fchk

                         Distributed Multipole Analysis

Standard DMA

Positions and radii in angstrom
Multipole moments in atomic units, ea_0^k for rank k

C          x = -1.288384  y = -2.455528  z =  1.042195 angstrom
           Maximum rank =  0   Radius =  0.650 angstrom
                   Q00  =  -0.185625

C          x = -2.632384  y = -2.878528  z =  0.453195 angstrom
           Maximum rank =  0   Radius =  0.650 angstrom
                   Q00  =  -0.232208

H          x = -1.228384  y = -2.763528  z =  2.085195 angstrom
           Maximum rank =  0   Radius =  0.325 angstrom
                   Q00  =   0.049684

H          x = -0.485384  y = -2.935528  z =  0.481195 angstrom
           Maximum rank =  0   Radius =  0.325 angstrom
                   Q00  =   0.059323

H          x = -1.153384  y = -1.378528  z =  0.969195 angstrom
           Maximum rank =  0   Radius =  0.325 angstrom
                   Q00  =   0.100625

H          x = -2.668384  y = -2.582528  z = -0.593805 angstrom
           Maximum rank =  0   Radius =  0.325 angstrom
                   Q00  =   0.082835

H          x = -3.459451  y = -2.400000  z =  0.998145 angstrom
           Maximum rank =  0   Radius =  0.325 angstrom
                   Q00  =   0.075487

H          x = -2.727296  y = -3.973663  z =  0.494080 angstrom
           Maximum rank =  0   Radius =  0.325 angstrom
                   Q00  =   0.041537

C          x =  1.159616  y =  0.108472  z = -0.377805 angstrom
           Maximum rank =  0   Radius =  0.650 angstrom
                   Q00  =  -0.132175

C          x =  2.197616  y =  0.327472  z = -1.475805 angstrom
           Maximum rank =  0   Radius =  0.650 angstrom
                   Q00  =  -0.212136

C          x =  0.399616  y =  1.358472  z = -0.018805 angstrom
           Maximum rank =  0   Radius =  0.650 angstrom
                   Q00  =   1.000158

O          x =  1.081616  y =  2.389472  z =  0.074195 angstrom
           Maximum rank =  0   Radius =  0.650 angstrom
                   Q00  =  -0.933253

O          x = -0.819384  y =  1.262472  z =  0.264195 angstrom
           Maximum rank =  0   Radius =  0.650 angstrom
                   Q00  =  -0.945606

H          x =  0.472616  y = -0.683528  z = -0.673805 angstrom
           Maximum rank =  0   Radius =  0.325 angstrom
                   Q00  =   0.015378

H          x =  1.673616  y = -0.230528  z =  0.525195 angstrom
           Maximum rank =  0   Radius =  0.325 angstrom
                   Q00  =   0.049769

H          x =  2.762616  y =  1.234472  z = -1.251805 angstrom
           Maximum rank =  0   Radius =  0.325 angstrom
                   Q00  =   0.096167

H          x =  1.712206  y =  0.426365  z = -2.457945 angstrom
           Maximum rank =  0   Radius =  0.325 angstrom
                   Q00  =   0.054277

H          x =  2.891196  y = -0.526106  z = -1.456981 angstrom
           Maximum rank =  0   Radius =  0.325 angstrom
                   Q00  =   0.015763

Total multipoles referred to origin at
           x =   0.000000,  y =    0.000000,  z =    0.000000 angstrom
                   Q00  =  -1.000000

Finished at 12:49:9 on 27 Apr 2020

  DMA results are available in the Python driver through the
	  variable('DMA DISTRIBUTED MULTIPOLES')
  and
	  variable('DMA TOTAL MULTIPOLES')
  commands.

    Psi4 stopped on: Monday, 27 April 2020 12:49PM
    Psi4 wall time for execution: 0:00:40.22

*** Psi4 exiting successfully. Buy a developer a beer!
