                               Psi4 1.3.2 release

  ==> Input File <==

--------------------------------------------------------------------------
import numpy as np
set {scf_type pk
basis cc-pvdz
d_convergence 10
gdma_switch   0
gdma_limit    0
gdma_origin   [ 0.0,  0.0,  0.0 ]
}
molecule test {
    units Angstrom
    0 1
    --
    0 1
    C               -2.707948348972820    -0.376405835183759     1.419857995226977
    C               -0.434948348972820    -0.314405835183759     0.303857995226977
    C               -1.567948348972820     0.361594164816241     0.759857995226977
    C                0.612051651027180     0.380594164816241    -0.291142004773023
    C                0.531051651027180     1.756594164816241    -0.452142004773023
    C               -1.634948348972820     1.742594164816241     0.595857995226977
    C               -0.588948348972820     2.438594164816241    -0.002142004773023
    H               -0.366948348972820    -1.389405835183759     0.337857995226977
    H                1.478051651027180    -0.121405835183759    -0.683142004773023
    H               -3.460948348972820    -0.596405835183759     0.662857995226977
    H               -3.160948348972820     0.277594164816241     2.164857995226977
    H                1.340051651027180     2.297594164816241    -0.927142004773023
    H               -2.507948348972820     2.282594164816241     0.934857995226977
    H               -0.653948348972820     3.511594164816241    -0.123142004773023
    H               -2.404400348972820    -1.313602835183759     1.909266995226977
    C                2.053051651027180    -2.632405835183759    -0.604142004773023
    C                3.226051651027180    -2.482405835183759    -1.553142004773023
    H                2.138051651027181    -1.919405835183759     0.213857995226977
    H                1.122051651027180    -2.481405835183759    -1.149142004773023
    H                2.036051651027180    -3.613405835183759    -0.151142004773023
    H                3.160051651027180    -1.522405835183759    -2.069142004773023
    H                3.244734251027181    -3.303723835183759    -2.284639004773023
    H                4.138766051027180    -2.518914835183759    -0.940264004773023

}
e, wfn = energy('scf', return_wfn=True)
gdma(wfn)
dmavals = variable('DMA DISTRIBUTED MULTIPOLES')
charges = np.array(dmavals)
print(charges)
np.save('SSI-059PHE-118THR-1-dimer.npy', np.array(charges))--------------------------------------------------------------------------

*** tstart() called on ds3
*** at Tue Apr 28 22:03:18 2020

   => Loading Basis Set <=

    Name: CC-PVDZ
    Role: ORBITAL
    Keyword: BASIS
    atoms 1-7, 16-17  entry C          line   138 file /theoryfs2/ds/metcalf/miniconda2/envs/tf2gpu/share/psi4/basis/cc-pvdz.gbs
    atoms 8-15, 18-23 entry H          line    22 file /theoryfs2/ds/metcalf/miniconda2/envs/tf2gpu/share/psi4/basis/cc-pvdz.gbs

         ---------------------------------------------------------
                                   SCF
               by Justin Turney, Rob Parrish, Andy Simmonett
                          and Daniel G. A. Smith
                              RHF Reference
                        1 Threads,    500 MiB Core
         ---------------------------------------------------------

  ==> Geometry <==

    Molecular point group: c1
    Full point group: C1

    Geometry (in Angstrom), charge = 0, multiplicity = 1:

       Center              X                  Y                   Z               Mass
    ------------   -----------------  -----------------  -----------------  -----------------
         C           -2.707948348973    -0.376405835184     1.419857995227    12.000000000000
         C           -0.434948348973    -0.314405835184     0.303857995227    12.000000000000
         C           -1.567948348973     0.361594164816     0.759857995227    12.000000000000
         C            0.612051651027     0.380594164816    -0.291142004773    12.000000000000
         C            0.531051651027     1.756594164816    -0.452142004773    12.000000000000
         C           -1.634948348973     1.742594164816     0.595857995227    12.000000000000
         C           -0.588948348973     2.438594164816    -0.002142004773    12.000000000000
         H           -0.366948348973    -1.389405835184     0.337857995227     1.007825032230
         H            1.478051651027    -0.121405835184    -0.683142004773     1.007825032230
         H           -3.460948348973    -0.596405835184     0.662857995227     1.007825032230
         H           -3.160948348973     0.277594164816     2.164857995227     1.007825032230
         H            1.340051651027     2.297594164816    -0.927142004773     1.007825032230
         H           -2.507948348973     2.282594164816     0.934857995227     1.007825032230
         H           -0.653948348973     3.511594164816    -0.123142004773     1.007825032230
         H           -2.404400348973    -1.313602835184     1.909266995227     1.007825032230
         C            2.053051651027    -2.632405835184    -0.604142004773    12.000000000000
         C            3.226051651027    -2.482405835184    -1.553142004773    12.000000000000
         H            2.138051651027    -1.919405835184     0.213857995227     1.007825032230
         H            1.122051651027    -2.481405835184    -1.149142004773     1.007825032230
         H            2.036051651027    -3.613405835184    -0.151142004773     1.007825032230
         H            3.160051651027    -1.522405835184    -2.069142004773     1.007825032230
         H            3.244734251027    -3.303723835184    -2.284639004773     1.007825032230
         H            4.138766051027    -2.518914835184    -0.940264004773     1.007825032230

  Running in c1 symmetry.

  Rotational constants: A =      0.08330  B =      0.02395  C =      0.01883 [cm^-1]
  Rotational constants: A =   2497.30703  B =    717.99397  C =    564.64831 [MHz]
  Nuclear repulsion =  407.237372134640736

  Charge       = 0
  Multiplicity = 1
  Electrons    = 68
  Nalpha       = 34
  Nbeta        = 34

  ==> Algorithm <==

  SCF Algorithm Type is PK.
  DIIS enabled.
  MOM disabled.
  Fractional occupation disabled.
  Guess Type is SAD.
  Energy threshold   = 1.00e-06
  Density threshold  = 1.00e-10
  Integral threshold = 0.00e+00

  ==> Primary Basis <==

  Basis Set: CC-PVDZ
    Blend: CC-PVDZ
    Number of shells: 96
    Number of basis function: 196
    Number of Cartesian functions: 205
    Spherical Harmonics?: true
    Max angular momentum: 2

  ==> Pre-Iterations <==

   -------------------------------------------------------
    Irrep   Nso     Nmo     Nalpha   Nbeta   Ndocc  Nsocc
   -------------------------------------------------------
     A        196     196       0       0       0       0
   -------------------------------------------------------
    Total     196     196      34      34      34       0
   -------------------------------------------------------

  ==> Integral Setup <==

  Using integral reordering PK algorithm.
  Sizing the integral batches needed.
  Building batch lookup table.
   Calculation information:
      Number of atoms:                  23
      Number of AO shells:              96
      Number of primitives:            268
      Number of atomic orbitals:       205
      Number of basis functions:       196

      Integral cutoff                 1.00e-12
      Number of threads:                 1

	Batch   1 pq = [       0,    9405] index = [             0,44231715] size =     44231715
	Batch   2 pq = [    9405,   13301] index = [      44231715,88464951] size =     44233236
	Batch   3 pq = [   13301,   16290] index = [      88464951,132690195] size =     44225244
	Batch   4 pq = [   16290,   18810] index = [     132690195,176917455] size =     44227260
	Batch   5 pq = [   18810,   19306] index = [     176917455,186370471] size =      9453016
  Task number: 17
  Buffer size: 11059200
  Buffer per thread: 2
  We computed 9210902 shell quartets total.
  Whereas there are 10841496 unique shell quartets.

  ==> DiskJK: Disk-Based J/K Matrices <==

    J tasked:                  Yes
    K tasked:                  Yes
    wK tasked:                  No
    Memory [MiB]:              375
    Schwarz Cutoff:          1E-12

    OpenMP threads:              1

  Minimum eigenvalue in the overlap matrix is 2.9647724154E-04.
  Using Symmetric Orthogonalization.

  SCF Guess: Superposition of Atomic Densities via on-the-fly atomic UHF.

  ==> Iterations <==

                        Total Energy        Delta E     RMS |[F,P]|

   @RHF iter SAD:  -347.97538615087865   -3.47975e+02   0.00000e+00
   @RHF iter   1:  -348.76127253001414   -7.85886e-01   2.90036e-03 DIIS
   @RHF iter   2:  -348.95597015963625   -1.94698e-01   1.18942e-03 DIIS
   @RHF iter   3:  -348.98567678525706   -2.97066e-02   2.59135e-04 DIIS
   @RHF iter   4:  -348.98818657087827   -2.50979e-03   4.87395e-05 DIIS
   @RHF iter   5:  -348.98825231084390   -6.57400e-05   1.60780e-05 DIIS
   @RHF iter   6:  -348.98825880696836   -6.49612e-06   4.29967e-06 DIIS
   @RHF iter   7:  -348.98825933434898   -5.27381e-07   1.33096e-06 DIIS
   @RHF iter   8:  -348.98825938294021   -4.85912e-08   2.64549e-07 DIIS
   @RHF iter   9:  -348.98825938603602   -3.09581e-09   9.08534e-08 DIIS
   @RHF iter  10:  -348.98825938634320   -3.07182e-10   3.07628e-08 DIIS
   @RHF iter  11:  -348.98825938639175   -4.85443e-11   7.63295e-09 DIIS
   @RHF iter  12:  -348.98825938639447   -2.72848e-12   3.41655e-09 DIIS
   @RHF iter  13:  -348.98825938639681   -2.33058e-12   1.80484e-09 DIIS
   @RHF iter  14:  -348.98825938639652    2.84217e-13   6.06634e-10 DIIS
   @RHF iter  15:  -348.98825938639550    1.02318e-12   2.12929e-10 DIIS
   @RHF iter  16:  -348.98825938639516    3.41061e-13   8.60804e-11 DIIS
  Energy and wave function converged.

  ==> Post-Iterations <==

    Orbital Energies [Eh]
    ---------------------

    Doubly Occupied:

       1A    -11.240513     2A    -11.233124     3A    -11.230477
       4A    -11.229240     5A    -11.228717     6A    -11.227830
       7A    -11.227327     8A    -11.221486     9A    -11.215811
      10A     -1.151895    11A     -1.043139    12A     -1.026211
      13A     -1.009866    14A     -0.930597    15A     -0.839833
      16A     -0.823709    17A     -0.793771    18A     -0.690330
      19A     -0.632493    20A     -0.628948    21A     -0.606949
      22A     -0.603141    23A     -0.577293    24A     -0.574986
      25A     -0.561145    26A     -0.535607    27A     -0.506164
      28A     -0.490605    29A     -0.487166    30A     -0.485306
      31A     -0.480280    32A     -0.477928    33A     -0.330572
      34A     -0.320488

    Virtual:

      35A      0.138047    36A      0.141108    37A      0.178720
      38A      0.192267    39A      0.206665    40A      0.224920
      41A      0.229738    42A      0.249580    43A      0.255515
      44A      0.263818    45A      0.264557    46A      0.277248
      47A      0.283363    48A      0.293124    49A      0.308039
      50A      0.346648    51A      0.368261    52A      0.377699
      53A      0.411275    54A      0.457428    55A      0.461114
      56A      0.478258    57A      0.497777    58A      0.550872
      59A      0.600094    60A      0.603106    61A      0.623484
      62A      0.636860    63A      0.659517    64A      0.671933
      65A      0.687439    66A      0.696211    67A      0.708239
      68A      0.717232    69A      0.733480    70A      0.742690
      71A      0.748491    72A      0.750549    73A      0.766471
      74A      0.774792    75A      0.792778    76A      0.835133
      77A      0.841897    78A      0.849766    79A      0.865500
      80A      0.868626    81A      0.885004    82A      0.887522
      83A      0.889844    84A      0.892336    85A      0.901533
      86A      0.915626    87A      0.925916    88A      0.932797
      89A      0.939937    90A      0.946719    91A      0.955833
      92A      0.972004    93A      0.991342    94A      1.002116
      95A      1.045728    96A      1.049034    97A      1.118028
      98A      1.135202    99A      1.151614   100A      1.158919
     101A      1.166365   102A      1.175877   103A      1.209354
     104A      1.217525   105A      1.248208   106A      1.256810
     107A      1.264724   108A      1.291021   109A      1.311022
     110A      1.319891   111A      1.338487   112A      1.355648
     113A      1.415658   114A      1.473860   115A      1.493812
     116A      1.516467   117A      1.541027   118A      1.570177
     119A      1.611352   120A      1.627562   121A      1.670026
     122A      1.679615   123A      1.701841   124A      1.703673
     125A      1.739998   126A      1.751492   127A      1.764259
     128A      1.793837   129A      1.811810   130A      1.849367
     131A      1.862321   132A      1.884567   133A      1.888987
     134A      1.894434   135A      1.907183   136A      1.921361
     137A      1.924163   138A      1.932864   139A      1.938326
     140A      1.941708   141A      1.945045   142A      1.956244
     143A      1.962342   144A      1.976253   145A      1.985822
     146A      1.990111   147A      1.999442   148A      2.025063
     149A      2.047419   150A      2.079704   151A      2.088066
     152A      2.111548   153A      2.121647   154A      2.128141
     155A      2.155972   156A      2.162004   157A      2.181785
     158A      2.217604   159A      2.235856   160A      2.274727
     161A      2.282284   162A      2.286993   163A      2.298903
     164A      2.306969   165A      2.317672   166A      2.340460
     167A      2.361707   168A      2.456065   169A      2.464927
     170A      2.480988   171A      2.483955   172A      2.497389
     173A      2.550363   174A      2.575939   175A      2.604239
     176A      2.637196   177A      2.743083   178A      2.755397
     179A      2.768099   180A      2.772368   181A      2.784793
     182A      2.807494   183A      2.828977   184A      2.849236
     185A      2.851098   186A      2.862489   187A      2.879310
     188A      2.956168   189A      2.986055   190A      3.008440
     191A      3.023320   192A      3.045083   193A      3.172056
     194A      3.210474   195A      3.315810   196A      3.974575

    Final Occupation by Irrep:
              A
    DOCC [    34 ]

  @RHF Final Energy:  -348.98825938639516

   => Energetics <=

    Nuclear Repulsion Energy =            407.2373721346407365
    One-Electron Energy =               -1277.1253639102869784
    Two-Electron Energy =                 520.8997323892510849
    Total Energy =                       -348.9882593863951570

Computation Completed

Properties will be evaluated at   0.000000,   0.000000,   0.000000 [a0]

Properties computed using the SCF density matrix

  Nuclear Dipole Moment: [e a0]
     X:     5.7211      Y:    -9.7597      Z:    -1.9726

  Electronic Dipole Moment: [e a0]
     X:    -5.8259      Y:     9.6671      Z:     1.9996

  Dipole Moment: [e a0]
     X:    -0.1048      Y:    -0.0926      Z:     0.0270     Total:     0.1425

  Dipole Moment: [D]
     X:    -0.2664      Y:    -0.2354      Z:     0.0686     Total:     0.3621

*** tstop() called on ds3 at Tue Apr 28 22:04:48 2020
Module time:
	user time   =      65.38 seconds =       1.09 minutes
	system time =      27.31 seconds =       0.46 minutes
	total time  =         90 seconds =       1.50 minutes
Total time:
	user time   =      65.38 seconds =       1.09 minutes
	system time =      27.31 seconds =       0.46 minutes
	total time  =         90 seconds =       1.50 minutes
                                     G D M A

                                 by Anthony Stone

                           version 2.2.06, 22 June 2011

               Distributed Multipoles from Gaussian wavefunctions

Starting at 22:4:48 on 28 Apr 2020

Using SCF density matrix from file ./SSI/SSI-059PHE-118THR-1-dimer.test.11845.fchk

                         Distributed Multipole Analysis

Standard DMA

Positions and radii in angstrom
Multipole moments in atomic units, ea_0^k for rank k

C          x = -2.707948  y = -0.376406  z =  1.419858 angstrom
           Maximum rank =  0   Radius =  0.650 angstrom
                   Q00  =  -0.209274

C          x = -0.434948  y = -0.314406  z =  0.303858 angstrom
           Maximum rank =  0   Radius =  0.650 angstrom
                   Q00  =  -0.056460

C          x = -1.567948  y =  0.361594  z =  0.759858 angstrom
           Maximum rank =  0   Radius =  0.650 angstrom
                   Q00  =  -0.086950

C          x =  0.612052  y =  0.380594  z = -0.291142 angstrom
           Maximum rank =  0   Radius =  0.650 angstrom
                   Q00  =  -0.081415

C          x =  0.531052  y =  1.756594  z = -0.452142 angstrom
           Maximum rank =  0   Radius =  0.650 angstrom
                   Q00  =  -0.076244

C          x = -1.634948  y =  1.742594  z =  0.595858 angstrom
           Maximum rank =  0   Radius =  0.650 angstrom
                   Q00  =  -0.014189

C          x = -0.588948  y =  2.438594  z = -0.002142 angstrom
           Maximum rank =  0   Radius =  0.650 angstrom
                   Q00  =  -0.075906

H          x = -0.366948  y = -1.389406  z =  0.337858 angstrom
           Maximum rank =  0   Radius =  0.325 angstrom
                   Q00  =   0.057916

H          x =  1.478052  y = -0.121406  z = -0.683142 angstrom
           Maximum rank =  0   Radius =  0.325 angstrom
                   Q00  =   0.060271

H          x = -3.460948  y = -0.596406  z =  0.662858 angstrom
           Maximum rank =  0   Radius =  0.325 angstrom
                   Q00  =   0.104135

H          x = -3.160948  y =  0.277594  z =  2.164858 angstrom
           Maximum rank =  0   Radius =  0.325 angstrom
                   Q00  =   0.098568

H          x =  1.340052  y =  2.297594  z = -0.927142 angstrom
           Maximum rank =  0   Radius =  0.325 angstrom
                   Q00  =   0.057840

H          x = -2.507948  y =  2.282594  z =  0.934858 angstrom
           Maximum rank =  0   Radius =  0.325 angstrom
                   Q00  =   0.055579

H          x = -0.653948  y =  3.511594  z = -0.123142 angstrom
           Maximum rank =  0   Radius =  0.325 angstrom
                   Q00  =   0.063166

H          x = -2.404400  y = -1.313603  z =  1.909267 angstrom
           Maximum rank =  0   Radius =  0.325 angstrom
                   Q00  =   0.101756

C          x =  2.053052  y = -2.632406  z = -0.604142 angstrom
           Maximum rank =  0   Radius =  0.650 angstrom
                   Q00  =  -0.242875

C          x =  3.226052  y = -2.482406  z = -1.553142 angstrom
           Maximum rank =  0   Radius =  0.650 angstrom
                   Q00  =  -0.225861

H          x =  2.138052  y = -1.919406  z =  0.213858 angstrom
           Maximum rank =  0   Radius =  0.325 angstrom
                   Q00  =   0.077109

H          x =  1.122052  y = -2.481406  z = -1.149142 angstrom
           Maximum rank =  0   Radius =  0.325 angstrom
                   Q00  =   0.073345

H          x =  2.036052  y = -3.613406  z = -0.151142 angstrom
           Maximum rank =  0   Radius =  0.325 angstrom
                   Q00  =   0.083158

H          x =  3.160052  y = -1.522406  z = -2.069142 angstrom
           Maximum rank =  0   Radius =  0.325 angstrom
                   Q00  =   0.077985

H          x =  3.244734  y = -3.303724  z = -2.284639 angstrom
           Maximum rank =  0   Radius =  0.325 angstrom
                   Q00  =   0.082053

H          x =  4.138766  y = -2.518915  z = -0.940264 angstrom
           Maximum rank =  0   Radius =  0.325 angstrom
                   Q00  =   0.076293

Total multipoles referred to origin at
           x =   0.000000,  y =    0.000000,  z =    0.000000 angstrom
                   Q00  =  -0.000000

Finished at 22:4:48 on 28 Apr 2020

  DMA results are available in the Python driver through the
	  variable('DMA DISTRIBUTED MULTIPOLES')
  and
	  variable('DMA TOTAL MULTIPOLES')
  commands.

    Psi4 stopped on: Tuesday, 28 April 2020 10:04PM
    Psi4 wall time for execution: 0:01:29.36

*** Psi4 exiting successfully. Buy a developer a beer!
