                               Psi4 1.3.2 release

  ==> Input File <==

--------------------------------------------------------------------------
import numpy as np
set {scf_type pk
basis cc-pvdz
d_convergence 10
gdma_switch   0
gdma_limit    0
gdma_origin   [ 0.0,  0.0,  0.0 ]
}
molecule test {
    units Angstrom
    0 1
    --
    0 1
    C               -1.242904584565099    -1.690438405551928     1.341613938396471
    C               -2.479904584565099    -1.101438405551928     1.993613938396471
    H               -0.720904584565099    -0.923438405551928     0.774613938396471
    H               -0.574904584565099    -2.089438405551928     2.106613938396471
    H               -1.531904584565099    -2.503438405551928     0.671613938396471
    H               -2.978904584565099    -1.880438405551928     2.573613938396471
    H               -3.169234584565098    -0.708728405551928     1.231642938396471
    H               -2.218694984565099    -0.265858405551928     2.659625938396470
    C                1.067095415434901     0.607561594448072    -0.734386061603529
    C                0.192095415434901     1.231561594448072    -1.815386061603529
    C                2.534095415434901     0.998561594448072    -0.832386061603529
    H                0.687095415434901     0.900561594448072     0.246613938396471
    H                0.996095415434901    -0.477438405551928    -0.825386061603529
    H                0.631095415434901     0.988561594448072    -2.776386061603529
    H                2.935095415434902     0.662561594448072    -1.789386061603529
    H                2.629095415434901     2.084561594448072    -0.785386061603529
    H                0.167191415434901     2.327351594448072    -1.722561061603529
    H               -0.818024484565099     0.797511594448072    -1.779880061603529
    H                3.127745415434901     0.542241594448072    -0.026562061603529

}
e, wfn = energy('scf', return_wfn=True)
gdma(wfn)
dmavals = variable('DMA DISTRIBUTED MULTIPOLES')
charges = np.array(dmavals)
print(charges)
np.save('SSI-105ALA-115GLN-1-dimer.npy', np.array(charges))--------------------------------------------------------------------------

*** tstart() called on ds3
*** at Tue Apr 28 08:18:31 2020

   => Loading Basis Set <=

    Name: CC-PVDZ
    Role: ORBITAL
    Keyword: BASIS
    atoms 1-2, 9-11  entry C          line   138 file /theoryfs2/ds/metcalf/miniconda2/envs/tf2gpu/share/psi4/basis/cc-pvdz.gbs
    atoms 3-8, 12-19 entry H          line    22 file /theoryfs2/ds/metcalf/miniconda2/envs/tf2gpu/share/psi4/basis/cc-pvdz.gbs

         ---------------------------------------------------------
                                   SCF
               by Justin Turney, Rob Parrish, Andy Simmonett
                          and Daniel G. A. Smith
                              RHF Reference
                        1 Threads,    500 MiB Core
         ---------------------------------------------------------

  ==> Geometry <==

    Molecular point group: c1
    Full point group: C1

    Geometry (in Angstrom), charge = 0, multiplicity = 1:

       Center              X                  Y                   Z               Mass
    ------------   -----------------  -----------------  -----------------  -----------------
         C           -1.242904584565    -1.690438405552     1.341613938396    12.000000000000
         C           -2.479904584565    -1.101438405552     1.993613938396    12.000000000000
         H           -0.720904584565    -0.923438405552     0.774613938396     1.007825032230
         H           -0.574904584565    -2.089438405552     2.106613938396     1.007825032230
         H           -1.531904584565    -2.503438405552     0.671613938396     1.007825032230
         H           -2.978904584565    -1.880438405552     2.573613938396     1.007825032230
         H           -3.169234584565    -0.708728405552     1.231642938396     1.007825032230
         H           -2.218694984565    -0.265858405552     2.659625938396     1.007825032230
         C            1.067095415435     0.607561594448    -0.734386061604    12.000000000000
         C            0.192095415435     1.231561594448    -1.815386061604    12.000000000000
         C            2.534095415435     0.998561594448    -0.832386061604    12.000000000000
         H            0.687095415435     0.900561594448     0.246613938396     1.007825032230
         H            0.996095415435    -0.477438405552    -0.825386061604     1.007825032230
         H            0.631095415435     0.988561594448    -2.776386061604     1.007825032230
         H            2.935095415435     0.662561594448    -1.789386061604     1.007825032230
         H            2.629095415435     2.084561594448    -0.785386061604     1.007825032230
         H            0.167191415435     2.327351594448    -1.722561061604     1.007825032230
         H           -0.818024484565     0.797511594448    -1.779880061604     1.007825032230
         H            3.127745415435     0.542241594448    -0.026562061604     1.007825032230

  Running in c1 symmetry.

  Rotational constants: A =      0.23176  B =      0.03689  C =      0.03379 [cm^-1]
  Rotational constants: A =   6947.86862  B =   1105.84229  C =   1013.11060 [MHz]
  Nuclear repulsion =  176.093321335630094

  Charge       = 0
  Multiplicity = 1
  Electrons    = 44
  Nalpha       = 22
  Nbeta        = 22

  ==> Algorithm <==

  SCF Algorithm Type is PK.
  DIIS enabled.
  MOM disabled.
  Fractional occupation disabled.
  Guess Type is SAD.
  Energy threshold   = 1.00e-06
  Density threshold  = 1.00e-10
  Integral threshold = 0.00e+00

  ==> Primary Basis <==

  Basis Set: CC-PVDZ
    Blend: CC-PVDZ
    Number of shells: 72
    Number of basis function: 140
    Number of Cartesian functions: 145
    Spherical Harmonics?: true
    Max angular momentum: 2

  ==> Pre-Iterations <==

   -------------------------------------------------------
    Irrep   Nso     Nmo     Nalpha   Nbeta   Ndocc  Nsocc
   -------------------------------------------------------
     A        140     140       0       0       0       0
   -------------------------------------------------------
    Total     140     140      22      22      22       0
   -------------------------------------------------------

  ==> Integral Setup <==

  Using integral reordering PK algorithm.
  Sizing the integral batches needed.
  Building batch lookup table.
   Calculation information:
      Number of atoms:                  19
      Number of AO shells:              72
      Number of primitives:            180
      Number of atomic orbitals:       145
      Number of basis functions:       140

      Integral cutoff                 1.00e-12
      Number of threads:                 1

	Batch   1 pq = [       0,    9405] index = [             0,44231715] size =     44231715
	Batch   2 pq = [    9405,    9870] index = [      44231715,48713385] size =      4481670
  Task number: 5
  Buffer size: 11059200
  Buffer per thread: 2
  We computed 2759842 shell quartets total.
  Whereas there are 3454506 unique shell quartets.

  ==> DiskJK: Disk-Based J/K Matrices <==

    J tasked:                  Yes
    K tasked:                  Yes
    wK tasked:                  No
    Memory [MiB]:              375
    Schwarz Cutoff:          1E-12

    OpenMP threads:              1

  Minimum eigenvalue in the overlap matrix is 5.1110799095E-03.
  Using Symmetric Orthogonalization.

  SCF Guess: Superposition of Atomic Densities via on-the-fly atomic UHF.

  ==> Iterations <==

                        Total Energy        Delta E     RMS |[F,P]|

   @RHF iter SAD:  -196.39606135442546   -1.96396e+02   0.00000e+00
   @RHF iter   1:  -197.31110394006225   -9.15043e-01   3.82406e-03 DIIS
   @RHF iter   2:  -197.47231806907314   -1.61214e-01   1.65411e-03 DIIS
   @RHF iter   3:  -197.50117349611804   -2.88554e-02   3.27508e-04 DIIS
   @RHF iter   4:  -197.50342618165274   -2.25269e-03   4.95734e-05 DIIS
   @RHF iter   5:  -197.50346648207557   -4.03004e-05   1.51210e-05 DIIS
   @RHF iter   6:  -197.50347000684701   -3.52477e-06   2.45417e-06 DIIS
   @RHF iter   7:  -197.50347011544591   -1.08599e-07   4.62548e-07 DIIS
   @RHF iter   8:  -197.50347011965107   -4.20516e-09   1.21273e-07 DIIS
   @RHF iter   9:  -197.50347011991914   -2.68074e-10   3.55995e-08 DIIS
   @RHF iter  10:  -197.50347011994697   -2.78249e-11   7.76699e-09 DIIS
   @RHF iter  11:  -197.50347011994921   -2.24532e-12   1.53645e-09 DIIS
   @RHF iter  12:  -197.50347011994936   -1.42109e-13   2.91708e-10 DIIS
   @RHF iter  13:  -197.50347011995035   -9.94760e-13   5.17657e-11 DIIS
  Energy and wave function converged.

  ==> Post-Iterations <==

    Orbital Energies [Eh]
    ---------------------

    Doubly Occupied:

       1A    -11.219367     2A    -11.217832     3A    -11.217370
       4A    -11.216436     5A    -11.214427     6A     -1.056321
       7A     -1.019762     8A     -0.925624     9A     -0.834934
      10A     -0.796376    11A     -0.628244    12A     -0.603855
      13A     -0.595198    14A     -0.593807    15A     -0.550647
      16A     -0.531336    17A     -0.502604    18A     -0.488662
      19A     -0.481398    20A     -0.474629    21A     -0.468442
      22A     -0.464392

    Virtual:

      23A      0.169884    24A      0.193353    25A      0.222025
      26A      0.225587    27A      0.237159    28A      0.246357
      29A      0.252019    30A      0.263810    31A      0.276000
      32A      0.283948    33A      0.291581    34A      0.300289
      35A      0.306667    36A      0.334629    37A      0.388740
      38A      0.405530    39A      0.436951    40A      0.570786
      41A      0.594670    42A      0.600051    43A      0.607223
      44A      0.611356    45A      0.612683    46A      0.625390
      47A      0.662011    48A      0.691943    49A      0.755918
      50A      0.789808    51A      0.810075    52A      0.848761
      53A      0.862700    54A      0.881185    55A      0.886993
      56A      0.892022    57A      0.895889    58A      0.897604
      59A      0.899213    60A      0.901402    61A      0.915023
      62A      0.916327    63A      0.922535    64A      0.938943
      65A      0.946832    66A      0.972119    67A      0.976893
      68A      1.031680    69A      1.123343    70A      1.126383
      71A      1.132757    72A      1.159016    73A      1.201467
      74A      1.320268    75A      1.382272    76A      1.469588
      77A      1.475898    78A      1.483423    79A      1.488944
      80A      1.544345    81A      1.576715    82A      1.646539
      83A      1.674845    84A      1.683808    85A      1.688417
      86A      1.696490    87A      1.701562    88A      1.857079
      89A      1.863582    90A      1.878162    91A      1.879899
      92A      1.890868    93A      1.903250    94A      1.909977
      95A      1.930718    96A      1.936916    97A      1.949175
      98A      1.952060    99A      1.954231   100A      1.954580
     101A      1.962888   102A      1.977616   103A      1.988887
     104A      1.990166   105A      2.012265   106A      2.025422
     107A      2.049555   108A      2.104967   109A      2.106879
     110A      2.143133   111A      2.159929   112A      2.282862
     113A      2.303481   114A      2.307455   115A      2.317231
     116A      2.333307   117A      2.345685   118A      2.458448
     119A      2.464317   120A      2.509445   121A      2.532715
     122A      2.558811   123A      2.574796   124A      2.593212
     125A      2.614845   126A      2.628165   127A      2.745734
     128A      2.758463   129A      2.768901   130A      2.785860
     131A      2.798242   132A      2.814467   133A      2.850281
     134A      2.871895   135A      2.917852   136A      2.951324
     137A      2.956233   138A      2.973815   139A      3.006405
     140A      3.057919

    Final Occupation by Irrep:
              A
    DOCC [    22 ]

  @RHF Final Energy:  -197.50347011995035

   => Energetics <=

    Nuclear Repulsion Energy =            176.0933213356300939
    One-Electron Energy =                -612.9902553724665495
    Two-Electron Energy =                 239.3934639168861054
    Total Energy =                       -197.5034701199503502

Computation Completed

Properties will be evaluated at   0.000000,   0.000000,   0.000000 [a0]

Properties computed using the SCF density matrix

  Nuclear Dipole Moment: [e a0]
     X:    -0.7867      Y:    -0.5113      Z:     0.5238

  Electronic Dipole Moment: [e a0]
     X:     0.8091      Y:     0.4968      Z:    -0.5311

  Dipole Moment: [e a0]
     X:     0.0224      Y:    -0.0145      Z:    -0.0072     Total:     0.0277

  Dipole Moment: [D]
     X:     0.0570      Y:    -0.0369      Z:    -0.0183     Total:     0.0703

*** tstop() called on ds3 at Tue Apr 28 08:18:51 2020
Module time:
	user time   =      14.24 seconds =       0.24 minutes
	system time =       6.21 seconds =       0.10 minutes
	total time  =         20 seconds =       0.33 minutes
Total time:
	user time   =      14.24 seconds =       0.24 minutes
	system time =       6.21 seconds =       0.10 minutes
	total time  =         20 seconds =       0.33 minutes
                                     G D M A

                                 by Anthony Stone

                           version 2.2.06, 22 June 2011

               Distributed Multipoles from Gaussian wavefunctions

Starting at 8:18:51 on 28 Apr 2020

Using SCF density matrix from file ./SSI/SSI-105ALA-115GLN-1-dimer.test.13226.fchk

                         Distributed Multipole Analysis

Standard DMA

Positions and radii in angstrom
Multipole moments in atomic units, ea_0^k for rank k

C          x = -1.242905  y = -1.690438  z =  1.341614 angstrom
           Maximum rank =  0   Radius =  0.650 angstrom
                   Q00  =  -0.236515

C          x = -2.479905  y = -1.101438  z =  1.993614 angstrom
           Maximum rank =  0   Radius =  0.650 angstrom
                   Q00  =  -0.236109

H          x = -0.720905  y = -0.923438  z =  0.774614 angstrom
           Maximum rank =  0   Radius =  0.325 angstrom
                   Q00  =   0.088124

H          x = -0.574905  y = -2.089438  z =  2.106614 angstrom
           Maximum rank =  0   Radius =  0.325 angstrom
                   Q00  =   0.077147

H          x = -1.531905  y = -2.503438  z =  0.671614 angstrom
           Maximum rank =  0   Radius =  0.325 angstrom
                   Q00  =   0.076212

H          x = -2.978905  y = -1.880438  z =  2.573614 angstrom
           Maximum rank =  0   Radius =  0.325 angstrom
                   Q00  =   0.078238

H          x = -3.169235  y = -0.708728  z =  1.231643 angstrom
           Maximum rank =  0   Radius =  0.325 angstrom
                   Q00  =   0.075905

H          x = -2.218695  y = -0.265858  z =  2.659626 angstrom
           Maximum rank =  0   Radius =  0.325 angstrom
                   Q00  =   0.076279

C          x =  1.067095  y =  0.607562  z = -0.734386 angstrom
           Maximum rank =  0   Radius =  0.650 angstrom
                   Q00  =  -0.082173

C          x =  0.192095  y =  1.231562  z = -1.815386 angstrom
           Maximum rank =  0   Radius =  0.650 angstrom
                   Q00  =  -0.239297

C          x =  2.534095  y =  0.998562  z = -0.832386 angstrom
           Maximum rank =  0   Radius =  0.650 angstrom
                   Q00  =  -0.237009

H          x =  0.687095  y =  0.900562  z =  0.246614 angstrom
           Maximum rank =  0   Radius =  0.325 angstrom
                   Q00  =   0.041959

H          x =  0.996095  y = -0.477438  z = -0.825386 angstrom
           Maximum rank =  0   Radius =  0.325 angstrom
                   Q00  =   0.044078

H          x =  0.631095  y =  0.988562  z = -2.776386 angstrom
           Maximum rank =  0   Radius =  0.325 angstrom
                   Q00  =   0.074394

H          x =  2.935095  y =  0.662562  z = -1.789386 angstrom
           Maximum rank =  0   Radius =  0.325 angstrom
                   Q00  =   0.075823

H          x =  2.629095  y =  2.084562  z = -0.785386 angstrom
           Maximum rank =  0   Radius =  0.325 angstrom
                   Q00  =   0.075700

H          x =  0.167191  y =  2.327352  z = -1.722561 angstrom
           Maximum rank =  0   Radius =  0.325 angstrom
                   Q00  =   0.077149

H          x = -0.818024  y =  0.797512  z = -1.779880 angstrom
           Maximum rank =  0   Radius =  0.325 angstrom
                   Q00  =   0.084779

H          x =  3.127745  y =  0.542242  z = -0.026562 angstrom
           Maximum rank =  0   Radius =  0.325 angstrom
                   Q00  =   0.085317

Total multipoles referred to origin at
           x =   0.000000,  y =    0.000000,  z =    0.000000 angstrom
                   Q00  =  -0.000000

Finished at 8:18:51 on 28 Apr 2020

  DMA results are available in the Python driver through the
	  variable('DMA DISTRIBUTED MULTIPOLES')
  and
	  variable('DMA TOTAL MULTIPOLES')
  commands.

    Psi4 stopped on: Tuesday, 28 April 2020 08:18AM
    Psi4 wall time for execution: 0:00:20.41

*** Psi4 exiting successfully. Buy a developer a beer!
