                               Psi4 1.3.2 release

  ==> Input File <==

--------------------------------------------------------------------------
import numpy as np
set {scf_type pk
basis cc-pvdz
d_convergence 10
gdma_switch   0
gdma_limit    0
gdma_origin   [ 0.0,  0.0,  0.0 ]
}
molecule test {
    units Angstrom
    0 1
    --
    0 1
    C                0.863314330527184     1.955778395900871    -0.002349445787554
    C                0.965314330527184     1.817778395900871    -1.519349445787554
    H                0.136314330527184     1.253778395900871     0.394650554212446
    H                1.836314330527184     1.747778395900871     0.445650554212446
    H                0.565314330527184     2.971778395900871     0.259650554212446
    H                1.338314330527184     0.819778395900871    -1.742349445787553
    H               -0.053575669472816     1.932418395900871    -1.917735445787554
    H                1.662994330527184     2.561328395900871    -1.932121445787554
    C               -1.167685669472816    -1.175221604099129     0.878650554212446
    C               -0.655685669472816    -2.597221604099129     0.638650554212446
    H               -1.346685669472816    -0.670221604099129    -0.070349445787554
    H               -2.097685669472816    -1.208221604099129     1.442650554212446
    H               -0.433685669472816    -0.629221604099129     1.470650554212446
    H               -0.413685669472816    -3.065221604099129     1.587650554212446
    H                0.209844330527184    -2.566591604099129    -0.039524445787554
    H               -1.466375669472816    -3.160641604099129     0.153540554212446

}
e, wfn = energy('scf', return_wfn=True)
gdma(wfn)
dmavals = variable('DMA DISTRIBUTED MULTIPOLES')
charges = np.array(dmavals)
print(charges)
np.save('SSI-162LEU-201LEU-1-dimer.npy', np.array(charges))--------------------------------------------------------------------------

*** tstart() called on ds3
*** at Tue Apr 28 00:03:07 2020

   => Loading Basis Set <=

    Name: CC-PVDZ
    Role: ORBITAL
    Keyword: BASIS
    atoms 1-2, 9-10  entry C          line   138 file /theoryfs2/ds/metcalf/miniconda2/envs/tf2gpu/share/psi4/basis/cc-pvdz.gbs
    atoms 3-8, 11-16 entry H          line    22 file /theoryfs2/ds/metcalf/miniconda2/envs/tf2gpu/share/psi4/basis/cc-pvdz.gbs

         ---------------------------------------------------------
                                   SCF
               by Justin Turney, Rob Parrish, Andy Simmonett
                          and Daniel G. A. Smith
                              RHF Reference
                        1 Threads,    500 MiB Core
         ---------------------------------------------------------

  ==> Geometry <==

    Molecular point group: c1
    Full point group: C1

    Geometry (in Angstrom), charge = 0, multiplicity = 1:

       Center              X                  Y                   Z               Mass
    ------------   -----------------  -----------------  -----------------  -----------------
         C            0.863314330527     1.955778395901    -0.002349445788    12.000000000000
         C            0.965314330527     1.817778395901    -1.519349445788    12.000000000000
         H            0.136314330527     1.253778395901     0.394650554212     1.007825032230
         H            1.836314330527     1.747778395901     0.445650554212     1.007825032230
         H            0.565314330527     2.971778395901     0.259650554212     1.007825032230
         H            1.338314330527     0.819778395901    -1.742349445788     1.007825032230
         H           -0.053575669473     1.932418395901    -1.917735445788     1.007825032230
         H            1.662994330527     2.561328395901    -1.932121445788     1.007825032230
         C           -1.167685669473    -1.175221604099     0.878650554212    12.000000000000
         C           -0.655685669473    -2.597221604099     0.638650554212    12.000000000000
         H           -1.346685669473    -0.670221604099    -0.070349445788     1.007825032230
         H           -2.097685669473    -1.208221604099     1.442650554212     1.007825032230
         H           -0.433685669473    -0.629221604099     1.470650554212     1.007825032230
         H           -0.413685669473    -3.065221604099     1.587650554212     1.007825032230
         H            0.209844330527    -2.566591604099    -0.039524445788     1.007825032230
         H           -1.466375669473    -3.160641604099     0.153540554212     1.007825032230

  Running in c1 symmetry.

  Rotational constants: A =      0.40601  B =      0.05181  C =      0.04923 [cm^-1]
  Rotational constants: A =  12171.95221  B =   1553.18101  C =   1475.86342 [MHz]
  Nuclear repulsion =  122.738278942690826

  Charge       = 0
  Multiplicity = 1
  Electrons    = 36
  Nalpha       = 18
  Nbeta        = 18

  ==> Algorithm <==

  SCF Algorithm Type is PK.
  DIIS enabled.
  MOM disabled.
  Fractional occupation disabled.
  Guess Type is SAD.
  Energy threshold   = 1.00e-06
  Density threshold  = 1.00e-10
  Integral threshold = 0.00e+00

  ==> Primary Basis <==

  Basis Set: CC-PVDZ
    Blend: CC-PVDZ
    Number of shells: 60
    Number of basis function: 116
    Number of Cartesian functions: 120
    Spherical Harmonics?: true
    Max angular momentum: 2

  ==> Pre-Iterations <==

   -------------------------------------------------------
    Irrep   Nso     Nmo     Nalpha   Nbeta   Ndocc  Nsocc
   -------------------------------------------------------
     A        116     116       0       0       0       0
   -------------------------------------------------------
    Total     116     116      18      18      18       0
   -------------------------------------------------------

  ==> Integral Setup <==

  Using integral reordering PK algorithm.
  Sizing the integral batches needed.
  Building batch lookup table.
   Calculation information:
      Number of atoms:                  16
      Number of AO shells:              60
      Number of primitives:            148
      Number of atomic orbitals:       120
      Number of basis functions:       116

      Integral cutoff                 1.00e-12
      Number of threads:                 1

	Batch   1 pq = [       0,    6786] index = [             0,23028291] size =     23028291
  Task number: 3
  Buffer size: 11059200
  Buffer per thread: 2
  We computed 1461080 shell quartets total.
  Whereas there are 1675365 unique shell quartets.

  ==> DiskJK: Disk-Based J/K Matrices <==

    J tasked:                  Yes
    K tasked:                  Yes
    wK tasked:                  No
    Memory [MiB]:              375
    Schwarz Cutoff:          1E-12

    OpenMP threads:              1

  Minimum eigenvalue in the overlap matrix is 7.1391936234E-03.
  Using Symmetric Orthogonalization.

  SCF Guess: Superposition of Atomic Densities via on-the-fly atomic UHF.

  ==> Iterations <==

                        Total Energy        Delta E     RMS |[F,P]|

   @RHF iter SAD:  -157.36807480425728   -1.57368e+02   0.00000e+00
   @RHF iter   1:  -158.30549900940184   -9.37424e-01   4.21831e-03 DIIS
   @RHF iter   2:  -158.43903191286557   -1.33533e-01   1.79256e-03 DIIS
   @RHF iter   3:  -158.46237338539703   -2.33415e-02   3.50399e-04 DIIS
   @RHF iter   4:  -158.46420955474872   -1.83617e-03   3.92779e-05 DIIS
   @RHF iter   5:  -158.46423422929323   -2.46745e-05   6.73450e-06 DIIS
   @RHF iter   6:  -158.46423491490495   -6.85612e-07   1.07578e-06 DIIS
   @RHF iter   7:  -158.46423492672039   -1.18154e-08   3.21857e-07 DIIS
   @RHF iter   8:  -158.46423492761539   -8.95000e-10   3.96988e-08 DIIS
   @RHF iter   9:  -158.46423492763995   -2.45564e-11   7.30231e-09 DIIS
   @RHF iter  10:  -158.46423492764060   -6.53699e-13   1.80682e-09 DIIS
   @RHF iter  11:  -158.46423492764066   -5.68434e-14   3.33817e-10 DIIS
   @RHF iter  12:  -158.46423492764077   -1.13687e-13   6.96814e-11 DIIS
  Energy and wave function converged.

  ==> Post-Iterations <==

    Orbital Energies [Eh]
    ---------------------

    Doubly Occupied:

       1A    -11.219869     2A    -11.218481     3A    -11.217253
       4A    -11.213252     5A     -1.020916     6A     -1.017909
       7A     -0.838287     8A     -0.832360     9A     -0.606296
      10A     -0.602526    11A     -0.599242    12A     -0.593023
      13A     -0.503154    14A     -0.495784    15A     -0.491744
      16A     -0.488589    17A     -0.483115    18A     -0.476083

    Virtual:

      19A      0.167245    20A      0.201318    21A      0.225736
      22A      0.232995    23A      0.246667    24A      0.259852
      25A      0.263488    26A      0.271228    27A      0.280991
      28A      0.293600    29A      0.309350    30A      0.337683
      31A      0.389840    32A      0.405723    33A      0.579960
      34A      0.601067    35A      0.604129    36A      0.612191
      37A      0.618749    38A      0.625393    39A      0.665734
      40A      0.679729    41A      0.692850    42A      0.789493
      43A      0.839944    44A      0.857117    45A      0.880418
      46A      0.886726    47A      0.888010    48A      0.895246
      49A      0.899301    50A      0.906116    51A      0.909906
      52A      0.930355    53A      0.936837    54A      0.954564
      55A      0.967356    56A      1.002916    57A      1.120351
      58A      1.121350    59A      1.133236    60A      1.169081
      61A      1.234270    62A      1.316657    63A      1.468253
      64A      1.477706    65A      1.489634    66A      1.493896
      67A      1.547376    68A      1.581417    69A      1.672725
      70A      1.673888    71A      1.684346    72A      1.706111
      73A      1.842487    74A      1.853879    75A      1.867343
      76A      1.879971    77A      1.898278    78A      1.915840
      79A      1.933644    80A      1.939758    81A      1.947376
      82A      1.948031    83A      1.956417    84A      1.963431
      85A      1.970751    86A      1.972447    87A      1.980369
      88A      2.016378    89A      2.097682    90A      2.098139
      91A      2.131426    92A      2.144000    93A      2.278737
      94A      2.288066    95A      2.304945    96A      2.317505
      97A      2.444702    98A      2.455388    99A      2.470816
     100A      2.487791   101A      2.565413   102A      2.569615
     103A      2.580192   104A      2.589412   105A      2.765225
     106A      2.765959   107A      2.793342   108A      2.798345
     109A      2.821855   110A      2.831684   111A      2.852142
     112A      2.864261   113A      2.939819   114A      2.960145
     115A      2.969971   116A      2.978500

    Final Occupation by Irrep:
              A
    DOCC [    18 ]

  @RHF Final Energy:  -158.46423492764077

   => Energetics <=

    Nuclear Repulsion Energy =            122.7382789426908261
    One-Electron Energy =                -454.5692582425009505
    Two-Electron Energy =                 173.3667443721693360
    Total Energy =                       -158.4642349276407742

Computation Completed

Properties will be evaluated at   0.000000,   0.000000,   0.000000 [a0]

Properties computed using the SCF density matrix

  Nuclear Dipole Moment: [e a0]
     X:    -0.0587      Y:    -0.0124      Z:     0.0491

  Electronic Dipole Moment: [e a0]
     X:     0.0367      Y:    -0.0170      Z:    -0.0207

  Dipole Moment: [e a0]
     X:    -0.0220      Y:    -0.0294      Z:     0.0284     Total:     0.0464

  Dipole Moment: [D]
     X:    -0.0560      Y:    -0.0747      Z:     0.0722     Total:     0.1180

*** tstop() called on ds3 at Tue Apr 28 00:03:18 2020
Module time:
	user time   =       8.02 seconds =       0.13 minutes
	system time =       2.87 seconds =       0.05 minutes
	total time  =         11 seconds =       0.18 minutes
Total time:
	user time   =       8.02 seconds =       0.13 minutes
	system time =       2.87 seconds =       0.05 minutes
	total time  =         11 seconds =       0.18 minutes
                                     G D M A

                                 by Anthony Stone

                           version 2.2.06, 22 June 2011

               Distributed Multipoles from Gaussian wavefunctions

Starting at 0:3:18 on 28 Apr 2020

Using SCF density matrix from file ./SSI/SSI-162LEU-201LEU-1-dimer.test.4753.fchk

                         Distributed Multipole Analysis

Standard DMA

Positions and radii in angstrom
Multipole moments in atomic units, ea_0^k for rank k

C          x =  0.863314  y =  1.955778  z = -0.002349 angstrom
           Maximum rank =  0   Radius =  0.650 angstrom
                   Q00  =  -0.244500

C          x =  0.965314  y =  1.817778  z = -1.519349 angstrom
           Maximum rank =  0   Radius =  0.650 angstrom
                   Q00  =  -0.231293

H          x =  0.136314  y =  1.253778  z =  0.394651 angstrom
           Maximum rank =  0   Radius =  0.325 angstrom
                   Q00  =   0.092770

H          x =  1.836314  y =  1.747778  z =  0.445651 angstrom
           Maximum rank =  0   Radius =  0.325 angstrom
                   Q00  =   0.073608

H          x =  0.565314  y =  2.971778  z =  0.259651 angstrom
           Maximum rank =  0   Radius =  0.325 angstrom
                   Q00  =   0.076521

H          x =  1.338314  y =  0.819778  z = -1.742349 angstrom
           Maximum rank =  0   Radius =  0.325 angstrom
                   Q00  =   0.076735

H          x = -0.053576  y =  1.932418  z = -1.917735 angstrom
           Maximum rank =  0   Radius =  0.325 angstrom
                   Q00  =   0.075114

H          x =  1.662994  y =  2.561328  z = -1.932121 angstrom
           Maximum rank =  0   Radius =  0.325 angstrom
                   Q00  =   0.081538

C          x = -1.167686  y = -1.175222  z =  0.878651 angstrom
           Maximum rank =  0   Radius =  0.650 angstrom
                   Q00  =  -0.249412

C          x = -0.655686  y = -2.597222  z =  0.638651 angstrom
           Maximum rank =  0   Radius =  0.650 angstrom
                   Q00  =  -0.223209

H          x = -1.346686  y = -0.670222  z = -0.070349 angstrom
           Maximum rank =  0   Radius =  0.325 angstrom
                   Q00  =   0.078945

H          x = -2.097686  y = -1.208222  z =  1.442651 angstrom
           Maximum rank =  0   Radius =  0.325 angstrom
                   Q00  =   0.079388

H          x = -0.433686  y = -0.629222  z =  1.470651 angstrom
           Maximum rank =  0   Radius =  0.325 angstrom
                   Q00  =   0.077186

H          x = -0.413686  y = -3.065222  z =  1.587651 angstrom
           Maximum rank =  0   Radius =  0.325 angstrom
                   Q00  =   0.083251

H          x =  0.209844  y = -2.566592  z = -0.039524 angstrom
           Maximum rank =  0   Radius =  0.325 angstrom
                   Q00  =   0.078701

H          x = -1.466376  y = -3.160642  z =  0.153541 angstrom
           Maximum rank =  0   Radius =  0.325 angstrom
                   Q00  =   0.074657

Total multipoles referred to origin at
           x =   0.000000,  y =    0.000000,  z =    0.000000 angstrom
                   Q00  =  -0.000000

Finished at 0:3:18 on 28 Apr 2020

  DMA results are available in the Python driver through the
	  variable('DMA DISTRIBUTED MULTIPOLES')
  and
	  variable('DMA TOTAL MULTIPOLES')
  commands.

    Psi4 stopped on: Tuesday, 28 April 2020 12:03AM
    Psi4 wall time for execution: 0:00:10.72

*** Psi4 exiting successfully. Buy a developer a beer!
