                               Psi4 1.3.2 release

  ==> Input File <==

--------------------------------------------------------------------------
import numpy as np
set {scf_type pk
basis cc-pvdz
d_convergence 10
gdma_switch   0
gdma_limit    0
gdma_origin   [ 0.0,  0.0,  0.0 ]
}
molecule test {
    units Angstrom
    0 1
    --
    0 1
    C               -0.793952211264793    -1.726535492838241     0.264355832135395
    C               -0.588952211264793    -3.067535492838242    -0.415644167864606
    H               -0.776952211264793    -1.825535492838241     1.346355832135395
    H                0.011047788735207    -1.057535492838241    -0.032644167864605
    H               -1.749952211264793    -1.293535492838241    -0.035644167864605
    H                0.418047788735207    -3.414535492838242    -0.182644167864605
    H               -1.320302211264794    -3.795315492838242    -0.034254167864606
    H               -0.663302211264793    -2.952045492838242    -1.507034167864606
    C                0.696047788735207     1.633464507161759     0.120355832135394
    C                0.690047788735207     3.158464507161758     0.028355832135395
    H                1.400047788735207     1.281464507161759     0.871355832135394
    H               -0.301952211264793     1.297464507161759     0.400355832135394
    H                0.954047788735207     1.203464507161759    -0.847644167864606
    H                0.441047788735207     3.569464507161758     1.007355832135394
    H               -0.105952211264793     3.445464507161758    -0.651644167864606
    H                1.656177788735207     3.566684507161758    -0.303234167864606

}
e, wfn = energy('scf', return_wfn=True)
gdma(wfn)
dmavals = variable('DMA DISTRIBUTED MULTIPOLES')
charges = np.array(dmavals)
print(charges)
np.save('SSI-079VAL-094ILE-1-dimer.npy', np.array(charges))--------------------------------------------------------------------------

*** tstart() called on ds3
*** at Tue Apr 28 14:09:55 2020

   => Loading Basis Set <=

    Name: CC-PVDZ
    Role: ORBITAL
    Keyword: BASIS
    atoms 1-2, 9-10  entry C          line   138 file /theoryfs2/ds/metcalf/miniconda2/envs/tf2gpu/share/psi4/basis/cc-pvdz.gbs
    atoms 3-8, 11-16 entry H          line    22 file /theoryfs2/ds/metcalf/miniconda2/envs/tf2gpu/share/psi4/basis/cc-pvdz.gbs

         ---------------------------------------------------------
                                   SCF
               by Justin Turney, Rob Parrish, Andy Simmonett
                          and Daniel G. A. Smith
                              RHF Reference
                        1 Threads,    500 MiB Core
         ---------------------------------------------------------

  ==> Geometry <==

    Molecular point group: c1
    Full point group: C1

    Geometry (in Angstrom), charge = 0, multiplicity = 1:

       Center              X                  Y                   Z               Mass
    ------------   -----------------  -----------------  -----------------  -----------------
         C           -0.793952211265    -1.726535492838     0.264355832135    12.000000000000
         C           -0.588952211265    -3.067535492838    -0.415644167865    12.000000000000
         H           -0.776952211265    -1.825535492838     1.346355832135     1.007825032230
         H            0.011047788735    -1.057535492838    -0.032644167865     1.007825032230
         H           -1.749952211265    -1.293535492838    -0.035644167865     1.007825032230
         H            0.418047788735    -3.414535492838    -0.182644167865     1.007825032230
         H           -1.320302211265    -3.795315492838    -0.034254167865     1.007825032230
         H           -0.663302211265    -2.952045492838    -1.507034167865     1.007825032230
         C            0.696047788735     1.633464507162     0.120355832135    12.000000000000
         C            0.690047788735     3.158464507162     0.028355832135    12.000000000000
         H            1.400047788735     1.281464507162     0.871355832135     1.007825032230
         H           -0.301952211265     1.297464507162     0.400355832135     1.007825032230
         H            0.954047788735     1.203464507162    -0.847644167865     1.007825032230
         H            0.441047788735     3.569464507162     1.007355832135     1.007825032230
         H           -0.105952211265     3.445464507162    -0.651644167865     1.007825032230
         H            1.656177788735     3.566684507162    -0.303234167865     1.007825032230

  Running in c1 symmetry.

  Rotational constants: A =      0.84848  B =      0.04038  C =      0.03992 [cm^-1]
  Rotational constants: A =  25436.68853  B =   1210.54876  C =   1196.85671 [MHz]
  Nuclear repulsion =  120.454781615501247

  Charge       = 0
  Multiplicity = 1
  Electrons    = 36
  Nalpha       = 18
  Nbeta        = 18

  ==> Algorithm <==

  SCF Algorithm Type is PK.
  DIIS enabled.
  MOM disabled.
  Fractional occupation disabled.
  Guess Type is SAD.
  Energy threshold   = 1.00e-06
  Density threshold  = 1.00e-10
  Integral threshold = 0.00e+00

  ==> Primary Basis <==

  Basis Set: CC-PVDZ
    Blend: CC-PVDZ
    Number of shells: 60
    Number of basis function: 116
    Number of Cartesian functions: 120
    Spherical Harmonics?: true
    Max angular momentum: 2

  ==> Pre-Iterations <==

   -------------------------------------------------------
    Irrep   Nso     Nmo     Nalpha   Nbeta   Ndocc  Nsocc
   -------------------------------------------------------
     A        116     116       0       0       0       0
   -------------------------------------------------------
    Total     116     116      18      18      18       0
   -------------------------------------------------------

  ==> Integral Setup <==

  Using integral reordering PK algorithm.
  Sizing the integral batches needed.
  Building batch lookup table.
   Calculation information:
      Number of atoms:                  16
      Number of AO shells:              60
      Number of primitives:            148
      Number of atomic orbitals:       120
      Number of basis functions:       116

      Integral cutoff                 1.00e-12
      Number of threads:                 1

	Batch   1 pq = [       0,    6786] index = [             0,23028291] size =     23028291
  Task number: 3
  Buffer size: 11059200
  Buffer per thread: 2
  We computed 1353969 shell quartets total.
  Whereas there are 1675365 unique shell quartets.

  ==> DiskJK: Disk-Based J/K Matrices <==

    J tasked:                  Yes
    K tasked:                  Yes
    wK tasked:                  No
    Memory [MiB]:              375
    Schwarz Cutoff:          1E-12

    OpenMP threads:              1

  Minimum eigenvalue in the overlap matrix is 5.6789417431E-03.
  Using Symmetric Orthogonalization.

  SCF Guess: Superposition of Atomic Densities via on-the-fly atomic UHF.

  ==> Iterations <==

                        Total Energy        Delta E     RMS |[F,P]|

   @RHF iter SAD:  -157.38493151797826   -1.57385e+02   0.00000e+00
   @RHF iter   1:  -158.30552187970102   -9.20590e-01   4.23596e-03 DIIS
   @RHF iter   2:  -158.44004753928641   -1.34526e-01   1.80245e-03 DIIS
   @RHF iter   3:  -158.46361416036729   -2.35666e-02   3.52075e-04 DIIS
   @RHF iter   4:  -158.46547315965614   -1.85900e-03   3.97160e-05 DIIS
   @RHF iter   5:  -158.46549819576390   -2.50361e-05   7.10924e-06 DIIS
   @RHF iter   6:  -158.46549892302843   -7.27265e-07   1.38072e-06 DIIS
   @RHF iter   7:  -158.46549894143106   -1.84026e-08   3.46711e-07 DIIS
   @RHF iter   8:  -158.46549894266315   -1.23208e-09   5.06728e-08 DIIS
   @RHF iter   9:  -158.46549894271030   -4.71516e-11   1.14998e-08 DIIS
   @RHF iter  10:  -158.46549894271283   -2.52953e-12   3.31037e-09 DIIS
   @RHF iter  11:  -158.46549894271260    2.27374e-13   8.89764e-10 DIIS
   @RHF iter  12:  -158.46549894271243    1.70530e-13   1.73984e-10 DIIS
   @RHF iter  13:  -158.46549894271249   -5.68434e-14   2.99172e-11 DIIS
  Energy and wave function converged.

  ==> Post-Iterations <==

    Orbital Energies [Eh]
    ---------------------

    Doubly Occupied:

       1A    -11.217509     2A    -11.217394     3A    -11.216033
       4A    -11.213249     5A     -1.020974     6A     -1.018384
       7A     -0.840017     8A     -0.831805     9A     -0.601653
      10A     -0.598751    11A     -0.597565    12A     -0.597005
      13A     -0.507082    14A     -0.497970    15A     -0.488335
      16A     -0.485065    17A     -0.481948    18A     -0.479009

    Virtual:

      19A      0.178461    20A      0.192719    21A      0.224865
      22A      0.234689    23A      0.248023    24A      0.259587
      25A      0.265371    26A      0.274665    27A      0.282750
      28A      0.288948    29A      0.296595    30A      0.323548
      31A      0.410370    32A      0.418236    33A      0.586591
      34A      0.592312    35A      0.597916    36A      0.603832
      37A      0.607089    38A      0.653551    39A      0.658658
      40A      0.688862    41A      0.706334    42A      0.755066
      43A      0.858012    44A      0.880472    45A      0.889048
      46A      0.893382    47A      0.895378    48A      0.897616
      49A      0.902236    50A      0.905026    51A      0.911951
      52A      0.919188    53A      0.940082    54A      0.948755
      55A      0.978217    56A      1.023018    57A      1.124921
      58A      1.126518    59A      1.130489    60A      1.143262
      61A      1.227964    62A      1.267846    63A      1.464585
      64A      1.477521    65A      1.482210    66A      1.489880
      67A      1.577836    68A      1.601493    69A      1.678047
      70A      1.682401    71A      1.695450    72A      1.695965
      73A      1.843970    74A      1.851102    75A      1.862026
      76A      1.887717    77A      1.891023    78A      1.922356
      79A      1.939568    80A      1.939795    81A      1.947269
      82A      1.956265    83A      1.956907    84A      1.958563
      85A      1.960093    86A      1.963584    87A      2.009045
      88A      2.053271    89A      2.095528    90A      2.116946
      91A      2.121094    92A      2.129123    93A      2.295823
      94A      2.304934    95A      2.321307    96A      2.346980
      97A      2.450855    98A      2.452705    99A      2.471564
     100A      2.479718   101A      2.565826   102A      2.568112
     103A      2.577326   104A      2.590176   105A      2.754198
     106A      2.767281   107A      2.785475   108A      2.822287
     109A      2.846419   110A      2.850621   111A      2.862530
     112A      2.869088   113A      2.944686   114A      2.956253
     115A      2.957512   116A      2.979494

    Final Occupation by Irrep:
              A
    DOCC [    18 ]

  @RHF Final Energy:  -158.46549894271249

   => Energetics <=

    Nuclear Repulsion Energy =            120.4547816155012470
    One-Electron Energy =                -450.0210675962397318
    Two-Electron Energy =                 171.1007870380259988
    Total Energy =                       -158.4654989427124860

Computation Completed

Properties will be evaluated at   0.000000,   0.000000,   0.000000 [a0]

Properties computed using the SCF density matrix

  Nuclear Dipole Moment: [e a0]
     X:    -0.0356      Y:     0.0239      Z:     0.0288

  Electronic Dipole Moment: [e a0]
     X:     0.0367      Y:    -0.0072      Z:    -0.0183

  Dipole Moment: [e a0]
     X:     0.0011      Y:     0.0167      Z:     0.0105     Total:     0.0198

  Dipole Moment: [D]
     X:     0.0028      Y:     0.0425      Z:     0.0266     Total:     0.0503

*** tstop() called on ds3 at Tue Apr 28 14:10:06 2020
Module time:
	user time   =       8.03 seconds =       0.13 minutes
	system time =       3.22 seconds =       0.05 minutes
	total time  =         11 seconds =       0.18 minutes
Total time:
	user time   =       8.03 seconds =       0.13 minutes
	system time =       3.22 seconds =       0.05 minutes
	total time  =         11 seconds =       0.18 minutes
                                     G D M A

                                 by Anthony Stone

                           version 2.2.06, 22 June 2011

               Distributed Multipoles from Gaussian wavefunctions

Starting at 14:10:6 on 28 Apr 2020

Using SCF density matrix from file ./SSI/SSI-079VAL-094ILE-1-dimer.test.31356.fchk

                         Distributed Multipole Analysis

Standard DMA

Positions and radii in angstrom
Multipole moments in atomic units, ea_0^k for rank k

C          x = -0.793952  y = -1.726535  z =  0.264356 angstrom
           Maximum rank =  0   Radius =  0.650 angstrom
                   Q00  =  -0.232322

C          x = -0.588952  y = -3.067535  z = -0.415644 angstrom
           Maximum rank =  0   Radius =  0.650 angstrom
                   Q00  =  -0.238073

H          x = -0.776952  y = -1.825535  z =  1.346356 angstrom
           Maximum rank =  0   Radius =  0.325 angstrom
                   Q00  =   0.078852

H          x =  0.011048  y = -1.057535  z = -0.032644 angstrom
           Maximum rank =  0   Radius =  0.325 angstrom
                   Q00  =   0.081774

H          x = -1.749952  y = -1.293535  z = -0.035644 angstrom
           Maximum rank =  0   Radius =  0.325 angstrom
                   Q00  =   0.074844

H          x =  0.418048  y = -3.414535  z = -0.182644 angstrom
           Maximum rank =  0   Radius =  0.325 angstrom
                   Q00  =   0.076189

H          x = -1.320302  y = -3.795315  z = -0.034254 angstrom
           Maximum rank =  0   Radius =  0.325 angstrom
                   Q00  =   0.077728

H          x = -0.663302  y = -2.952045  z = -1.507034 angstrom
           Maximum rank =  0   Radius =  0.325 angstrom
                   Q00  =   0.078319

C          x =  0.696048  y =  1.633465  z =  0.120356 angstrom
           Maximum rank =  0   Radius =  0.650 angstrom
                   Q00  =  -0.245470

C          x =  0.690048  y =  3.158465  z =  0.028356 angstrom
           Maximum rank =  0   Radius =  0.650 angstrom
                   Q00  =  -0.227544

H          x =  1.400048  y =  1.281465  z =  0.871356 angstrom
           Maximum rank =  0   Radius =  0.325 angstrom
                   Q00  =   0.079572

H          x = -0.301952  y =  1.297465  z =  0.400356 angstrom
           Maximum rank =  0   Radius =  0.325 angstrom
                   Q00  =   0.080974

H          x =  0.954048  y =  1.203465  z = -0.847644 angstrom
           Maximum rank =  0   Radius =  0.325 angstrom
                   Q00  =   0.075600

H          x =  0.441048  y =  3.569465  z =  1.007356 angstrom
           Maximum rank =  0   Radius =  0.325 angstrom
                   Q00  =   0.078679

H          x = -0.105952  y =  3.445465  z = -0.651644 angstrom
           Maximum rank =  0   Radius =  0.325 angstrom
                   Q00  =   0.079363

H          x =  1.656178  y =  3.566685  z = -0.303234 angstrom
           Maximum rank =  0   Radius =  0.325 angstrom
                   Q00  =   0.081513

Total multipoles referred to origin at
           x =   0.000000,  y =    0.000000,  z =    0.000000 angstrom
                   Q00  =  -0.000000

Finished at 14:10:6 on 28 Apr 2020

  DMA results are available in the Python driver through the
	  variable('DMA DISTRIBUTED MULTIPOLES')
  and
	  variable('DMA TOTAL MULTIPOLES')
  commands.

    Psi4 stopped on: Tuesday, 28 April 2020 02:10PM
    Psi4 wall time for execution: 0:00:11.11

*** Psi4 exiting successfully. Buy a developer a beer!
