                               Psi4 1.3.2 release

  ==> Input File <==

--------------------------------------------------------------------------
import numpy as np
set {scf_type pk
basis cc-pvdz
d_convergence 10
gdma_switch   0
gdma_limit    0
gdma_origin   [ 0.0,  0.0,  0.0 ]
}
molecule test {
    units Angstrom
    0 1
    --
    0 1
    C                1.636661280850692    -1.319918849846832     0.099292726961462
    C                2.399661280850693    -2.570918849846832    -0.126707273038538
    H                2.083661280850693    -0.735918849846832     0.904292726961462
    H                1.647661280850692    -0.725918849846832    -0.815707273038538
    H                0.606661280850692    -1.558918849846832     0.347292726961462
    H                3.361661280850692    -2.271918849846832    -0.539707273038538
    H                1.884661280850692    -3.184918849846833    -0.866707273038538
    H                2.579328280850692    -3.136405849846832     0.799545726961462
    C               -0.879338719149308     1.053081150153168     0.178292726961462
    C               -0.948338719149308     2.097081150153167    -0.887707273038538
    C               -2.265338719149308     0.807081150153168     0.758292726961462
    H               -0.542338719149308     0.138081150153168    -0.293707273038538
    H               -0.190338719149308     1.342081150153168     0.973292726961462
    H               -1.288338719149308     3.033081150153168    -0.437707273038538
    H               -1.690338719149308     1.805081150153168    -1.629707273038538
    H               -2.601338719149307     1.695081150153168     1.299292726961462
    H               -2.970338719149308     0.594081150153168    -0.048707273038538
    H                0.015533280850692     2.269693150153168    -1.388862273038538
    H               -2.221094719149308    -0.053861849846832     1.441532726961462

}
e, wfn = energy('scf', return_wfn=True)
gdma(wfn)
dmavals = variable('DMA DISTRIBUTED MULTIPOLES')
charges = np.array(dmavals)
print(charges)
np.save('SSI-038ILE-094LYS-1-dimer.npy', np.array(charges))--------------------------------------------------------------------------

*** tstart() called on ds3
*** at Tue Apr 28 10:36:20 2020

   => Loading Basis Set <=

    Name: CC-PVDZ
    Role: ORBITAL
    Keyword: BASIS
    atoms 1-2, 9-11  entry C          line   138 file /theoryfs2/ds/metcalf/miniconda2/envs/tf2gpu/share/psi4/basis/cc-pvdz.gbs
    atoms 3-8, 12-19 entry H          line    22 file /theoryfs2/ds/metcalf/miniconda2/envs/tf2gpu/share/psi4/basis/cc-pvdz.gbs

         ---------------------------------------------------------
                                   SCF
               by Justin Turney, Rob Parrish, Andy Simmonett
                          and Daniel G. A. Smith
                              RHF Reference
                        1 Threads,    500 MiB Core
         ---------------------------------------------------------

  ==> Geometry <==

    Molecular point group: c1
    Full point group: C1

    Geometry (in Angstrom), charge = 0, multiplicity = 1:

       Center              X                  Y                   Z               Mass
    ------------   -----------------  -----------------  -----------------  -----------------
         C            1.636661280851    -1.319918849847     0.099292726961    12.000000000000
         C            2.399661280851    -2.570918849847    -0.126707273039    12.000000000000
         H            2.083661280851    -0.735918849847     0.904292726961     1.007825032230
         H            1.647661280851    -0.725918849847    -0.815707273039     1.007825032230
         H            0.606661280851    -1.558918849847     0.347292726961     1.007825032230
         H            3.361661280851    -2.271918849847    -0.539707273039     1.007825032230
         H            1.884661280851    -3.184918849847    -0.866707273039     1.007825032230
         H            2.579328280851    -3.136405849847     0.799545726961     1.007825032230
         C           -0.879338719149     1.053081150153     0.178292726961    12.000000000000
         C           -0.948338719149     2.097081150153    -0.887707273039    12.000000000000
         C           -2.265338719149     0.807081150153     0.758292726961    12.000000000000
         H           -0.542338719149     0.138081150153    -0.293707273039     1.007825032230
         H           -0.190338719149     1.342081150153     0.973292726961     1.007825032230
         H           -1.288338719149     3.033081150153    -0.437707273039     1.007825032230
         H           -1.690338719149     1.805081150153    -1.629707273039     1.007825032230
         H           -2.601338719149     1.695081150153     1.299292726961     1.007825032230
         H           -2.970338719149     0.594081150153    -0.048707273039     1.007825032230
         H            0.015533280851     2.269693150153    -1.388862273039     1.007825032230
         H           -2.221094719149    -0.053861849847     1.441532726961     1.007825032230

  Running in c1 symmetry.

  Rotational constants: A =      0.25647  B =      0.03847  C =      0.03490 [cm^-1]
  Rotational constants: A =   7688.81727  B =   1153.44518  C =   1046.25540 [MHz]
  Nuclear repulsion =  179.414466839894260

  Charge       = 0
  Multiplicity = 1
  Electrons    = 44
  Nalpha       = 22
  Nbeta        = 22

  ==> Algorithm <==

  SCF Algorithm Type is PK.
  DIIS enabled.
  MOM disabled.
  Fractional occupation disabled.
  Guess Type is SAD.
  Energy threshold   = 1.00e-06
  Density threshold  = 1.00e-10
  Integral threshold = 0.00e+00

  ==> Primary Basis <==

  Basis Set: CC-PVDZ
    Blend: CC-PVDZ
    Number of shells: 72
    Number of basis function: 140
    Number of Cartesian functions: 145
    Spherical Harmonics?: true
    Max angular momentum: 2

  ==> Pre-Iterations <==

   -------------------------------------------------------
    Irrep   Nso     Nmo     Nalpha   Nbeta   Ndocc  Nsocc
   -------------------------------------------------------
     A        140     140       0       0       0       0
   -------------------------------------------------------
    Total     140     140      22      22      22       0
   -------------------------------------------------------

  ==> Integral Setup <==

  Using integral reordering PK algorithm.
  Sizing the integral batches needed.
  Building batch lookup table.
   Calculation information:
      Number of atoms:                  19
      Number of AO shells:              72
      Number of primitives:            180
      Number of atomic orbitals:       145
      Number of basis functions:       140

      Integral cutoff                 1.00e-12
      Number of threads:                 1

	Batch   1 pq = [       0,    9405] index = [             0,44231715] size =     44231715
	Batch   2 pq = [    9405,    9870] index = [      44231715,48713385] size =      4481670
  Task number: 5
  Buffer size: 11059200
  Buffer per thread: 2
  We computed 2834689 shell quartets total.
  Whereas there are 3454506 unique shell quartets.

  ==> DiskJK: Disk-Based J/K Matrices <==

    J tasked:                  Yes
    K tasked:                  Yes
    wK tasked:                  No
    Memory [MiB]:              375
    Schwarz Cutoff:          1E-12

    OpenMP threads:              1

  Minimum eigenvalue in the overlap matrix is 4.8438417578E-03.
  Using Symmetric Orthogonalization.

  SCF Guess: Superposition of Atomic Densities via on-the-fly atomic UHF.

  ==> Iterations <==

                        Total Energy        Delta E     RMS |[F,P]|

   @RHF iter SAD:  -196.56060766000323   -1.96561e+02   0.00000e+00
   @RHF iter   1:  -197.29657821486737   -7.35971e-01   3.92254e-03 DIIS
   @RHF iter   2:  -197.46405365501511   -1.67475e-01   1.71185e-03 DIIS
   @RHF iter   3:  -197.49474310605558   -3.06895e-02   3.33321e-04 DIIS
   @RHF iter   4:  -197.49705515975100   -2.31205e-03   4.81758e-05 DIIS
   @RHF iter   5:  -197.49709460247459   -3.94427e-05   1.46503e-05 DIIS
   @RHF iter   6:  -197.49709790514470   -3.30267e-06   2.64298e-06 DIIS
   @RHF iter   7:  -197.49709802434003   -1.19195e-07   4.86058e-07 DIIS
   @RHF iter   8:  -197.49709802919349   -4.85346e-09   1.21295e-07 DIIS
   @RHF iter   9:  -197.49709802948504   -2.91550e-10   3.89784e-08 DIIS
   @RHF iter  10:  -197.49709802951890   -3.38503e-11   8.20138e-09 DIIS
   @RHF iter  11:  -197.49709802951924   -3.41061e-13   1.53072e-09 DIIS
   @RHF iter  12:  -197.49709802951980   -5.68434e-13   2.91034e-10 DIIS
   @RHF iter  13:  -197.49709802951952    2.84217e-13   6.76665e-11 DIIS
  Energy and wave function converged.

  ==> Post-Iterations <==

    Orbital Energies [Eh]
    ---------------------

    Doubly Occupied:

       1A    -11.214567     2A    -11.214025     3A    -11.212512
       4A    -11.212025     5A    -11.211211     6A     -1.061636
       7A     -1.031451     8A     -0.921266     9A     -0.834056
      10A     -0.793521    11A     -0.632559    12A     -0.606599
      13A     -0.603865    14A     -0.597977    15A     -0.546978
      16A     -0.527076    17A     -0.511918    18A     -0.486211
      19A     -0.480027    20A     -0.475278    21A     -0.466383
      22A     -0.457948

    Virtual:

      23A      0.173283    24A      0.195440    25A      0.212747
      26A      0.220760    27A      0.232059    28A      0.250314
      29A      0.260969    30A      0.264241    31A      0.285415
      32A      0.286432    33A      0.299788    34A      0.307960
      35A      0.321338    36A      0.325865    37A      0.366222
      38A      0.414463    39A      0.433794    40A      0.563369
      41A      0.591278    42A      0.604177    43A      0.604911
      44A      0.607364    45A      0.620262    46A      0.622634
      47A      0.679940    48A      0.702212    49A      0.774184
      50A      0.811951    51A      0.812536    52A      0.852322
      53A      0.881525    54A      0.885043    55A      0.890798
      56A      0.893296    57A      0.896346    58A      0.901819
      59A      0.904297    60A      0.908981    61A      0.913831
      62A      0.920685    63A      0.932950    64A      0.937476
      65A      0.969342    66A      0.980314    67A      0.989758
      68A      1.000572    69A      1.126245    70A      1.134908
      71A      1.138892    72A      1.170481    73A      1.238199
      74A      1.254842    75A      1.387989    76A      1.477364
      77A      1.480046    78A      1.494939    79A      1.507497
      80A      1.560908    81A      1.586031    82A      1.631410
      83A      1.678857    84A      1.679885    85A      1.694382
      86A      1.696119    87A      1.712748    88A      1.854216
      89A      1.867545    90A      1.874392    91A      1.883353
      92A      1.886668    93A      1.914533    94A      1.928876
      95A      1.937759    96A      1.944116    97A      1.953644
      98A      1.954978    99A      1.972812   100A      1.975416
     101A      1.981308   102A      1.996781   103A      2.007178
     104A      2.015289   105A      2.042364   106A      2.049639
     107A      2.087688   108A      2.108927   109A      2.146312
     110A      2.148715   111A      2.158762   112A      2.298300
     113A      2.310443   114A      2.318155   115A      2.325834
     116A      2.345665   117A      2.367119   118A      2.459856
     119A      2.481058   120A      2.527195   121A      2.540642
     122A      2.573123   123A      2.585294   124A      2.598807
     125A      2.626933   126A      2.640817   127A      2.758190
     128A      2.771667   129A      2.775853   130A      2.788617
     131A      2.794433   132A      2.828858   133A      2.854599
     134A      2.874290   135A      2.921833   136A      2.957473
     137A      2.976535   138A      2.980292   139A      2.992534
     140A      3.091022

    Final Occupation by Irrep:
              A
    DOCC [    22 ]

  @RHF Final Energy:  -197.49709802951952

   => Energetics <=

    Nuclear Repulsion Energy =            179.4144668398942599
    One-Electron Energy =                -619.6249524309099570
    Two-Electron Energy =                 242.7133875614961767
    Total Energy =                       -197.4970980295195204

Computation Completed

Properties will be evaluated at   0.000000,   0.000000,   0.000000 [a0]

Properties computed using the SCF density matrix

  Nuclear Dipole Moment: [e a0]
     X:     0.6328      Y:    -0.7412      Z:    -0.2396

  Electronic Dipole Moment: [e a0]
     X:    -0.5882      Y:     0.7096      Z:     0.2374

  Dipole Moment: [e a0]
     X:     0.0446      Y:    -0.0317      Z:    -0.0022     Total:     0.0548

  Dipole Moment: [D]
     X:     0.1135      Y:    -0.0805      Z:    -0.0057     Total:     0.1392

*** tstop() called on ds3 at Tue Apr 28 10:36:40 2020
Module time:
	user time   =      15.04 seconds =       0.25 minutes
	system time =       6.14 seconds =       0.10 minutes
	total time  =         20 seconds =       0.33 minutes
Total time:
	user time   =      15.04 seconds =       0.25 minutes
	system time =       6.14 seconds =       0.10 minutes
	total time  =         20 seconds =       0.33 minutes
                                     G D M A

                                 by Anthony Stone

                           version 2.2.06, 22 June 2011

               Distributed Multipoles from Gaussian wavefunctions

Starting at 10:36:40 on 28 Apr 2020

Using SCF density matrix from file ./SSI/SSI-038ILE-094LYS-1-dimer.test.1327.fchk

                         Distributed Multipole Analysis

Standard DMA

Positions and radii in angstrom
Multipole moments in atomic units, ea_0^k for rank k

C          x =  1.636661  y = -1.319919  z =  0.099293 angstrom
           Maximum rank =  0   Radius =  0.650 angstrom
                   Q00  =  -0.222443

C          x =  2.399661  y = -2.570919  z = -0.126707 angstrom
           Maximum rank =  0   Radius =  0.650 angstrom
                   Q00  =  -0.215850

H          x =  2.083661  y = -0.735919  z =  0.904293 angstrom
           Maximum rank =  0   Radius =  0.325 angstrom
                   Q00  =   0.078076

H          x =  1.647661  y = -0.725919  z = -0.815707 angstrom
           Maximum rank =  0   Radius =  0.325 angstrom
                   Q00  =   0.070830

H          x =  0.606661  y = -1.558919  z =  0.347293 angstrom
           Maximum rank =  0   Radius =  0.325 angstrom
                   Q00  =   0.069443

H          x =  3.361661  y = -2.271919  z = -0.539707 angstrom
           Maximum rank =  0   Radius =  0.325 angstrom
                   Q00  =   0.070255

H          x =  1.884661  y = -3.184919  z = -0.866707 angstrom
           Maximum rank =  0   Radius =  0.325 angstrom
                   Q00  =   0.075400

H          x =  2.579328  y = -3.136406  z =  0.799546 angstrom
           Maximum rank =  0   Radius =  0.325 angstrom
                   Q00  =   0.077747

C          x = -0.879339  y =  1.053081  z =  0.178293 angstrom
           Maximum rank =  0   Radius =  0.650 angstrom
                   Q00  =  -0.072011

C          x = -0.948339  y =  2.097081  z = -0.887707 angstrom
           Maximum rank =  0   Radius =  0.650 angstrom
                   Q00  =  -0.225687

C          x = -2.265339  y =  0.807081  z =  0.758293 angstrom
           Maximum rank =  0   Radius =  0.650 angstrom
                   Q00  =  -0.244867

H          x = -0.542339  y =  0.138081  z = -0.293707 angstrom
           Maximum rank =  0   Radius =  0.325 angstrom
                   Q00  =   0.042367

H          x = -0.190339  y =  1.342081  z =  0.973293 angstrom
           Maximum rank =  0   Radius =  0.325 angstrom
                   Q00  =   0.048302

H          x = -1.288339  y =  3.033081  z = -0.437707 angstrom
           Maximum rank =  0   Radius =  0.325 angstrom
                   Q00  =   0.067827

H          x = -1.690339  y =  1.805081  z = -1.629707 angstrom
           Maximum rank =  0   Radius =  0.325 angstrom
                   Q00  =   0.071416

H          x = -2.601339  y =  1.695081  z =  1.299293 angstrom
           Maximum rank =  0   Radius =  0.325 angstrom
                   Q00  =   0.075679

H          x = -2.970339  y =  0.594081  z = -0.048707 angstrom
           Maximum rank =  0   Radius =  0.325 angstrom
                   Q00  =   0.074698

H          x =  0.015533  y =  2.269693  z = -1.388862 angstrom
           Maximum rank =  0   Radius =  0.325 angstrom
                   Q00  =   0.079526

H          x = -2.221095  y = -0.053862  z =  1.441533 angstrom
           Maximum rank =  0   Radius =  0.325 angstrom
                   Q00  =   0.079294

Total multipoles referred to origin at
           x =   0.000000,  y =    0.000000,  z =    0.000000 angstrom
                   Q00  =  -0.000000

Finished at 10:36:40 on 28 Apr 2020

  DMA results are available in the Python driver through the
	  variable('DMA DISTRIBUTED MULTIPOLES')
  and
	  variable('DMA TOTAL MULTIPOLES')
  commands.

    Psi4 stopped on: Tuesday, 28 April 2020 10:36AM
    Psi4 wall time for execution: 0:00:20.79

*** Psi4 exiting successfully. Buy a developer a beer!
