                               Psi4 1.3.2 release

  ==> Input File <==

--------------------------------------------------------------------------
import numpy as np
set {scf_type pk
basis cc-pvdz
d_convergence 10
gdma_switch   0
gdma_limit    0
gdma_origin   [ 0.0,  0.0,  0.0 ]
}
molecule test {
    units Angstrom
    -1 1
    --
    -1 1
    C               -1.252801893189941     0.945119059752812     0.421693265958628
    C               -2.629801893189941     1.537119059752812     0.760693265958628
    C               -0.369801893189941     1.984119059752812    -0.273306734041372
    O               -0.610801893189941     0.493119059752812     1.606693265958628
    H               -1.384801893189941     0.103119059752812    -0.250306734041372
    H               -3.065801893189941     1.869119059752812    -0.181306734041372
    H               -0.131801893189941     2.805119059752812     0.400693265958628
    H                0.557198106810059     1.520119059752812    -0.603306734041372
    H               -0.895801893189941     2.380119059752812    -1.141306734041372
    H               -0.107801893189941    -0.298880940247188     1.316693265958628
    H               -2.539624893189941     2.381777059752813     1.459564865958628
    H               -3.315186893189941     0.766422059752812     1.143149865958628
    C                2.534198106810059    -0.651880940247188    -0.614306734041372
    C                1.142198106810059    -1.273880940247188    -0.670306734041372
    O                0.564198106810059    -1.435880940247188    -1.769306734041372
    O                0.619198106810059    -1.592880940247188     0.419693265958628
    H                3.228198106810059    -1.445880940247188    -0.372306734041372
    H                2.582198106810059     0.096119059752812     0.180693265958628
    H                2.844185576810059    -0.185092940247188    -1.560888734041372

}
e, wfn = energy('scf', return_wfn=True)
gdma(wfn)
dmavals = variable('DMA DISTRIBUTED MULTIPOLES')
charges = np.array(dmavals)
print(charges)
np.save('SSI-120THR-147GLU-1-dimer.npy', np.array(charges))--------------------------------------------------------------------------

*** tstart() called on ds3
*** at Mon Apr 27 11:30:50 2020

   => Loading Basis Set <=

    Name: CC-PVDZ
    Role: ORBITAL
    Keyword: BASIS
    atoms 1-3, 13-14  entry C          line   138 file /theoryfs2/ds/metcalf/miniconda2/envs/tf2gpu/share/psi4/basis/cc-pvdz.gbs
    atoms 4, 15-16    entry O          line   198 file /theoryfs2/ds/metcalf/miniconda2/envs/tf2gpu/share/psi4/basis/cc-pvdz.gbs
    atoms 5-12, 17-19 entry H          line    22 file /theoryfs2/ds/metcalf/miniconda2/envs/tf2gpu/share/psi4/basis/cc-pvdz.gbs

         ---------------------------------------------------------
                                   SCF
               by Justin Turney, Rob Parrish, Andy Simmonett
                          and Daniel G. A. Smith
                              RHF Reference
                        1 Threads,    500 MiB Core
         ---------------------------------------------------------

  ==> Geometry <==

    Molecular point group: c1
    Full point group: C1

    Geometry (in Angstrom), charge = -1, multiplicity = 1:

       Center              X                  Y                   Z               Mass
    ------------   -----------------  -----------------  -----------------  -----------------
         C           -1.252801893190     0.945119059753     0.421693265959    12.000000000000
         C           -2.629801893190     1.537119059753     0.760693265959    12.000000000000
         C           -0.369801893190     1.984119059753    -0.273306734041    12.000000000000
         O           -0.610801893190     0.493119059753     1.606693265959    15.994914619570
         H           -1.384801893190     0.103119059753    -0.250306734041     1.007825032230
         H           -3.065801893190     1.869119059753    -0.181306734041     1.007825032230
         H           -0.131801893190     2.805119059753     0.400693265959     1.007825032230
         H            0.557198106810     1.520119059753    -0.603306734041     1.007825032230
         H           -0.895801893190     2.380119059753    -1.141306734041     1.007825032230
         H           -0.107801893190    -0.298880940247     1.316693265959     1.007825032230
         H           -2.539624893190     2.381777059753     1.459564865959     1.007825032230
         H           -3.315186893190     0.766422059753     1.143149865959     1.007825032230
         C            2.534198106810    -0.651880940247    -0.614306734041    12.000000000000
         C            1.142198106810    -1.273880940247    -0.670306734041    12.000000000000
         O            0.564198106810    -1.435880940247    -1.769306734041    15.994914619570
         O            0.619198106810    -1.592880940247     0.419693265959    15.994914619570
         H            3.228198106810    -1.445880940247    -0.372306734041     1.007825032230
         H            2.582198106810     0.096119059753     0.180693265959     1.007825032230
         H            2.844185576810    -0.185092940247    -1.560888734041     1.007825032230

  Running in c1 symmetry.

  Rotational constants: A =      0.10723  B =      0.03221  C =      0.03135 [cm^-1]
  Rotational constants: A =   3214.75056  B =    965.70091  C =    939.87298 [MHz]
  Nuclear repulsion =  390.150706142650904

  Charge       = -1
  Multiplicity = 1
  Electrons    = 66
  Nalpha       = 33
  Nbeta        = 33

  ==> Algorithm <==

  SCF Algorithm Type is PK.
  DIIS enabled.
  MOM disabled.
  Fractional occupation disabled.
  Guess Type is SAD.
  Energy threshold   = 1.00e-06
  Density threshold  = 1.00e-10
  Integral threshold = 0.00e+00

  ==> Primary Basis <==

  Basis Set: CC-PVDZ
    Blend: CC-PVDZ
    Number of shells: 81
    Number of basis function: 167
    Number of Cartesian functions: 175
    Spherical Harmonics?: true
    Max angular momentum: 2

  ==> Pre-Iterations <==

   -------------------------------------------------------
    Irrep   Nso     Nmo     Nalpha   Nbeta   Ndocc  Nsocc
   -------------------------------------------------------
     A        167     167       0       0       0       0
   -------------------------------------------------------
    Total     167     167      33      33      33       0
   -------------------------------------------------------

  ==> Integral Setup <==

  Using integral reordering PK algorithm.
  Sizing the integral batches needed.
  Building batch lookup table.
   Calculation information:
      Number of atoms:                  19
      Number of AO shells:              81
      Number of primitives:            231
      Number of atomic orbitals:       175
      Number of basis functions:       167

      Integral cutoff                 1.00e-12
      Number of threads:                 1

	Batch   1 pq = [       0,    9405] index = [             0,44231715] size =     44231715
	Batch   2 pq = [    9405,   13301] index = [      44231715,88464951] size =     44233236
	Batch   3 pq = [   13301,   14028] index = [      88464951,98399406] size =      9934455
  Task number: 9
  Buffer size: 11059200
  Buffer per thread: 2
  We computed 5130071 shell quartets total.
  Whereas there are 5516181 unique shell quartets.

  ==> DiskJK: Disk-Based J/K Matrices <==

    J tasked:                  Yes
    K tasked:                  Yes
    wK tasked:                  No
    Memory [MiB]:              375
    Schwarz Cutoff:          1E-12

    OpenMP threads:              1

  Minimum eigenvalue in the overlap matrix is 4.4847068027E-03.
  Using Symmetric Orthogonalization.

  SCF Guess: Superposition of Atomic Densities via on-the-fly atomic UHF.

  ==> Iterations <==

                        Total Energy        Delta E     RMS |[F,P]|

   @RHF iter SAD:  -418.68797778699553   -4.18688e+02   0.00000e+00
   @RHF iter   1:  -420.08827458150284   -1.40030e+00   4.70405e-03 DIIS
   @RHF iter   2:  -420.32795188238475   -2.39677e-01   2.56329e-03 DIIS
   @RHF iter   3:  -420.39448401057314   -6.65321e-02   4.10972e-04 DIIS
   @RHF iter   4:  -420.39758773707479   -3.10373e-03   1.57082e-04 DIIS
   @RHF iter   5:  -420.39802759313915   -4.39856e-04   2.95132e-05 DIIS
   @RHF iter   6:  -420.39804354797502   -1.59548e-05   1.30790e-05 DIIS
   @RHF iter   7:  -420.39804615503317   -2.60706e-06   2.81252e-06 DIIS
   @RHF iter   8:  -420.39804642428544   -2.69252e-07   1.33358e-06 DIIS
   @RHF iter   9:  -420.39804647633895   -5.20535e-08   5.36552e-07 DIIS
   @RHF iter  10:  -420.39804648878140   -1.24425e-08   1.92468e-07 DIIS
   @RHF iter  11:  -420.39804649023824   -1.45684e-09   6.32186e-08 DIIS
   @RHF iter  12:  -420.39804649035983   -1.21588e-10   1.86109e-08 DIIS
   @RHF iter  13:  -420.39804649037546   -1.56319e-11   4.64808e-09 DIIS
   @RHF iter  14:  -420.39804649037558   -1.13687e-13   1.33857e-09 DIIS
   @RHF iter  15:  -420.39804649037745   -1.87583e-12   4.13684e-10 DIIS
   @RHF iter  16:  -420.39804649037529    2.16005e-12   1.61807e-10 DIIS
   @RHF iter  17:  -420.39804649037700   -1.70530e-12   7.24997e-11 DIIS
  Energy and wave function converged.

  ==> Post-Iterations <==

    Orbital Energies [Eh]
    ---------------------

    Doubly Occupied:

       1A    -20.366291     2A    -20.289501     3A    -20.285935
       4A    -11.143449     5A    -11.124948     6A    -11.094961
       7A    -11.079540     8A    -11.066493     9A     -1.184488
      10A     -1.172473    11A     -1.064641    12A     -0.896789
      13A     -0.815174    14A     -0.800563    15A     -0.645127
      16A     -0.549811    17A     -0.520689    18A     -0.468110
      19A     -0.454441    20A     -0.433074    21A     -0.428711
      22A     -0.427202    23A     -0.413616    24A     -0.407170
      25A     -0.371309    26A     -0.366423    27A     -0.363689
      28A     -0.328395    29A     -0.312200    30A     -0.265224
      31A     -0.211350    32A     -0.199033    33A     -0.190264

    Virtual:

      34A      0.308088    35A      0.338968    36A      0.357240
      37A      0.360027    38A      0.379443    39A      0.388412
      40A      0.402851    41A      0.424202    42A      0.427221
      43A      0.442425    44A      0.469132    45A      0.491995
      46A      0.514522    47A      0.551863    48A      0.563250
      49A      0.598750    50A      0.675081    51A      0.693181
      52A      0.724029    53A      0.756842    54A      0.807380
      55A      0.819617    56A      0.848258    57A      0.860975
      58A      0.875181    59A      0.898687    60A      0.938233
      61A      0.950036    62A      0.967827    63A      0.975298
      64A      1.003247    65A      1.011930    66A      1.017349
      67A      1.024646    68A      1.028993    69A      1.039144
      70A      1.049686    71A      1.053377    72A      1.068072
      73A      1.080328    74A      1.097122    75A      1.102692
      76A      1.128139    77A      1.173373    78A      1.253843
      79A      1.262764    80A      1.284137    81A      1.313450
      82A      1.320697    83A      1.370844    84A      1.373270
      85A      1.460251    86A      1.503139    87A      1.529477
      88A      1.532537    89A      1.559911    90A      1.571382
      91A      1.600147    92A      1.621700    93A      1.641107
      94A      1.681786    95A      1.694777    96A      1.722196
      97A      1.732906    98A      1.787549    99A      1.808792
     100A      1.817759   101A      1.825353   102A      1.830258
     103A      1.833614   104A      1.845474   105A      1.902455
     106A      1.983439   107A      1.997941   108A      2.009955
     109A      2.026227   110A      2.029311   111A      2.059971
     112A      2.072290   113A      2.105544   114A      2.110149
     115A      2.113639   116A      2.131479   117A      2.147617
     118A      2.157684   119A      2.183615   120A      2.201900
     121A      2.220655   122A      2.239857   123A      2.249073
     124A      2.290641   125A      2.336660   126A      2.359009
     127A      2.400225   128A      2.421250   129A      2.442916
     130A      2.482149   131A      2.492176   132A      2.515115
     133A      2.578030   134A      2.625203   135A      2.652209
     136A      2.673756   137A      2.695091   138A      2.702700
     139A      2.718171   140A      2.756574   141A      2.804150
     142A      2.879601   143A      2.891517   144A      2.909030
     145A      2.915734   146A      2.929169   147A      2.959598
     148A      2.971835   149A      3.010419   150A      3.018832
     151A      3.049270   152A      3.149138   153A      3.220777
     154A      3.273825   155A      3.286847   156A      3.410503
     157A      3.511223   158A      3.582697   159A      3.620779
     160A      3.687192   161A      3.757711   162A      3.802374
     163A      3.827302   164A      4.049777   165A      4.073047
     166A      4.170596   167A      4.336912

    Final Occupation by Irrep:
              A
    DOCC [    33 ]

  @RHF Final Energy:  -420.39804649037700

   => Energetics <=

    Nuclear Repulsion Energy =            390.1507061426509040
    One-Electron Energy =               -1361.6153376805671087
    Two-Electron Energy =                 551.0665850475392062
    Total Energy =                       -420.3980464903769416

Computation Completed

Properties will be evaluated at   0.000000,   0.000000,   0.000000 [a0]

Properties computed using the SCF density matrix

  Nuclear Dipole Moment: [e a0]
     X:    -2.0869      Y:     9.3551      Z:     0.3681

  Electronic Dipole Moment: [e a0]
     X:     1.8423      Y:    -7.4954      Z:    -0.0712

  Dipole Moment: [e a0]
     X:    -0.2446      Y:     1.8597      Z:     0.2969     Total:     1.8990

  Dipole Moment: [D]
     X:    -0.6217      Y:     4.7268      Z:     0.7547     Total:     4.8269

*** tstop() called on ds3 at Mon Apr 27 11:33:25 2020
Module time:
	user time   =      37.77 seconds =       0.63 minutes
	system time =      13.29 seconds =       0.22 minutes
	total time  =        155 seconds =       2.58 minutes
Total time:
	user time   =      37.77 seconds =       0.63 minutes
	system time =      13.29 seconds =       0.22 minutes
	total time  =        155 seconds =       2.58 minutes
                                     G D M A

                                 by Anthony Stone

                           version 2.2.06, 22 June 2011

               Distributed Multipoles from Gaussian wavefunctions

Starting at 11:33:26 on 27 Apr 2020

Using SCF density matrix from file ./SSI/SSI-120THR-147GLU-1-dimer.test.2988.fchk

                         Distributed Multipole Analysis

Standard DMA

Positions and radii in angstrom
Multipole moments in atomic units, ea_0^k for rank k

C          x = -1.252802  y =  0.945119  z =  0.421693 angstrom
           Maximum rank =  0   Radius =  0.650 angstrom
                   Q00  =   0.208558

C          x = -2.629802  y =  1.537119  z =  0.760693 angstrom
           Maximum rank =  0   Radius =  0.650 angstrom
                   Q00  =  -0.247543

C          x = -0.369802  y =  1.984119  z = -0.273307 angstrom
           Maximum rank =  0   Radius =  0.650 angstrom
                   Q00  =  -0.267516

O          x = -0.610802  y =  0.493119  z =  1.606693 angstrom
           Maximum rank =  0   Radius =  0.650 angstrom
                   Q00  =  -0.672562

H          x = -1.384802  y =  0.103119  z = -0.250307 angstrom
           Maximum rank =  0   Radius =  0.325 angstrom
                   Q00  =   0.034446

H          x = -3.065802  y =  1.869119  z = -0.181307 angstrom
           Maximum rank =  0   Radius =  0.325 angstrom
                   Q00  =   0.050059

H          x = -0.131802  y =  2.805119  z =  0.400693 angstrom
           Maximum rank =  0   Radius =  0.325 angstrom
                   Q00  =   0.054557

H          x =  0.557198  y =  1.520119  z = -0.603307 angstrom
           Maximum rank =  0   Radius =  0.325 angstrom
                   Q00  =   0.103681

H          x = -0.895802  y =  2.380119  z = -1.141307 angstrom
           Maximum rank =  0   Radius =  0.325 angstrom
                   Q00  =   0.045352

H          x = -0.107802  y = -0.298881  z =  1.316693 angstrom
           Maximum rank =  0   Radius =  0.325 angstrom
                   Q00  =   0.527228

H          x = -2.539625  y =  2.381777  z =  1.459565 angstrom
           Maximum rank =  0   Radius =  0.325 angstrom
                   Q00  =   0.065130

H          x = -3.315187  y =  0.766422  z =  1.143150 angstrom
           Maximum rank =  0   Radius =  0.325 angstrom
                   Q00  =   0.077742

C          x =  2.534198  y = -0.651881  z = -0.614307 angstrom
           Maximum rank =  0   Radius =  0.650 angstrom
                   Q00  =  -0.282959

C          x =  1.142198  y = -1.273881  z = -0.670307 angstrom
           Maximum rank =  0   Radius =  0.650 angstrom
                   Q00  =   0.922850

O          x =  0.564198  y = -1.435881  z = -1.769307 angstrom
           Maximum rank =  0   Radius =  0.650 angstrom
                   Q00  =  -0.897141

O          x =  0.619198  y = -1.592881  z =  0.419693 angstrom
           Maximum rank =  0   Radius =  0.650 angstrom
                   Q00  =  -0.939907

H          x =  3.228198  y = -1.445881  z = -0.372307 angstrom
           Maximum rank =  0   Radius =  0.325 angstrom
                   Q00  =   0.087918

H          x =  2.582198  y =  0.096119  z =  0.180693 angstrom
           Maximum rank =  0   Radius =  0.325 angstrom
                   Q00  =   0.073651

H          x =  2.844186  y = -0.185093  z = -1.560889 angstrom
           Maximum rank =  0   Radius =  0.325 angstrom
                   Q00  =   0.056455

Total multipoles referred to origin at
           x =   0.000000,  y =    0.000000,  z =    0.000000 angstrom
                   Q00  =  -1.000000

Finished at 11:33:26 on 27 Apr 2020

  DMA results are available in the Python driver through the
	  variable('DMA DISTRIBUTED MULTIPOLES')
  and
	  variable('DMA TOTAL MULTIPOLES')
  commands.

    Psi4 stopped on: Monday, 27 April 2020 11:33AM
    Psi4 wall time for execution: 0:02:35.78

*** Psi4 exiting successfully. Buy a developer a beer!
