                               Psi4 1.3.2 release

  ==> Input File <==

--------------------------------------------------------------------------
import numpy as np
set {scf_type pk
basis cc-pvdz
d_convergence 10
gdma_switch   0
gdma_limit    0
gdma_origin   [ 0.0,  0.0,  0.0 ]
}
molecule test {
    units Angstrom
    1 1
    --
    1 1
    C                0.062150478907033     1.755344467222161    -2.294474655592125
    C                0.358150478907033     1.156344467222161    -0.936474655592125
    O               -0.505849521092967     1.147344467222161    -0.067474655592125
    N                1.571150478907034     0.645344467222161    -0.749474655592125
    H                0.820150478907033     2.506344467222161    -2.519474655592124
    H               -0.906849521092967     2.253344467222161    -2.245474655592124
    H                1.860150478907033     0.392344467222161     0.182525344407875
    H                2.264150478907033     0.707344467222161    -1.481474655592125
    H                0.050590478907033     0.995104467222161    -3.089394655592125
    C                0.093150478907033    -1.541655532777839     1.261525344407876
    C               -0.771849521092967    -2.606655532777839     0.607525344407875
    N               -0.751849521092967    -0.495655532777839     1.924525344407875
    H                0.728150478907033    -2.029655532777839     2.008525344407876
    H                0.743150478907033    -1.107655532777839     0.502525344407875
    H               -1.429849521092967    -2.127655532777839    -0.119474655592125
    H               -1.387849521092966    -3.090655532777839     1.368525344407876
    H               -1.468849521092967    -0.905655532777839     2.510525344407875
    H               -0.189849521092967     0.108344467222161     2.512525344407876
    H               -1.192849521092967     0.106344467222161     1.232525344407875
    H               -0.168999521092967    -3.372665532777839     0.097815344407875

}
e, wfn = energy('scf', return_wfn=True)
gdma(wfn)
dmavals = variable('DMA DISTRIBUTED MULTIPOLES')
charges = np.array(dmavals)
print(charges)
np.save('SSI-017ASN-021LYS-1-dimer.npy', np.array(charges))--------------------------------------------------------------------------

*** tstart() called on ds3
*** at Mon Apr 27 20:09:08 2020

   => Loading Basis Set <=

    Name: CC-PVDZ
    Role: ORBITAL
    Keyword: BASIS
    atoms 1-2, 10-11 entry C          line   138 file /theoryfs2/ds/metcalf/miniconda2/envs/tf2gpu/share/psi4/basis/cc-pvdz.gbs
    atoms 3          entry O          line   198 file /theoryfs2/ds/metcalf/miniconda2/envs/tf2gpu/share/psi4/basis/cc-pvdz.gbs
    atoms 4, 12      entry N          line   168 file /theoryfs2/ds/metcalf/miniconda2/envs/tf2gpu/share/psi4/basis/cc-pvdz.gbs
    atoms 5-9, 13-20 entry H          line    22 file /theoryfs2/ds/metcalf/miniconda2/envs/tf2gpu/share/psi4/basis/cc-pvdz.gbs

         ---------------------------------------------------------
                                   SCF
               by Justin Turney, Rob Parrish, Andy Simmonett
                          and Daniel G. A. Smith
                              RHF Reference
                        1 Threads,    500 MiB Core
         ---------------------------------------------------------

  ==> Geometry <==

    Molecular point group: c1
    Full point group: C1

    Geometry (in Angstrom), charge = 1, multiplicity = 1:

       Center              X                  Y                   Z               Mass
    ------------   -----------------  -----------------  -----------------  -----------------
         C            0.062150478907     1.755344467222    -2.294474655592    12.000000000000
         C            0.358150478907     1.156344467222    -0.936474655592    12.000000000000
         O           -0.505849521093     1.147344467222    -0.067474655592    15.994914619570
         N            1.571150478907     0.645344467222    -0.749474655592    14.003074004430
         H            0.820150478907     2.506344467222    -2.519474655592     1.007825032230
         H           -0.906849521093     2.253344467222    -2.245474655592     1.007825032230
         H            1.860150478907     0.392344467222     0.182525344408     1.007825032230
         H            2.264150478907     0.707344467222    -1.481474655592     1.007825032230
         H            0.050590478907     0.995104467222    -3.089394655592     1.007825032230
         C            0.093150478907    -1.541655532778     1.261525344408    12.000000000000
         C           -0.771849521093    -2.606655532778     0.607525344408    12.000000000000
         N           -0.751849521093    -0.495655532778     1.924525344408    14.003074004430
         H            0.728150478907    -2.029655532778     2.008525344408     1.007825032230
         H            0.743150478907    -1.107655532778     0.502525344408     1.007825032230
         H           -1.429849521093    -2.127655532778    -0.119474655592     1.007825032230
         H           -1.387849521093    -3.090655532778     1.368525344408     1.007825032230
         H           -1.468849521093    -0.905655532778     2.510525344408     1.007825032230
         H           -0.189849521093     0.108344467222     2.512525344408     1.007825032230
         H           -1.192849521093     0.106344467222     1.232525344408     1.007825032230
         H           -0.168999521093    -3.372665532778     0.097815344408     1.007825032230

  Running in c1 symmetry.

  Rotational constants: A =      0.13525  B =      0.03822  C =      0.03653 [cm^-1]
  Rotational constants: A =   4054.57057  B =   1145.88764  C =   1095.06503 [MHz]
  Nuclear repulsion =  332.165783660993782

  Charge       = 1
  Multiplicity = 1
  Electrons    = 58
  Nalpha       = 29
  Nbeta        = 29

  ==> Algorithm <==

  SCF Algorithm Type is PK.
  DIIS enabled.
  MOM disabled.
  Fractional occupation disabled.
  Guess Type is SAD.
  Energy threshold   = 1.00e-06
  Density threshold  = 1.00e-10
  Integral threshold = 0.00e+00

  ==> Primary Basis <==

  Basis Set: CC-PVDZ
    Blend: CC-PVDZ
    Number of shells: 81
    Number of basis function: 163
    Number of Cartesian functions: 170
    Spherical Harmonics?: true
    Max angular momentum: 2

  ==> Pre-Iterations <==

   -------------------------------------------------------
    Irrep   Nso     Nmo     Nalpha   Nbeta   Ndocc  Nsocc
   -------------------------------------------------------
     A        163     163       0       0       0       0
   -------------------------------------------------------
    Total     163     163      29      29      29       0
   -------------------------------------------------------

  ==> Integral Setup <==

  Using integral reordering PK algorithm.
  Sizing the integral batches needed.
  Building batch lookup table.
   Calculation information:
      Number of atoms:                  20
      Number of AO shells:              81
      Number of primitives:            219
      Number of atomic orbitals:       170
      Number of basis functions:       163

      Integral cutoff                 1.00e-12
      Number of threads:                 1

	Batch   1 pq = [       0,    9405] index = [             0,44231715] size =     44231715
	Batch   2 pq = [    9405,   13366] index = [      44231715,89331661] size =     45099946
  Task number: 9
  Buffer size: 11059200
  Buffer per thread: 2
  We computed 5325765 shell quartets total.
  Whereas there are 5516181 unique shell quartets.

  ==> DiskJK: Disk-Based J/K Matrices <==

    J tasked:                  Yes
    K tasked:                  Yes
    wK tasked:                  No
    Memory [MiB]:              375
    Schwarz Cutoff:          1E-12

    OpenMP threads:              1

  Minimum eigenvalue in the overlap matrix is 4.4420426171E-03.
  Using Symmetric Orthogonalization.

  SCF Guess: Superposition of Atomic Densities via on-the-fly atomic UHF.

  ==> Iterations <==

                        Total Energy        Delta E     RMS |[F,P]|

   @RHF iter SAD:  -341.90418213309636   -3.41904e+02   0.00000e+00
   @RHF iter   1:  -342.43387640413016   -5.29694e-01   3.78554e-03 DIIS
   @RHF iter   2:  -342.61155186887470   -1.77675e-01   1.83360e-03 DIIS
   @RHF iter   3:  -342.64683786940606   -3.52860e-02   4.84687e-04 DIIS
   @RHF iter   4:  -342.65044627284504   -3.60840e-03   1.71706e-04 DIIS
   @RHF iter   5:  -342.65090627391140   -4.60001e-04   3.00090e-05 DIIS
   @RHF iter   6:  -342.65093411990392   -2.78460e-05   1.15312e-05 DIIS
   @RHF iter   7:  -342.65093718450191   -3.06460e-06   3.94432e-06 DIIS
   @RHF iter   8:  -342.65093779439331   -6.09891e-07   1.32896e-06 DIIS
   @RHF iter   9:  -342.65093786588864   -7.14953e-08   3.80943e-07 DIIS
   @RHF iter  10:  -342.65093787140472   -5.51609e-09   1.24609e-07 DIIS
   @RHF iter  11:  -342.65093787189249   -4.87773e-10   3.02385e-08 DIIS
   @RHF iter  12:  -342.65093787192171   -2.92175e-11   7.28494e-09 DIIS
   @RHF iter  13:  -342.65093787192393   -2.21689e-12   1.76369e-09 DIIS
   @RHF iter  14:  -342.65093787192222    1.70530e-12   6.69143e-10 DIIS
   @RHF iter  15:  -342.65093787192365   -1.42109e-12   2.19763e-10 DIIS
   @RHF iter  16:  -342.65093787192285    7.95808e-13   9.06411e-11 DIIS
  Energy and wave function converged.

  ==> Post-Iterations <==

    Orbital Energies [Eh]
    ---------------------

    Doubly Occupied:

       1A    -20.670066     2A    -15.857146     3A    -15.738793
       4A    -11.504849     5A    -11.457510     6A    -11.388352
       7A    -11.363053     8A     -1.538362     9A     -1.480441
      10A     -1.370864    11A     -1.198977    12A     -1.130533
      13A     -1.032284    14A     -0.959205    15A     -0.936732
      16A     -0.927293    17A     -0.876722    18A     -0.833919
      19A     -0.811573    20A     -0.774992    21A     -0.751491
      22A     -0.725125    23A     -0.705087    24A     -0.683160
      25A     -0.678675    26A     -0.669028    27A     -0.657917
      28A     -0.574839    29A     -0.567396

    Virtual:

      30A     -0.011025    31A      0.029045    32A      0.041878
      33A      0.053151    34A      0.060861    35A      0.081601
      36A      0.095818    37A      0.115094    38A      0.124895
      39A      0.130561    40A      0.149384    41A      0.153042
      42A      0.161331    43A      0.168706    44A      0.189714
      45A      0.223867    46A      0.263592    47A      0.320917
      48A      0.389252    49A      0.416000    50A      0.433705
      51A      0.454405    52A      0.464121    53A      0.475196
      54A      0.517320    55A      0.541130    56A      0.559868
      57A      0.586413    58A      0.588851    59A      0.613114
      60A      0.634252    61A      0.659464    62A      0.672786
      63A      0.680123    64A      0.705914    65A      0.724832
      66A      0.729862    67A      0.737688    68A      0.738753
      69A      0.745610    70A      0.769469    71A      0.785829
      72A      0.798774    73A      0.820200    74A      0.830093
      75A      0.863930    76A      0.874839    77A      0.884229
      78A      0.911838    79A      0.940803    80A      0.950777
      81A      0.956606    82A      1.022010    83A      1.068795
      84A      1.122717    85A      1.179040    86A      1.200538
      87A      1.233041    88A      1.239707    89A      1.281390
      90A      1.304942    91A      1.328440    92A      1.349675
      93A      1.354649    94A      1.411241    95A      1.464690
      96A      1.489924    97A      1.508741    98A      1.521492
      99A      1.530803   100A      1.546644   101A      1.636845
     102A      1.642222   103A      1.654927   104A      1.680107
     105A      1.703778   106A      1.729921   107A      1.747942
     108A      1.756829   109A      1.773276   110A      1.782255
     111A      1.797111   112A      1.800929   113A      1.815229
     114A      1.822068   115A      1.849681   116A      1.853127
     117A      1.869416   118A      1.903150   119A      1.924553
     120A      1.929829   121A      1.965077   122A      1.988197
     123A      2.001332   124A      2.042341   125A      2.062100
     126A      2.067040   127A      2.092723   128A      2.135706
     129A      2.143697   130A      2.191945   131A      2.212043
     132A      2.274967   133A      2.314471   134A      2.324080
     135A      2.355033   136A      2.380717   137A      2.407277
     138A      2.414283   139A      2.445726   140A      2.476402
     141A      2.495423   142A      2.568200   143A      2.583900
     144A      2.607254   145A      2.614561   146A      2.637806
     147A      2.650640   148A      2.669821   149A      2.698789
     150A      2.765883   151A      2.798851   152A      2.838882
     153A      2.852961   154A      2.890859   155A      2.938981
     156A      2.995414   157A      3.122196   158A      3.163472
     159A      3.196673   160A      3.350614   161A      3.400899
     162A      3.705637   163A      3.785553

    Final Occupation by Irrep:
              A
    DOCC [    29 ]

  @RHF Final Energy:  -342.65093787192285

   => Energetics <=

    Nuclear Repulsion Energy =            332.1657836609937817
    One-Electron Energy =               -1113.9046700296473773
    Two-Electron Energy =                 439.0879484967306894
    Total Energy =                       -342.6509378719228494

Computation Completed

Properties will be evaluated at   0.000000,   0.000000,   0.000000 [a0]

Properties computed using the SCF density matrix

  Nuclear Dipole Moment: [e a0]
     X:    -0.2661      Y:    -5.2117      Z:     0.8964

  Electronic Dipole Moment: [e a0]
     X:     0.6931      Y:     4.2300      Z:     0.7149

  Dipole Moment: [e a0]
     X:     0.4270      Y:    -0.9817      Z:     1.6113     Total:     1.9345

  Dipole Moment: [D]
     X:     1.0853      Y:    -2.4952      Z:     4.0954     Total:     4.9170

*** tstop() called on ds3 at Mon Apr 27 20:09:51 2020
Module time:
	user time   =      31.88 seconds =       0.53 minutes
	system time =      12.13 seconds =       0.20 minutes
	total time  =         43 seconds =       0.72 minutes
Total time:
	user time   =      31.88 seconds =       0.53 minutes
	system time =      12.13 seconds =       0.20 minutes
	total time  =         43 seconds =       0.72 minutes
                                     G D M A

                                 by Anthony Stone

                           version 2.2.06, 22 June 2011

               Distributed Multipoles from Gaussian wavefunctions

Starting at 20:9:51 on 27 Apr 2020

Using SCF density matrix from file ./SSI/SSI-017ASN-021LYS-1-dimer.test.13580.fchk

                         Distributed Multipole Analysis

Standard DMA

Positions and radii in angstrom
Multipole moments in atomic units, ea_0^k for rank k

C          x =  0.062150  y =  1.755344  z = -2.294475 angstrom
           Maximum rank =  0   Radius =  0.650 angstrom
                   Q00  =  -0.261832

C          x =  0.358150  y =  1.156344  z = -0.936475 angstrom
           Maximum rank =  0   Radius =  0.650 angstrom
                   Q00  =   0.810889

O          x = -0.505850  y =  1.147344  z = -0.067475 angstrom
           Maximum rank =  0   Radius =  0.650 angstrom
                   Q00  =  -0.813620

N          x =  1.571150  y =  0.645344  z = -0.749475 angstrom
           Maximum rank =  0   Radius =  0.650 angstrom
                   Q00  =  -0.530420

H          x =  0.820150  y =  2.506344  z = -2.519475 angstrom
           Maximum rank =  0   Radius =  0.325 angstrom
                   Q00  =   0.128585

H          x = -0.906850  y =  2.253344  z = -2.245475 angstrom
           Maximum rank =  0   Radius =  0.325 angstrom
                   Q00  =   0.146060

H          x =  1.860150  y =  0.392344  z =  0.182525 angstrom
           Maximum rank =  0   Radius =  0.325 angstrom
                   Q00  =   0.211215

H          x =  2.264150  y =  0.707344  z = -1.481475 angstrom
           Maximum rank =  0   Radius =  0.325 angstrom
                   Q00  =   0.241118

H          x =  0.050590  y =  0.995104  z = -3.089395 angstrom
           Maximum rank =  0   Radius =  0.325 angstrom
                   Q00  =   0.131603

C          x =  0.093150  y = -1.541656  z =  1.261525 angstrom
           Maximum rank =  0   Radius =  0.650 angstrom
                   Q00  =  -0.027201

C          x = -0.771850  y = -2.606656  z =  0.607525 angstrom
           Maximum rank =  0   Radius =  0.650 angstrom
                   Q00  =  -0.225762

N          x = -0.751850  y = -0.495656  z =  1.924525 angstrom
           Maximum rank =  0   Radius =  0.650 angstrom
                   Q00  =  -0.164464

H          x =  0.728150  y = -2.029656  z =  2.008525 angstrom
           Maximum rank =  0   Radius =  0.325 angstrom
                   Q00  =   0.113012

H          x =  0.743150  y = -1.107656  z =  0.502525 angstrom
           Maximum rank =  0   Radius =  0.325 angstrom
                   Q00  =   0.115691

H          x = -1.429850  y = -2.127656  z = -0.119475 angstrom
           Maximum rank =  0   Radius =  0.325 angstrom
                   Q00  =   0.102426

H          x = -1.387850  y = -3.090656  z =  1.368525 angstrom
           Maximum rank =  0   Radius =  0.325 angstrom
                   Q00  =   0.100364

H          x = -1.468850  y = -0.905656  z =  2.510525 angstrom
           Maximum rank =  0   Radius =  0.325 angstrom
                   Q00  =   0.235592

H          x = -0.189850  y =  0.108344  z =  2.512525 angstrom
           Maximum rank =  0   Radius =  0.325 angstrom
                   Q00  =   0.242681

H          x = -1.192850  y =  0.106344  z =  1.232525 angstrom
           Maximum rank =  0   Radius =  0.325 angstrom
                   Q00  =   0.299994

H          x = -0.169000  y = -3.372666  z =  0.097815 angstrom
           Maximum rank =  0   Radius =  0.325 angstrom
                   Q00  =   0.144071

Total multipoles referred to origin at
           x =   0.000000,  y =    0.000000,  z =    0.000000 angstrom
                   Q00  =   1.000000

Finished at 20:9:51 on 27 Apr 2020

  DMA results are available in the Python driver through the
	  variable('DMA DISTRIBUTED MULTIPOLES')
  and
	  variable('DMA TOTAL MULTIPOLES')
  commands.

    Psi4 stopped on: Monday, 27 April 2020 08:09PM
    Psi4 wall time for execution: 0:00:43.45

*** Psi4 exiting successfully. Buy a developer a beer!
