                               Psi4 1.3.2 release

  ==> Input File <==

--------------------------------------------------------------------------
import numpy as np
set {scf_type pk
basis cc-pvdz
d_convergence 10
gdma_switch   0
gdma_limit    0
gdma_origin   [ 0.0,  0.0,  0.0 ]
}
molecule test {
    units Angstrom
    0 1
    --
    0 1
    C               -1.923865431377639     0.757897629534996     0.469122912377323
    C                0.020134568622361     1.911897629534996     1.484122912377323
    N                0.789134568622361     0.840897629534996     1.388122912377323
    N               -1.243865431377639     1.898897629534996     1.078122912377323
    N                0.548134568622361     3.030897629534996     1.943122912377323
    H                0.482134568622361     0.036897629534996     0.844122912377323
    H                1.761134568622361     0.914897629534996     1.635122912377323
    H               -1.758865431377639     2.765897629534996     1.135122912377323
    H                0.009134568622361     3.879897629534996     1.965122912377323
    H                1.499134568622361     3.049897629534996     2.324122912377323
    H               -1.232865431377639     0.167897629534996    -0.131877087622677
    H               -2.692865431377639     1.132897629534996    -0.210877087622677
    H               -2.408955431377639     0.109916629534996     1.213982912377323
    C               -0.677865431377639    -3.047102370465004    -1.655877087622677
    C                0.498134568622361    -2.081102370465004    -1.579877087622677
    O                0.722134568622361    -1.449102370465004    -0.532877087622677
    O                1.216134568622361    -1.903102370465004    -2.594877087622677
    H               -0.399865431377639    -3.923102370465004    -2.239877087622677
    H               -1.442865431377639    -2.521102370465004    -2.225877087622676
    H               -1.067355431377639    -3.320241170465004    -0.664067087622677

}
e, wfn = energy('scf', return_wfn=True)
gdma(wfn)
dmavals = variable('DMA DISTRIBUTED MULTIPOLES')
charges = np.array(dmavals)
print(charges)
np.save('SSI-084ARG-089ASP-1-dimer.npy', np.array(charges))--------------------------------------------------------------------------

*** tstart() called on ds3
*** at Tue Apr 28 21:11:36 2020

   => Loading Basis Set <=

    Name: CC-PVDZ
    Role: ORBITAL
    Keyword: BASIS
    atoms 1-2, 14-15  entry C          line   138 file /theoryfs2/ds/metcalf/miniconda2/envs/tf2gpu/share/psi4/basis/cc-pvdz.gbs
    atoms 3-5         entry N          line   168 file /theoryfs2/ds/metcalf/miniconda2/envs/tf2gpu/share/psi4/basis/cc-pvdz.gbs
    atoms 6-13, 18-20 entry H          line    22 file /theoryfs2/ds/metcalf/miniconda2/envs/tf2gpu/share/psi4/basis/cc-pvdz.gbs
    atoms 16-17       entry O          line   198 file /theoryfs2/ds/metcalf/miniconda2/envs/tf2gpu/share/psi4/basis/cc-pvdz.gbs

         ---------------------------------------------------------
                                   SCF
               by Justin Turney, Rob Parrish, Andy Simmonett
                          and Daniel G. A. Smith
                              RHF Reference
                        1 Threads,    500 MiB Core
         ---------------------------------------------------------

  ==> Geometry <==

    Molecular point group: c1
    Full point group: C1

    Geometry (in Angstrom), charge = 0, multiplicity = 1:

       Center              X                  Y                   Z               Mass
    ------------   -----------------  -----------------  -----------------  -----------------
         C           -1.923865431378     0.757897629535     0.469122912377    12.000000000000
         C            0.020134568622     1.911897629535     1.484122912377    12.000000000000
         N            0.789134568622     0.840897629535     1.388122912377    14.003074004430
         N           -1.243865431378     1.898897629535     1.078122912377    14.003074004430
         N            0.548134568622     3.030897629535     1.943122912377    14.003074004430
         H            0.482134568622     0.036897629535     0.844122912377     1.007825032230
         H            1.761134568622     0.914897629535     1.635122912377     1.007825032230
         H           -1.758865431378     2.765897629535     1.135122912377     1.007825032230
         H            0.009134568622     3.879897629535     1.965122912377     1.007825032230
         H            1.499134568622     3.049897629535     2.324122912377     1.007825032230
         H           -1.232865431378     0.167897629535    -0.131877087623     1.007825032230
         H           -2.692865431378     1.132897629535    -0.210877087623     1.007825032230
         H           -2.408955431378     0.109916629535     1.213982912377     1.007825032230
         C           -0.677865431378    -3.047102370465    -1.655877087623    12.000000000000
         C            0.498134568622    -2.081102370465    -1.579877087623    12.000000000000
         O            0.722134568622    -1.449102370465    -0.532877087623    15.994914619570
         O            1.216134568622    -1.903102370465    -2.594877087623    15.994914619570
         H           -0.399865431378    -3.923102370465    -2.239877087623     1.007825032230
         H           -1.442865431378    -2.521102370465    -2.225877087623     1.007825032230
         H           -1.067355431378    -3.320241170465    -0.664067087623     1.007825032230

  Running in c1 symmetry.

  Rotational constants: A =      0.09715  B =      0.01884  C =      0.01684 [cm^-1]
  Rotational constants: A =   2912.46579  B =    564.72499  C =    504.70182 [MHz]
  Nuclear repulsion =  445.458408082973847

  Charge       = 0
  Multiplicity = 1
  Electrons    = 72
  Nalpha       = 36
  Nbeta        = 36

  ==> Algorithm <==

  SCF Algorithm Type is PK.
  DIIS enabled.
  MOM disabled.
  Fractional occupation disabled.
  Guess Type is SAD.
  Energy threshold   = 1.00e-06
  Density threshold  = 1.00e-10
  Integral threshold = 0.00e+00

  ==> Primary Basis <==

  Basis Set: CC-PVDZ
    Blend: CC-PVDZ
    Number of shells: 87
    Number of basis function: 181
    Number of Cartesian functions: 190
    Spherical Harmonics?: true
    Max angular momentum: 2

  ==> Pre-Iterations <==

   -------------------------------------------------------
    Irrep   Nso     Nmo     Nalpha   Nbeta   Ndocc  Nsocc
   -------------------------------------------------------
     A        181     181       0       0       0       0
   -------------------------------------------------------
    Total     181     181      36      36      36       0
   -------------------------------------------------------

  ==> Integral Setup <==

  Using integral reordering PK algorithm.
  Sizing the integral batches needed.
  Building batch lookup table.
   Calculation information:
      Number of atoms:                  20
      Number of AO shells:              87
      Number of primitives:            253
      Number of atomic orbitals:       190
      Number of basis functions:       181

      Integral cutoff                 1.00e-12
      Number of threads:                 1

	Batch   1 pq = [       0,    9405] index = [             0,44231715] size =     44231715
	Batch   2 pq = [    9405,   13301] index = [      44231715,88464951] size =     44233236
	Batch   3 pq = [   13301,   16471] index = [      88464951,135655156] size =     47190205
  Task number: 13
  Buffer size: 11059200
  Buffer per thread: 2
  We computed 5725258 shell quartets total.
  Whereas there are 7328706 unique shell quartets.

  ==> DiskJK: Disk-Based J/K Matrices <==

    J tasked:                  Yes
    K tasked:                  Yes
    wK tasked:                  No
    Memory [MiB]:              375
    Schwarz Cutoff:          1E-12

    OpenMP threads:              1

  Minimum eigenvalue in the overlap matrix is 3.9467477884E-03.
  Using Symmetric Orthogonalization.

  SCF Guess: Superposition of Atomic Densities via on-the-fly atomic UHF.

  ==> Iterations <==

                        Total Energy        Delta E     RMS |[F,P]|

   @RHF iter SAD:  -469.63675260360480   -4.69637e+02   0.00000e+00
   @RHF iter   1:  -470.65678773650620   -1.02004e+00   4.32390e-03 DIIS
   @RHF iter   2:  -470.89063768383880   -2.33850e-01   2.31407e-03 DIIS
   @RHF iter   3:  -470.95399226885172   -6.33546e-02   4.05793e-04 DIIS
   @RHF iter   4:  -470.95746459293804   -3.47232e-03   1.45665e-04 DIIS
   @RHF iter   5:  -470.95789678087078   -4.32188e-04   2.91153e-05 DIIS
   @RHF iter   6:  -470.95792055532456   -2.37745e-05   1.46824e-05 DIIS
   @RHF iter   7:  -470.95792471498203   -4.15966e-06   3.55091e-06 DIIS
   @RHF iter   8:  -470.95792525265404   -5.37672e-07   1.57368e-06 DIIS
   @RHF iter   9:  -470.95792533534672   -8.26927e-08   5.74996e-07 DIIS
   @RHF iter  10:  -470.95792535249893   -1.71522e-08   1.99488e-07 DIIS
   @RHF iter  11:  -470.95792535449374   -1.99481e-09   5.38062e-08 DIIS
   @RHF iter  12:  -470.95792535460288   -1.09139e-10   1.87818e-08 DIIS
   @RHF iter  13:  -470.95792535461356   -1.06866e-11   4.46021e-09 DIIS
   @RHF iter  14:  -470.95792535461237    1.19371e-12   1.25387e-09 DIIS
   @RHF iter  15:  -470.95792535461470   -2.33058e-12   4.08913e-10 DIIS
   @RHF iter  16:  -470.95792535461578   -1.08002e-12   1.47281e-10 DIIS
   @RHF iter  17:  -470.95792535461288    2.89901e-12   5.92673e-11 DIIS
  Energy and wave function converged.

  ==> Post-Iterations <==

    Orbital Energies [Eh]
    ---------------------

    Doubly Occupied:

       1A    -20.393539     2A    -20.367371     3A    -15.678206
       4A    -15.668162     5A    -15.642986     6A    -11.466072
       7A    -11.310680     8A    -11.234662     9A    -11.155968
      10A     -1.421633    11A     -1.284359    12A     -1.275013
      13A     -1.258140    14A     -1.151820    15A     -1.016977
      16A     -0.910704    17A     -0.904801    18A     -0.854711
      19A     -0.817404    20A     -0.736612    21A     -0.719347
      22A     -0.700005    23A     -0.673390    24A     -0.618772
      25A     -0.615364    26A     -0.591527    27A     -0.527359
      28A     -0.519191    29A     -0.517082    30A     -0.490256
      31A     -0.463783    32A     -0.457496    33A     -0.421345
      34A     -0.310263    35A     -0.284977    36A     -0.280761

    Virtual:

      37A      0.093558    38A      0.131838    39A      0.147136
      40A      0.155896    41A      0.192511    42A      0.208379
      43A      0.234153    44A      0.251595    45A      0.287142
      46A      0.302031    47A      0.312308    48A      0.323134
      49A      0.348420    50A      0.384612    51A      0.401409
      52A      0.448240    53A      0.460181    54A      0.470044
      55A      0.564116    56A      0.580215    57A      0.591306
      58A      0.611917    59A      0.635883    60A      0.650693
      61A      0.658213    62A      0.669088    63A      0.673918
      64A      0.702858    65A      0.715345    66A      0.779064
      67A      0.792792    68A      0.802342    69A      0.828040
      70A      0.831603    71A      0.854207    72A      0.857830
      73A      0.871941    74A      0.890905    75A      0.915833
      76A      0.922918    77A      0.932416    78A      0.936365
      79A      0.944496    80A      0.958025    81A      0.984537
      82A      1.011595    83A      1.022024    84A      1.028275
      85A      1.052315    86A      1.072501    87A      1.125814
      88A      1.151999    89A      1.171051    90A      1.218880
      91A      1.233577    92A      1.244421    93A      1.254699
      94A      1.270688    95A      1.311211    96A      1.331093
      97A      1.358566    98A      1.376733    99A      1.411870
     100A      1.453998   101A      1.463512   102A      1.481825
     103A      1.514994   104A      1.537544   105A      1.555121
     106A      1.580925   107A      1.604711   108A      1.623038
     109A      1.637846   110A      1.643063   111A      1.682042
     112A      1.687893   113A      1.733446   114A      1.741424
     115A      1.755495   116A      1.769361   117A      1.826305
     118A      1.835313   119A      1.877126   120A      1.882064
     121A      1.887145   122A      1.916857   123A      1.931549
     124A      1.942326   125A      1.946401   126A      1.974895
     127A      1.992779   128A      2.001511   129A      2.036924
     130A      2.069682   131A      2.091645   132A      2.115089
     133A      2.127984   134A      2.141794   135A      2.161352
     136A      2.232879   137A      2.262456   138A      2.266089
     139A      2.297237   140A      2.301123   141A      2.342414
     142A      2.351634   143A      2.391258   144A      2.423454
     145A      2.428983   146A      2.462247   147A      2.468476
     148A      2.504739   149A      2.552195   150A      2.570547
     151A      2.586816   152A      2.616633   153A      2.661975
     154A      2.684686   155A      2.721125   156A      2.752084
     157A      2.789774   158A      2.821821   159A      2.847714
     160A      2.862335   161A      2.877628   162A      2.882787
     163A      2.920602   164A      2.929701   165A      2.954541
     166A      3.014834   167A      3.120248   168A      3.157711
     169A      3.166261   170A      3.171942   171A      3.208371
     172A      3.244234   173A      3.259088   174A      3.528934
     175A      3.641168   176A      3.681840   177A      3.698292
     178A      3.761612   179A      3.953183   180A      3.997307
     181A      4.087724

    Final Occupation by Irrep:
              A
    DOCC [    36 ]

  @RHF Final Energy:  -470.95792535461288

   => Energetics <=

    Nuclear Repulsion Energy =            445.4584080829738468
    One-Electron Energy =               -1527.3511879266657161
    Two-Electron Energy =                 610.9348544890789299
    Total Energy =                       -470.9579253546129394

Computation Completed

Properties will be evaluated at   0.000000,   0.000000,   0.000000 [a0]

Properties computed using the SCF density matrix

  Nuclear Dipole Moment: [e a0]
     X:    -6.7896      Y:     2.1175      Z:     3.3893

  Electronic Dipole Moment: [e a0]
     X:     4.8706      Y:     3.4503      Z:     1.2580

  Dipole Moment: [e a0]
     X:    -1.9190      Y:     5.5678      Z:     4.6473     Total:     7.5020

  Dipole Moment: [D]
     X:    -4.8775      Y:    14.1518      Z:    11.8122     Total:    19.0681

*** tstop() called on ds3 at Tue Apr 28 21:13:00 2020
Module time:
	user time   =      41.82 seconds =       0.70 minutes
	system time =      18.88 seconds =       0.31 minutes
	total time  =         84 seconds =       1.40 minutes
Total time:
	user time   =      41.82 seconds =       0.70 minutes
	system time =      18.88 seconds =       0.31 minutes
	total time  =         84 seconds =       1.40 minutes
                                     G D M A

                                 by Anthony Stone

                           version 2.2.06, 22 June 2011

               Distributed Multipoles from Gaussian wavefunctions

Starting at 21:13:0 on 28 Apr 2020

Using SCF density matrix from file ./SSI/SSI-084ARG-089ASP-1-dimer.test.13926.fchk

                         Distributed Multipole Analysis

Standard DMA

Positions and radii in angstrom
Multipole moments in atomic units, ea_0^k for rank k

C          x = -1.923865  y =  0.757898  z =  0.469123 angstrom
           Maximum rank =  0   Radius =  0.650 angstrom
                   Q00  =  -0.084015

C          x =  0.020135  y =  1.911898  z =  1.484123 angstrom
           Maximum rank =  0   Radius =  0.650 angstrom
                   Q00  =   1.078432

N          x =  0.789135  y =  0.840898  z =  1.388123 angstrom
           Maximum rank =  0   Radius =  0.650 angstrom
                   Q00  =  -0.588341

N          x = -1.243865  y =  1.898898  z =  1.078123 angstrom
           Maximum rank =  0   Radius =  0.650 angstrom
                   Q00  =  -0.481941

N          x =  0.548135  y =  3.030898  z =  1.943123 angstrom
           Maximum rank =  0   Radius =  0.650 angstrom
                   Q00  =  -0.594965

H          x =  0.482135  y =  0.036898  z =  0.844123 angstrom
           Maximum rank =  0   Radius =  0.325 angstrom
                   Q00  =   0.323133

H          x =  1.761135  y =  0.914898  z =  1.635123 angstrom
           Maximum rank =  0   Radius =  0.325 angstrom
                   Q00  =   0.247349

H          x = -1.758865  y =  2.765898  z =  1.135123 angstrom
           Maximum rank =  0   Radius =  0.325 angstrom
                   Q00  =   0.205294

H          x =  0.009135  y =  3.879898  z =  1.965123 angstrom
           Maximum rank =  0   Radius =  0.325 angstrom
                   Q00  =   0.239928

H          x =  1.499135  y =  3.049898  z =  2.324123 angstrom
           Maximum rank =  0   Radius =  0.325 angstrom
                   Q00  =   0.257842

H          x = -1.232865  y =  0.167898  z = -0.131877 angstrom
           Maximum rank =  0   Radius =  0.325 angstrom
                   Q00  =   0.109374

H          x = -2.692865  y =  1.132898  z = -0.210877 angstrom
           Maximum rank =  0   Radius =  0.325 angstrom
                   Q00  =   0.132759

H          x = -2.408955  y =  0.109917  z =  1.213983 angstrom
           Maximum rank =  0   Radius =  0.325 angstrom
                   Q00  =   0.114790

C          x = -0.677865  y = -3.047102  z = -1.655877 angstrom
           Maximum rank =  0   Radius =  0.650 angstrom
                   Q00  =  -0.287325

C          x =  0.498135  y = -2.081102  z = -1.579877 angstrom
           Maximum rank =  0   Radius =  0.650 angstrom
                   Q00  =   0.944436

O          x =  0.722135  y = -1.449102  z = -0.532877 angstrom
           Maximum rank =  0   Radius =  0.650 angstrom
                   Q00  =  -0.957302

O          x =  1.216135  y = -1.903102  z = -2.594877 angstrom
           Maximum rank =  0   Radius =  0.650 angstrom
                   Q00  =  -0.899540

H          x = -0.399865  y = -3.923102  z = -2.239877 angstrom
           Maximum rank =  0   Radius =  0.325 angstrom
                   Q00  =   0.098229

H          x = -1.442865  y = -2.521102  z = -2.225877 angstrom
           Maximum rank =  0   Radius =  0.325 angstrom
                   Q00  =   0.085639

H          x = -1.067355  y = -3.320241  z = -0.664067 angstrom
           Maximum rank =  0   Radius =  0.325 angstrom
                   Q00  =   0.056224

Total multipoles referred to origin at
           x =   0.000000,  y =    0.000000,  z =    0.000000 angstrom
                   Q00  =  -0.000000

Finished at 21:13:0 on 28 Apr 2020

  DMA results are available in the Python driver through the
	  variable('DMA DISTRIBUTED MULTIPOLES')
  and
	  variable('DMA TOTAL MULTIPOLES')
  commands.

    Psi4 stopped on: Tuesday, 28 April 2020 09:13PM
    Psi4 wall time for execution: 0:01:24.21

*** Psi4 exiting successfully. Buy a developer a beer!
