                               Psi4 1.3.2 release

  ==> Input File <==

--------------------------------------------------------------------------
import numpy as np
set {scf_type pk
basis cc-pvdz
d_convergence 10
gdma_switch   0
gdma_limit    0
gdma_origin   [ 0.0,  0.0,  0.0 ]
}
molecule test {
    units Angstrom
    0 1
    --
    0 1
    C                2.700549456782455     0.708832310753750    -1.644791336270449
    C                4.151549456782456     0.256832310753751    -1.694791336270449
    H                2.041549456782456    -0.084167689246249    -1.293791336270449
    H                2.611549456782456     1.542832310753750    -0.953791336270449
    H                2.406549456782456     1.038832310753750    -2.637791336270449
    H                4.487549456782456    -0.068167689246249    -0.722791336270449
    H                4.745549456782455     1.134832310753751    -1.937791336270449
    H                4.348275456782456    -0.528637689246249    -2.439331336270449
    C               -1.769450543217544    -2.493167689246250     0.225208663729551
    C                0.179549456782456     0.586832310753750     1.279208663729551
    C               -0.196450543217544    -0.742167689246250     1.094208663729551
    C               -0.623450543217544     1.611832310753750     0.788208663729551
    C               -1.369450543217544    -1.057167689246250     0.415208663729551
    C               -1.798450543217545     1.302832310753751     0.113208663729551
    C               -2.168450543217544    -0.027167689246249    -0.071791336270449
    H                1.091549456782456     0.822832310753750     1.803208663729551
    H                0.413549456782456    -1.537167689246250     1.491208663729551
    H               -0.336450543217544     2.644832310753750     0.932208663729550
    H               -2.427450543217545     2.098832310753751    -0.262791336270449
    H               -2.805450543217545    -2.551167689246250    -0.111791336270449
    H               -1.716450543217545    -2.984167689246249     1.199208663729551
    H               -3.090450543217545    -0.246167689246249    -0.586791336270449
    H               -1.124510543217544    -3.039497689246250    -0.478761336270449

}
e, wfn = energy('scf', return_wfn=True)
gdma(wfn)
dmavals = variable('DMA DISTRIBUTED MULTIPOLES')
charges = np.array(dmavals)
print(charges)
np.save('SSI-062ILE-107PHE-1-dimer.npy', np.array(charges))--------------------------------------------------------------------------

*** tstart() called on ds3
*** at Tue Apr 28 13:19:08 2020

   => Loading Basis Set <=

    Name: CC-PVDZ
    Role: ORBITAL
    Keyword: BASIS
    atoms 1-2, 9-15  entry C          line   138 file /theoryfs2/ds/metcalf/miniconda2/envs/tf2gpu/share/psi4/basis/cc-pvdz.gbs
    atoms 3-8, 16-23 entry H          line    22 file /theoryfs2/ds/metcalf/miniconda2/envs/tf2gpu/share/psi4/basis/cc-pvdz.gbs

         ---------------------------------------------------------
                                   SCF
               by Justin Turney, Rob Parrish, Andy Simmonett
                          and Daniel G. A. Smith
                              RHF Reference
                        1 Threads,    500 MiB Core
         ---------------------------------------------------------

  ==> Geometry <==

    Molecular point group: c1
    Full point group: C1

    Geometry (in Angstrom), charge = 0, multiplicity = 1:

       Center              X                  Y                   Z               Mass
    ------------   -----------------  -----------------  -----------------  -----------------
         C            2.700549456782     0.708832310754    -1.644791336270    12.000000000000
         C            4.151549456782     0.256832310754    -1.694791336270    12.000000000000
         H            2.041549456782    -0.084167689246    -1.293791336270     1.007825032230
         H            2.611549456782     1.542832310754    -0.953791336270     1.007825032230
         H            2.406549456782     1.038832310754    -2.637791336270     1.007825032230
         H            4.487549456782    -0.068167689246    -0.722791336270     1.007825032230
         H            4.745549456782     1.134832310754    -1.937791336270     1.007825032230
         H            4.348275456782    -0.528637689246    -2.439331336270     1.007825032230
         C           -1.769450543218    -2.493167689246     0.225208663730    12.000000000000
         C            0.179549456782     0.586832310754     1.279208663730    12.000000000000
         C           -0.196450543218    -0.742167689246     1.094208663730    12.000000000000
         C           -0.623450543218     1.611832310754     0.788208663730    12.000000000000
         C           -1.369450543218    -1.057167689246     0.415208663730    12.000000000000
         C           -1.798450543218     1.302832310754     0.113208663730    12.000000000000
         C           -2.168450543218    -0.027167689246    -0.071791336270    12.000000000000
         H            1.091549456782     0.822832310754     1.803208663730     1.007825032230
         H            0.413549456782    -1.537167689246     1.491208663730     1.007825032230
         H           -0.336450543218     2.644832310754     0.932208663730     1.007825032230
         H           -2.427450543218     2.098832310754    -0.262791336270     1.007825032230
         H           -2.805450543218    -2.551167689246    -0.111791336270     1.007825032230
         H           -1.716450543218    -2.984167689246     1.199208663730     1.007825032230
         H           -3.090450543218    -0.246167689246    -0.586791336270     1.007825032230
         H           -1.124510543218    -3.039497689246    -0.478761336270     1.007825032230

  Running in c1 symmetry.

  Rotational constants: A =      0.06682  B =      0.02341  C =      0.02014 [cm^-1]
  Rotational constants: A =   2003.23235  B =    701.74024  C =    603.80935 [MHz]
  Nuclear repulsion =  403.304818000787066

  Charge       = 0
  Multiplicity = 1
  Electrons    = 68
  Nalpha       = 34
  Nbeta        = 34

  ==> Algorithm <==

  SCF Algorithm Type is PK.
  DIIS enabled.
  MOM disabled.
  Fractional occupation disabled.
  Guess Type is SAD.
  Energy threshold   = 1.00e-06
  Density threshold  = 1.00e-10
  Integral threshold = 0.00e+00

  ==> Primary Basis <==

  Basis Set: CC-PVDZ
    Blend: CC-PVDZ
    Number of shells: 96
    Number of basis function: 196
    Number of Cartesian functions: 205
    Spherical Harmonics?: true
    Max angular momentum: 2

  ==> Pre-Iterations <==

   -------------------------------------------------------
    Irrep   Nso     Nmo     Nalpha   Nbeta   Ndocc  Nsocc
   -------------------------------------------------------
     A        196     196       0       0       0       0
   -------------------------------------------------------
    Total     196     196      34      34      34       0
   -------------------------------------------------------

  ==> Integral Setup <==

  Using integral reordering PK algorithm.
  Sizing the integral batches needed.
  Building batch lookup table.
   Calculation information:
      Number of atoms:                  23
      Number of AO shells:              96
      Number of primitives:            268
      Number of atomic orbitals:       205
      Number of basis functions:       196

      Integral cutoff                 1.00e-12
      Number of threads:                 1

	Batch   1 pq = [       0,    9405] index = [             0,44231715] size =     44231715
	Batch   2 pq = [    9405,   13301] index = [      44231715,88464951] size =     44233236
	Batch   3 pq = [   13301,   16290] index = [      88464951,132690195] size =     44225244
	Batch   4 pq = [   16290,   18810] index = [     132690195,176917455] size =     44227260
	Batch   5 pq = [   18810,   19306] index = [     176917455,186370471] size =      9453016
  Task number: 17
  Buffer size: 11059200
  Buffer per thread: 2
  We computed 9048075 shell quartets total.
  Whereas there are 10841496 unique shell quartets.

  ==> DiskJK: Disk-Based J/K Matrices <==

    J tasked:                  Yes
    K tasked:                  Yes
    wK tasked:                  No
    Memory [MiB]:              375
    Schwarz Cutoff:          1E-12

    OpenMP threads:              1

  Minimum eigenvalue in the overlap matrix is 3.0964957416E-04.
  Using Symmetric Orthogonalization.

  SCF Guess: Superposition of Atomic Densities via on-the-fly atomic UHF.

  ==> Iterations <==

                        Total Energy        Delta E     RMS |[F,P]|

   @RHF iter SAD:  -347.89425804370461   -3.47894e+02   0.00000e+00
   @RHF iter   1:  -348.76620141788470   -8.71943e-01   2.91137e-03 DIIS
   @RHF iter   2:  -348.96018460245062   -1.93983e-01   1.20872e-03 DIIS
   @RHF iter   3:  -348.99066736815593   -3.04828e-02   2.58257e-04 DIIS
   @RHF iter   4:  -348.99313130400208   -2.46394e-03   5.51090e-05 DIIS
   @RHF iter   5:  -348.99320892909600   -7.76251e-05   1.87593e-05 DIIS
   @RHF iter   6:  -348.99321747736946   -8.54827e-06   4.91984e-06 DIIS
   @RHF iter   7:  -348.99321816850039   -6.91131e-07   1.21827e-06 DIIS
   @RHF iter   8:  -348.99321822085312   -5.23527e-08   3.14907e-07 DIIS
   @RHF iter   9:  -348.99321822821940   -7.36628e-09   1.35110e-07 DIIS
   @RHF iter  10:  -348.99321823002936   -1.80995e-09   6.48479e-08 DIIS
   @RHF iter  11:  -348.99321823063076   -6.01403e-10   2.19401e-08 DIIS
   @RHF iter  12:  -348.99321823069567   -6.49152e-11   8.08212e-09 DIIS
   @RHF iter  13:  -348.99321823069874   -3.06954e-12   3.21043e-09 DIIS
   @RHF iter  14:  -348.99321823070147   -2.72848e-12   6.17815e-10 DIIS
   @RHF iter  15:  -348.99321823070119    2.84217e-13   2.56306e-10 DIIS
   @RHF iter  16:  -348.99321823070221   -1.02318e-12   7.58677e-11 DIIS
  Energy and wave function converged.

  ==> Post-Iterations <==

    Orbital Energies [Eh]
    ---------------------

    Doubly Occupied:

       1A    -11.239938     2A    -11.235618     3A    -11.234871
       4A    -11.230622     5A    -11.229722     6A    -11.229627
       7A    -11.229400     8A    -11.211285     9A    -11.208338
      10A     -1.153180    11A     -1.044990    12A     -1.015782
      13A     -1.011408    14A     -0.931202    15A     -0.832929
      16A     -0.825625    17A     -0.795169    18A     -0.691199
      19A     -0.631525    20A     -0.630409    21A     -0.595799
      22A     -0.592152    23A     -0.582513    24A     -0.576762
      25A     -0.562794    26A     -0.535460    27A     -0.499050
      28A     -0.487535    29A     -0.484854    30A     -0.482404
      31A     -0.481132    32A     -0.475965    33A     -0.331641
      34A     -0.322093

    Virtual:

      35A      0.134016    36A      0.142842    37A      0.174743
      38A      0.193817    39A      0.202447    40A      0.218848
      41A      0.237684    42A      0.246429    43A      0.251268
      44A      0.259375    45A      0.266954    46A      0.273032
      47A      0.277826    48A      0.290421    49A      0.298814
      50A      0.309306    51A      0.367116    52A      0.376389
      53A      0.402951    54A      0.452137    55A      0.462767
      56A      0.475114    57A      0.501377    58A      0.566418
      59A      0.583920    60A      0.599189    61A      0.603403
      62A      0.609964    63A      0.628756    64A      0.656239
      65A      0.681828    66A      0.688568    67A      0.692769
      68A      0.708376    69A      0.722920    70A      0.740853
      71A      0.744839    72A      0.750243    73A      0.759377
      74A      0.774467    75A      0.788884    76A      0.798395
      77A      0.836684    78A      0.858180    79A      0.859201
      80A      0.865510    81A      0.879009    82A      0.888660
      83A      0.894824    84A      0.897654    85A      0.898914
      86A      0.903218    87A      0.911820    88A      0.924728
      89A      0.929840    90A      0.932981    91A      0.940708
      92A      0.961735    93A      0.987018    94A      1.002048
      95A      1.014328    96A      1.051822    97A      1.120521
      98A      1.132690    99A      1.135375   100A      1.138887
     101A      1.154623   102A      1.156014   103A      1.194902
     104A      1.228960   105A      1.234270   106A      1.254899
     107A      1.256014   108A      1.257232   109A      1.299319
     110A      1.306119   111A      1.321344   112A      1.326935
     113A      1.415532   114A      1.471408   115A      1.485238
     116A      1.509188   117A      1.524547   118A      1.554542
     119A      1.581722   120A      1.603873   121A      1.678756
     122A      1.688060   123A      1.692028   124A      1.704143
     125A      1.738556   126A      1.745873   127A      1.763771
     128A      1.794755   129A      1.816710   130A      1.855083
     131A      1.867471   132A      1.878477   133A      1.888359
     134A      1.894591   135A      1.900923   136A      1.910812
     137A      1.916320   138A      1.929454   139A      1.946648
     140A      1.950915   141A      1.958249   142A      1.959531
     143A      1.966891   144A      1.972503   145A      1.980588
     146A      1.983072   147A      1.988397   148A      2.009999
     149A      2.033627   150A      2.051723   151A      2.082963
     152A      2.100143   153A      2.107921   154A      2.129553
     155A      2.134763   156A      2.157865   157A      2.165362
     158A      2.173407   159A      2.196416   160A      2.243140
     161A      2.274198   162A      2.289679   163A      2.302434
     164A      2.311335   165A      2.323031   166A      2.332734
     167A      2.351268   168A      2.452572   169A      2.461740
     170A      2.477654   171A      2.480834   172A      2.519698
     173A      2.531492   174A      2.569308   175A      2.590853
     176A      2.631578   177A      2.732392   178A      2.752523
     179A      2.768332   180A      2.780774   181A      2.788971
     182A      2.806840   183A      2.813753   184A      2.845988
     185A      2.864167   186A      2.868657   187A      2.887273
     188A      2.964593   189A      2.975370   190A      2.985287
     191A      3.010415   192A      3.036052   193A      3.163671
     194A      3.203095   195A      3.304438   196A      3.973580

    Final Occupation by Irrep:
              A
    DOCC [    34 ]

  @RHF Final Energy:  -348.99321823070221

   => Energetics <=

    Nuclear Repulsion Energy =            403.3048180007870656
    One-Electron Energy =               -1269.3500897777375940
    Two-Electron Energy =                 517.0520535462484304
    Total Energy =                       -348.9932182307021549

Computation Completed

Properties will be evaluated at   0.000000,   0.000000,   0.000000 [a0]

Properties computed using the SCF density matrix

  Nuclear Dipole Moment: [e a0]
     X:     9.9797      Y:    -1.6463      Z:    -5.6244

  Electronic Dipole Moment: [e a0]
     X:   -10.0695      Y:     1.5378      Z:     5.6552

  Dipole Moment: [e a0]
     X:    -0.0898      Y:    -0.1086      Z:     0.0308     Total:     0.1442

  Dipole Moment: [D]
     X:    -0.2282      Y:    -0.2760      Z:     0.0782     Total:     0.3665

*** tstop() called on ds3 at Tue Apr 28 13:21:45 2020
Module time:
	user time   =      62.91 seconds =       1.05 minutes
	system time =      26.78 seconds =       0.45 minutes
	total time  =        157 seconds =       2.62 minutes
Total time:
	user time   =      62.91 seconds =       1.05 minutes
	system time =      26.78 seconds =       0.45 minutes
	total time  =        157 seconds =       2.62 minutes
                                     G D M A

                                 by Anthony Stone

                           version 2.2.06, 22 June 2011

               Distributed Multipoles from Gaussian wavefunctions

Starting at 13:21:45 on 28 Apr 2020

Using SCF density matrix from file ./SSI/SSI-062ILE-107PHE-1-dimer.test.15902.fchk

                         Distributed Multipole Analysis

Standard DMA

Positions and radii in angstrom
Multipole moments in atomic units, ea_0^k for rank k

C          x =  2.700549  y =  0.708832  z = -1.644791 angstrom
           Maximum rank =  0   Radius =  0.650 angstrom
                   Q00  =  -0.216203

C          x =  4.151549  y =  0.256832  z = -1.694791 angstrom
           Maximum rank =  0   Radius =  0.650 angstrom
                   Q00  =  -0.248349

H          x =  2.041549  y = -0.084168  z = -1.293791 angstrom
           Maximum rank =  0   Radius =  0.325 angstrom
                   Q00  =   0.085542

H          x =  2.611549  y =  1.542832  z = -0.953791 angstrom
           Maximum rank =  0   Radius =  0.325 angstrom
                   Q00  =   0.075125

H          x =  2.406549  y =  1.038832  z = -2.637791 angstrom
           Maximum rank =  0   Radius =  0.325 angstrom
                   Q00  =   0.076388

H          x =  4.487549  y = -0.068168  z = -0.722791 angstrom
           Maximum rank =  0   Radius =  0.325 angstrom
                   Q00  =   0.076455

H          x =  4.745549  y =  1.134832  z = -1.937791 angstrom
           Maximum rank =  0   Radius =  0.325 angstrom
                   Q00  =   0.071243

H          x =  4.348275  y = -0.528638  z = -2.439331 angstrom
           Maximum rank =  0   Radius =  0.325 angstrom
                   Q00  =   0.078965

C          x = -1.769451  y = -2.493168  z =  0.225209 angstrom
           Maximum rank =  0   Radius =  0.650 angstrom
                   Q00  =  -0.206389

C          x =  0.179549  y =  0.586832  z =  1.279209 angstrom
           Maximum rank =  0   Radius =  0.650 angstrom
                   Q00  =  -0.081411

C          x = -0.196451  y = -0.742168  z =  1.094209 angstrom
           Maximum rank =  0   Radius =  0.650 angstrom
                   Q00  =  -0.051931

C          x = -0.623451  y =  1.611832  z =  0.788209 angstrom
           Maximum rank =  0   Radius =  0.650 angstrom
                   Q00  =  -0.080841

C          x = -1.369451  y = -1.057168  z =  0.415209 angstrom
           Maximum rank =  0   Radius =  0.650 angstrom
                   Q00  =  -0.093198

C          x = -1.798451  y =  1.302832  z =  0.113209 angstrom
           Maximum rank =  0   Radius =  0.650 angstrom
                   Q00  =  -0.077548

C          x = -2.168451  y = -0.027168  z = -0.071791 angstrom
           Maximum rank =  0   Radius =  0.650 angstrom
                   Q00  =  -0.011223

H          x =  1.091549  y =  0.822832  z =  1.803209 angstrom
           Maximum rank =  0   Radius =  0.325 angstrom
                   Q00  =   0.064564

H          x =  0.413549  y = -1.537168  z =  1.491209 angstrom
           Maximum rank =  0   Radius =  0.325 angstrom
                   Q00  =   0.054703

H          x = -0.336451  y =  2.644832  z =  0.932209 angstrom
           Maximum rank =  0   Radius =  0.325 angstrom
                   Q00  =   0.061217

H          x = -2.427451  y =  2.098832  z = -0.262791 angstrom
           Maximum rank =  0   Radius =  0.325 angstrom
                   Q00  =   0.064961

H          x = -2.805451  y = -2.551168  z = -0.111791 angstrom
           Maximum rank =  0   Radius =  0.325 angstrom
                   Q00  =   0.098067

H          x = -1.716451  y = -2.984168  z =  1.199209 angstrom
           Maximum rank =  0   Radius =  0.325 angstrom
                   Q00  =   0.097592

H          x = -3.090451  y = -0.246168  z = -0.586791 angstrom
           Maximum rank =  0   Radius =  0.325 angstrom
                   Q00  =   0.057916

H          x = -1.124511  y = -3.039498  z = -0.478761 angstrom
           Maximum rank =  0   Radius =  0.325 angstrom
                   Q00  =   0.104353

Total multipoles referred to origin at
           x =   0.000000,  y =    0.000000,  z =    0.000000 angstrom
                   Q00  =  -0.000000

Finished at 13:21:45 on 28 Apr 2020

  DMA results are available in the Python driver through the
	  variable('DMA DISTRIBUTED MULTIPOLES')
  and
	  variable('DMA TOTAL MULTIPOLES')
  commands.

    Psi4 stopped on: Tuesday, 28 April 2020 01:21PM
    Psi4 wall time for execution: 0:02:37.48

*** Psi4 exiting successfully. Buy a developer a beer!
