                               Psi4 1.3.2 release

  ==> Input File <==

--------------------------------------------------------------------------
import numpy as np
set {scf_type pk
basis cc-pvdz
d_convergence 10
gdma_switch   0
gdma_limit    0
gdma_origin   [ 0.0,  0.0,  0.0 ]
}
molecule test {
    units Angstrom
    0 1
    --
    0 1
    C               -0.121542704441867     2.392655383492734    -1.389095464131541
    C                0.232457295558133     0.970655383492735    -0.941095464131541
    O               -0.646542704441867     0.346655383492734    -0.408095464131541
    O                1.361457295558133     0.474655383492734    -1.092095464131541
    H               -0.309542704441867     3.018655383492734    -0.514095464131541
    H               -1.008542704441867     2.385655383492734    -2.027095464131540
    H                0.740658295558133     2.769109383492734    -1.959085464131540
    C               -0.167542704441867    -1.925344616507266     2.530904535868459
    N               -0.566542704441867    -1.932344616507266     1.086904535868459
    H               -0.153542704441867    -1.162344616507266     0.556904535868459
    H               -0.330542704441867    -2.807344616507266     0.637904535868459
    H               -1.565542704441867    -1.803344616507266     0.992904535868459
    H                0.763457295558133    -2.482344616507266     2.674904535868459
    H               -0.946542704441867    -2.355344616507266     3.167904535868459
    H                0.009931295558133    -0.870438616507266     2.787177535868460

}
e, wfn = energy('scf', return_wfn=True)
gdma(wfn)
dmavals = variable('DMA DISTRIBUTED MULTIPOLES')
charges = np.array(dmavals)
print(charges)
np.save('SSI-028GLU-097LYS-1-dimer.npy', np.array(charges))--------------------------------------------------------------------------

*** tstart() called on ds3
*** at Mon Apr 27 22:50:04 2020

   => Loading Basis Set <=

    Name: CC-PVDZ
    Role: ORBITAL
    Keyword: BASIS
    atoms 1-2, 8     entry C          line   138 file /theoryfs2/ds/metcalf/miniconda2/envs/tf2gpu/share/psi4/basis/cc-pvdz.gbs
    atoms 3-4        entry O          line   198 file /theoryfs2/ds/metcalf/miniconda2/envs/tf2gpu/share/psi4/basis/cc-pvdz.gbs
    atoms 5-7, 10-15 entry H          line    22 file /theoryfs2/ds/metcalf/miniconda2/envs/tf2gpu/share/psi4/basis/cc-pvdz.gbs
    atoms 9          entry N          line   168 file /theoryfs2/ds/metcalf/miniconda2/envs/tf2gpu/share/psi4/basis/cc-pvdz.gbs

         ---------------------------------------------------------
                                   SCF
               by Justin Turney, Rob Parrish, Andy Simmonett
                          and Daniel G. A. Smith
                              RHF Reference
                        1 Threads,    500 MiB Core
         ---------------------------------------------------------

  ==> Geometry <==

    Molecular point group: c1
    Full point group: C1

    Geometry (in Angstrom), charge = 0, multiplicity = 1:

       Center              X                  Y                   Z               Mass
    ------------   -----------------  -----------------  -----------------  -----------------
         C           -0.121542704442     2.392655383493    -1.389095464132    12.000000000000
         C            0.232457295558     0.970655383493    -0.941095464132    12.000000000000
         O           -0.646542704442     0.346655383493    -0.408095464132    15.994914619570
         O            1.361457295558     0.474655383493    -1.092095464132    15.994914619570
         H           -0.309542704442     3.018655383493    -0.514095464132     1.007825032230
         H           -1.008542704442     2.385655383493    -2.027095464132     1.007825032230
         H            0.740658295558     2.769109383493    -1.959085464132     1.007825032230
         C           -0.167542704442    -1.925344616507     2.530904535868    12.000000000000
         N           -0.566542704442    -1.932344616507     1.086904535868    14.003074004430
         H           -0.153542704442    -1.162344616507     0.556904535868     1.007825032230
         H           -0.330542704442    -2.807344616507     0.637904535868     1.007825032230
         H           -1.565542704442    -1.803344616507     0.992904535868     1.007825032230
         H            0.763457295558    -2.482344616507     2.674904535868     1.007825032230
         H           -0.946542704442    -2.355344616507     3.167904535868     1.007825032230
         H            0.009931295558    -0.870438616507     2.787177535868     1.007825032230

  Running in c1 symmetry.

  Rotational constants: A =      0.25732  B =      0.04045  C =      0.03818 [cm^-1]
  Rotational constants: A =   7714.28349  B =   1212.52933  C =   1144.54422 [MHz]
  Nuclear repulsion =  239.046990109108151

  Charge       = 0
  Multiplicity = 1
  Electrons    = 50
  Nalpha       = 25
  Nbeta        = 25

  ==> Algorithm <==

  SCF Algorithm Type is PK.
  DIIS enabled.
  MOM disabled.
  Fractional occupation disabled.
  Guess Type is SAD.
  Energy threshold   = 1.00e-06
  Density threshold  = 1.00e-10
  Integral threshold = 0.00e+00

  ==> Primary Basis <==

  Basis Set: CC-PVDZ
    Blend: CC-PVDZ
    Number of shells: 63
    Number of basis function: 129
    Number of Cartesian functions: 135
    Spherical Harmonics?: true
    Max angular momentum: 2

  ==> Pre-Iterations <==

   -------------------------------------------------------
    Irrep   Nso     Nmo     Nalpha   Nbeta   Ndocc  Nsocc
   -------------------------------------------------------
     A        129     129       0       0       0       0
   -------------------------------------------------------
    Total     129     129      25      25      25       0
   -------------------------------------------------------

  ==> Integral Setup <==

  Using integral reordering PK algorithm.
  Sizing the integral batches needed.
  Building batch lookup table.
   Calculation information:
      Number of atoms:                  15
      Number of AO shells:              63
      Number of primitives:            177
      Number of atomic orbitals:       135
      Number of basis functions:       129

      Integral cutoff                 1.00e-12
      Number of threads:                 1

	Batch   1 pq = [       0,    8385] index = [             0,35158305] size =     35158305
  Task number: 4
  Buffer size: 11059200
  Buffer per thread: 2
  We computed 1657737 shell quartets total.
  Whereas there are 2033136 unique shell quartets.

  ==> DiskJK: Disk-Based J/K Matrices <==

    J tasked:                  Yes
    K tasked:                  Yes
    wK tasked:                  No
    Memory [MiB]:              375
    Schwarz Cutoff:          1E-12

    OpenMP threads:              1

  Minimum eigenvalue in the overlap matrix is 4.9968997096E-03.
  Using Symmetric Orthogonalization.

  SCF Guess: Superposition of Atomic Densities via on-the-fly atomic UHF.

  ==> Iterations <==

                        Total Energy        Delta E     RMS |[F,P]|

   @RHF iter SAD:  -321.83036298000246   -3.21830e+02   0.00000e+00
   @RHF iter   1:  -322.78465340284964   -9.54290e-01   5.18603e-03 DIIS
   @RHF iter   2:  -322.95474141643837   -1.70088e-01   2.78125e-03 DIIS
   @RHF iter   3:  -322.99994683779914   -4.52054e-02   4.60318e-04 DIIS
   @RHF iter   4:  -323.00228056255901   -2.33372e-03   1.65790e-04 DIIS
   @RHF iter   5:  -323.00255979503231   -2.79232e-04   3.70216e-05 DIIS
   @RHF iter   6:  -323.00257429063765   -1.44956e-05   1.68754e-05 DIIS
   @RHF iter   7:  -323.00257692337988   -2.63274e-06   3.07533e-06 DIIS
   @RHF iter   8:  -323.00257718674931   -2.63369e-07   1.31132e-06 DIIS
   @RHF iter   9:  -323.00257723788934   -5.11400e-08   3.99368e-07 DIIS
   @RHF iter  10:  -323.00257724253362   -4.64428e-09   1.21825e-07 DIIS
   @RHF iter  11:  -323.00257724279015   -2.56534e-10   3.39501e-08 DIIS
   @RHF iter  12:  -323.00257724281118   -2.10321e-11   8.00457e-09 DIIS
   @RHF iter  13:  -323.00257724281272   -1.53477e-12   2.41012e-09 DIIS
   @RHF iter  14:  -323.00257724281192    7.95808e-13   8.85838e-10 DIIS
   @RHF iter  15:  -323.00257724281158    3.41061e-13   3.27148e-10 DIIS
   @RHF iter  16:  -323.00257724281215   -5.68434e-13   1.59704e-10 DIIS
   @RHF iter  17:  -323.00257724281289   -7.38964e-13   6.43543e-11 DIIS
  Energy and wave function converged.

  ==> Post-Iterations <==

    Orbital Energies [Eh]
    ---------------------

    Doubly Occupied:

       1A    -20.421900     2A    -20.396299     3A    -15.726377
       4A    -11.350654     5A    -11.254050     6A    -11.167223
       7A     -1.351254     8A     -1.328970     9A     -1.192311
      10A     -1.018224    11A     -0.915619    12A     -0.813919
      13A     -0.800576    14A     -0.705140    15A     -0.641338
      16A     -0.626472    17A     -0.619623    18A     -0.559423
      19A     -0.542463    20A     -0.541685    21A     -0.477823
      22A     -0.457974    23A     -0.337868    24A     -0.316047
      25A     -0.315976

    Virtual:

      26A      0.104088    27A      0.155370    28A      0.162394
      29A      0.203432    30A      0.223045    31A      0.250247
      32A      0.272288    33A      0.284724    34A      0.316891
      35A      0.339576    36A      0.362557    37A      0.454067
      38A      0.510936    39A      0.519516    40A      0.571689
      41A      0.574298    42A      0.604281    43A      0.677400
      44A      0.702798    45A      0.717035    46A      0.734201
      47A      0.783235    48A      0.788274    49A      0.804748
      50A      0.813987    51A      0.835111    52A      0.854447
      53A      0.913567    54A      0.922128    55A      0.926212
      56A      0.939060    57A      0.948936    58A      0.960696
      59A      0.995284    60A      1.034234    61A      1.054194
      62A      1.081816    63A      1.110318    64A      1.205101
      65A      1.216226    66A      1.247173    67A      1.311303
      68A      1.352568    69A      1.424217    70A      1.439074
      71A      1.461480    72A      1.472607    73A      1.510251
      74A      1.529395    75A      1.582066    76A      1.588496
      77A      1.612667    78A      1.706226    79A      1.716331
      80A      1.733385    81A      1.766106    82A      1.797217
      83A      1.822536    84A      1.846337    85A      1.854132
      86A      1.864542    87A      1.945136    88A      1.963683
      89A      1.981741    90A      1.992070    91A      2.066097
      92A      2.076416    93A      2.111413    94A      2.120809
      95A      2.160552    96A      2.190284    97A      2.197897
      98A      2.218487    99A      2.260264   100A      2.288759
     101A      2.304854   102A      2.384608   103A      2.397902
     104A      2.472159   105A      2.526043   106A      2.550335
     107A      2.598638   108A      2.644249   109A      2.667304
     110A      2.678125   111A      2.695434   112A      2.806785
     113A      2.841896   114A      2.857695   115A      2.861381
     116A      2.881298   117A      2.937597   118A      3.086856
     119A      3.145205   120A      3.153332   121A      3.228299
     122A      3.262383   123A      3.326138   124A      3.532023
     125A      3.635849   126A      3.693010   127A      3.936114
     128A      3.995641   129A      4.126552

    Final Occupation by Irrep:
              A
    DOCC [    25 ]

  @RHF Final Energy:  -323.00257724281289

   => Energetics <=

    Nuclear Repulsion Energy =            239.0469901091081510
    One-Electron Energy =                -916.3407159729184741
    Two-Electron Energy =                 354.2911486209974328
    Total Energy =                       -323.0025772428128903

Computation Completed

Properties will be evaluated at   0.000000,   0.000000,   0.000000 [a0]

Properties computed using the SCF density matrix

  Nuclear Dipole Moment: [e a0]
     X:    -2.6200      Y:    -3.0913      Z:     5.9120

  Electronic Dipole Moment: [e a0]
     X:     1.0570      Y:    -0.1710      Z:    -2.8396

  Dipole Moment: [e a0]
     X:    -1.5631      Y:    -3.2623      Z:     3.0724     Total:     4.7461

  Dipole Moment: [D]
     X:    -3.9729      Y:    -8.2919      Z:     7.8092     Total:    12.0633

*** tstop() called on ds3 at Mon Apr 27 22:50:22 2020
Module time:
	user time   =      13.18 seconds =       0.22 minutes
	system time =       5.82 seconds =       0.10 minutes
	total time  =         18 seconds =       0.30 minutes
Total time:
	user time   =      13.18 seconds =       0.22 minutes
	system time =       5.82 seconds =       0.10 minutes
	total time  =         18 seconds =       0.30 minutes
                                     G D M A

                                 by Anthony Stone

                           version 2.2.06, 22 June 2011

               Distributed Multipoles from Gaussian wavefunctions

Starting at 22:50:22 on 27 Apr 2020

Using SCF density matrix from file ./SSI/SSI-028GLU-097LYS-1-dimer.test.28886.fchk

                         Distributed Multipole Analysis

Standard DMA

Positions and radii in angstrom
Multipole moments in atomic units, ea_0^k for rank k

C          x = -0.121543  y =  2.392655  z = -1.389095 angstrom
           Maximum rank =  0   Radius =  0.650 angstrom
                   Q00  =  -0.266414

C          x =  0.232457  y =  0.970655  z = -0.941095 angstrom
           Maximum rank =  0   Radius =  0.650 angstrom
                   Q00  =   0.909026

O          x = -0.646543  y =  0.346655  z = -0.408095 angstrom
           Maximum rank =  0   Radius =  0.650 angstrom
                   Q00  =  -0.916474

O          x =  1.361457  y =  0.474655  z = -1.092095 angstrom
           Maximum rank =  0   Radius =  0.650 angstrom
                   Q00  =  -0.919299

H          x = -0.309543  y =  3.018655  z = -0.514095 angstrom
           Maximum rank =  0   Radius =  0.325 angstrom
                   Q00  =   0.092106

H          x = -1.008543  y =  2.385655  z = -2.027095 angstrom
           Maximum rank =  0   Radius =  0.325 angstrom
                   Q00  =   0.091359

H          x =  0.740658  y =  2.769109  z = -1.959085 angstrom
           Maximum rank =  0   Radius =  0.325 angstrom
                   Q00  =   0.077785

C          x = -0.167543  y = -1.925345  z =  2.530905 angstrom
           Maximum rank =  0   Radius =  0.650 angstrom
                   Q00  =  -0.135487

N          x = -0.566543  y = -1.932345  z =  1.086905 angstrom
           Maximum rank =  0   Radius =  0.650 angstrom
                   Q00  =  -0.108432

H          x = -0.153543  y = -1.162345  z =  0.556905 angstrom
           Maximum rank =  0   Radius =  0.325 angstrom
                   Q00  =   0.282505

H          x = -0.330543  y = -2.807345  z =  0.637905 angstrom
           Maximum rank =  0   Radius =  0.325 angstrom
                   Q00  =   0.221265

H          x = -1.565543  y = -1.803345  z =  0.992905 angstrom
           Maximum rank =  0   Radius =  0.325 angstrom
                   Q00  =   0.243532

H          x =  0.763457  y = -2.482345  z =  2.674905 angstrom
           Maximum rank =  0   Radius =  0.325 angstrom
                   Q00  =   0.140761

H          x = -0.946543  y = -2.355345  z =  3.167905 angstrom
           Maximum rank =  0   Radius =  0.325 angstrom
                   Q00  =   0.128810

H          x =  0.009931  y = -0.870439  z =  2.787178 angstrom
           Maximum rank =  0   Radius =  0.325 angstrom
                   Q00  =   0.158956

Total multipoles referred to origin at
           x =   0.000000,  y =    0.000000,  z =    0.000000 angstrom
                   Q00  =  -0.000000

Finished at 22:50:22 on 27 Apr 2020

  DMA results are available in the Python driver through the
	  variable('DMA DISTRIBUTED MULTIPOLES')
  and
	  variable('DMA TOTAL MULTIPOLES')
  commands.

    Psi4 stopped on: Monday, 27 April 2020 10:50PM
    Psi4 wall time for execution: 0:00:18.89

*** Psi4 exiting successfully. Buy a developer a beer!
