                               Psi4 1.3.2 release

  ==> Input File <==

--------------------------------------------------------------------------
import numpy as np
set {scf_type pk
basis cc-pvdz
d_convergence 10
gdma_switch   0
gdma_limit    0
gdma_origin   [ 0.0,  0.0,  0.0 ]
}
molecule test {
    units Angstrom
    0 1
    --
    0 1
    C               -0.097894621898662     0.164540955122100    -1.505566723403695
    C               -0.228894621898662     0.049540955122100    -3.019566723403695
    O               -1.090894621898663    -0.586459044877900    -0.839566723403695
    H                0.883105378101337    -0.207459044877900    -1.205566723403695
    H               -0.170894621898662     1.212540955122100    -1.211566723403695
    H                0.634105378101338     0.576540955122100    -3.427566723403695
    H               -1.703894621898662     0.057540955122100    -0.426566723403695
    H               -1.158454621898662     0.518439955122100    -3.374611723403695
    H               -0.114594621898662    -0.998702044877900    -3.332809723403695
    C                0.977105378101338    -0.272459044877900     2.116433276596305
    C                0.559105378101338     0.650540955122100     3.262433276596305
    H                1.366105378101338    -1.214459044877900     2.503433276596305
    H                0.105105378101338    -0.501459044877900     1.505433276596305
    H                1.734105378101338     0.211540955122100     1.500433276596305
    H               -0.188894621898662     0.133540955122100     3.851433276596305
    H                1.419975378101338     0.893331955122100     3.902713276596305
    H                0.107145378101338     1.575339955122099     2.874521276596305

}
e, wfn = energy('scf', return_wfn=True)
gdma(wfn)
dmavals = variable('DMA DISTRIBUTED MULTIPOLES')
charges = np.array(dmavals)
print(charges)
np.save('SSI-070SER-082VAL-1-dimer.npy', np.array(charges))--------------------------------------------------------------------------

*** tstart() called on ds3
*** at Mon Apr 27 23:09:59 2020

   => Loading Basis Set <=

    Name: CC-PVDZ
    Role: ORBITAL
    Keyword: BASIS
    atoms 1-2, 10-11 entry C          line   138 file /theoryfs2/ds/metcalf/miniconda2/envs/tf2gpu/share/psi4/basis/cc-pvdz.gbs
    atoms 3          entry O          line   198 file /theoryfs2/ds/metcalf/miniconda2/envs/tf2gpu/share/psi4/basis/cc-pvdz.gbs
    atoms 4-9, 12-17 entry H          line    22 file /theoryfs2/ds/metcalf/miniconda2/envs/tf2gpu/share/psi4/basis/cc-pvdz.gbs

         ---------------------------------------------------------
                                   SCF
               by Justin Turney, Rob Parrish, Andy Simmonett
                          and Daniel G. A. Smith
                              RHF Reference
                        1 Threads,    500 MiB Core
         ---------------------------------------------------------

  ==> Geometry <==

    Molecular point group: c1
    Full point group: C1

    Geometry (in Angstrom), charge = 0, multiplicity = 1:

       Center              X                  Y                   Z               Mass
    ------------   -----------------  -----------------  -----------------  -----------------
         C           -0.097894621899     0.164540955122    -1.505566723404    12.000000000000
         C           -0.228894621899     0.049540955122    -3.019566723404    12.000000000000
         O           -1.090894621899    -0.586459044878    -0.839566723404    15.994914619570
         H            0.883105378101    -0.207459044878    -1.205566723404     1.007825032230
         H           -0.170894621899     1.212540955122    -1.211566723404     1.007825032230
         H            0.634105378101     0.576540955122    -3.427566723404     1.007825032230
         H           -1.703894621899     0.057540955122    -0.426566723404     1.007825032230
         H           -1.158454621899     0.518439955122    -3.374611723404     1.007825032230
         H           -0.114594621899    -0.998702044878    -3.332809723404     1.007825032230
         C            0.977105378101    -0.272459044878     2.116433276596    12.000000000000
         C            0.559105378101     0.650540955122     3.262433276596    12.000000000000
         H            1.366105378101    -1.214459044878     2.503433276596     1.007825032230
         H            0.105105378101    -0.501459044878     1.505433276596     1.007825032230
         H            1.734105378101     0.211540955122     1.500433276596     1.007825032230
         H           -0.188894621899     0.133540955122     3.851433276596     1.007825032230
         H            1.419975378101     0.893331955122     3.902713276596     1.007825032230
         H            0.107145378101     1.575339955122     2.874521276596     1.007825032230

  Running in c1 symmetry.

  Rotational constants: A =      0.35643  B =      0.03720  C =      0.03605 [cm^-1]
  Rotational constants: A =  10685.54974  B =   1115.12601  C =   1080.69173 [MHz]
  Nuclear repulsion =  177.922763476583299

  Charge       = 0
  Multiplicity = 1
  Electrons    = 44
  Nalpha       = 22
  Nbeta        = 22

  ==> Algorithm <==

  SCF Algorithm Type is PK.
  DIIS enabled.
  MOM disabled.
  Fractional occupation disabled.
  Guess Type is SAD.
  Energy threshold   = 1.00e-06
  Density threshold  = 1.00e-10
  Integral threshold = 0.00e+00

  ==> Primary Basis <==

  Basis Set: CC-PVDZ
    Blend: CC-PVDZ
    Number of shells: 66
    Number of basis function: 130
    Number of Cartesian functions: 135
    Spherical Harmonics?: true
    Max angular momentum: 2

  ==> Pre-Iterations <==

   -------------------------------------------------------
    Irrep   Nso     Nmo     Nalpha   Nbeta   Ndocc  Nsocc
   -------------------------------------------------------
     A        130     130       0       0       0       0
   -------------------------------------------------------
    Total     130     130      22      22      22       0
   -------------------------------------------------------

  ==> Integral Setup <==

  Using integral reordering PK algorithm.
  Sizing the integral batches needed.
  Building batch lookup table.
   Calculation information:
      Number of atoms:                  17
      Number of AO shells:              66
      Number of primitives:            170
      Number of atomic orbitals:       135
      Number of basis functions:       130

      Integral cutoff                 1.00e-12
      Number of threads:                 1

	Batch   1 pq = [       0,    8515] index = [             0,36256870] size =     36256870
  Task number: 4
  Buffer size: 11059200
  Buffer per thread: 2
  We computed 1928795 shell quartets total.
  Whereas there are 2445366 unique shell quartets.

  ==> DiskJK: Disk-Based J/K Matrices <==

    J tasked:                  Yes
    K tasked:                  Yes
    wK tasked:                  No
    Memory [MiB]:              375
    Schwarz Cutoff:          1E-12

    OpenMP threads:              1

  Minimum eigenvalue in the overlap matrix is 5.8868374832E-03.
  Using Symmetric Orthogonalization.

  SCF Guess: Superposition of Atomic Densities via on-the-fly atomic UHF.

  ==> Iterations <==

                        Total Energy        Delta E     RMS |[F,P]|

   @RHF iter SAD:  -232.08009282014044   -2.32080e+02   0.00000e+00
   @RHF iter   1:  -233.14014529855581   -1.06005e+00   4.22504e-03 DIIS
   @RHF iter   2:  -233.29033922331337   -1.50194e-01   1.98367e-03 DIIS
   @RHF iter   3:  -233.31983408464561   -2.94949e-02   3.88608e-04 DIIS
   @RHF iter   4:  -233.32194185871811   -2.10777e-03   1.31451e-04 DIIS
   @RHF iter   5:  -233.32210160057278   -1.59742e-04   2.51293e-05 DIIS
   @RHF iter   6:  -233.32211044094763   -8.84037e-06   4.60134e-06 DIIS
   @RHF iter   7:  -233.32211086604747   -4.25100e-07   1.16932e-06 DIIS
   @RHF iter   8:  -233.32211089351921   -2.74717e-08   4.04317e-07 DIIS
   @RHF iter   9:  -233.32211089693493   -3.41572e-09   1.08627e-07 DIIS
   @RHF iter  10:  -233.32211089724271   -3.07779e-10   2.46271e-08 DIIS
   @RHF iter  11:  -233.32211089725809   -1.53761e-11   7.30302e-09 DIIS
   @RHF iter  12:  -233.32211089725882   -7.38964e-13   2.26348e-09 DIIS
   @RHF iter  13:  -233.32211089725831    5.11591e-13   6.84067e-10 DIIS
   @RHF iter  14:  -233.32211089725902   -7.10543e-13   1.85987e-10 DIIS
   @RHF iter  15:  -233.32211089725885    1.70530e-13   6.71311e-11 DIIS
  Energy and wave function converged.

  ==> Post-Iterations <==

    Orbital Energies [Eh]
    ---------------------

    Doubly Occupied:

       1A    -20.553058     2A    -11.275422     3A    -11.220782
       4A    -11.216764     5A    -11.210529     6A     -1.354212
       7A     -1.014760     8A     -1.009177     9A     -0.835275
      10A     -0.832050    11A     -0.695081    12A     -0.632555
      13A     -0.596420    14A     -0.593384    15A     -0.568195
      16A     -0.553379    17A     -0.520623    18A     -0.496200
      19A     -0.484061    20A     -0.480622    21A     -0.476906
      22A     -0.431386

    Virtual:

      23A      0.162436    24A      0.196737    25A      0.208527
      26A      0.225496    27A      0.244521    28A      0.258189
      29A      0.264705    30A      0.269225    31A      0.280574
      32A      0.285585    33A      0.305343    34A      0.331752
      35A      0.388827    36A      0.394355    37A      0.406474
      38A      0.572058    39A      0.603770    40A      0.605587
      41A      0.610962    42A      0.629783    43A      0.651498
      44A      0.682701    45A      0.732717    46A      0.754076
      47A      0.756894    48A      0.836321    49A      0.851011
      50A      0.860785    51A      0.881974    52A      0.888728
      53A      0.894521    54A      0.896818    55A      0.899098
      56A      0.904481    57A      0.919648    58A      0.923325
      59A      0.939677    60A      0.957804    61A      0.989961
      62A      1.125835    63A      1.127289    64A      1.138687
      65A      1.157223    66A      1.182620    67A      1.230009
      68A      1.267945    69A      1.362238    70A      1.413729
      71A      1.464550    72A      1.478467    73A      1.488040
      74A      1.517644    75A      1.564414    76A      1.614885
      77A      1.659395    78A      1.676824    79A      1.685749
      80A      1.705689    81A      1.752343    82A      1.836090
      83A      1.856567    84A      1.866157    85A      1.877579
      86A      1.884697    87A      1.902676    88A      1.937506
      89A      1.942816    90A      1.949254    91A      1.956686
      92A      1.961521    93A      1.968675    94A      1.978545
      95A      1.995874    96A      2.008938    97A      2.055907
      98A      2.080589    99A      2.102308   100A      2.120229
     101A      2.162385   102A      2.268708   103A      2.299938
     104A      2.318685   105A      2.327120   106A      2.359820
     107A      2.418155   108A      2.459870   109A      2.478294
     110A      2.503140   111A      2.529637   112A      2.544343
     113A      2.561711   114A      2.581998   115A      2.752823
     116A      2.765042   117A      2.770605   118A      2.798040
     119A      2.815981   120A      2.856802   121A      2.864838
     122A      2.882554   123A      2.915064   124A      2.961314
     125A      2.974205   126A      3.315143   127A      3.399368
     128A      3.475279   129A      3.622541   130A      4.075221

    Final Occupation by Irrep:
              A
    DOCC [    22 ]

  @RHF Final Energy:  -233.32211089725885

   => Energetics <=

    Nuclear Repulsion Energy =            177.9227634765832988
    One-Electron Energy =                -668.3880721633009898
    Two-Electron Energy =                 257.1431977894588385
    Total Energy =                       -233.3221108972588240

Computation Completed

Properties will be evaluated at   0.000000,   0.000000,   0.000000 [a0]

Properties computed using the SCF density matrix

  Nuclear Dipole Moment: [e a0]
     X:     2.7255      Y:     2.1128      Z:     2.9577

  Electronic Dipole Moment: [e a0]
     X:    -2.7432      Y:    -1.4546      Z:    -3.0446

  Dipole Moment: [e a0]
     X:    -0.0176      Y:     0.6583      Z:    -0.0869     Total:     0.6642

  Dipole Moment: [D]
     X:    -0.0448      Y:     1.6731      Z:    -0.2209     Total:     1.6882

*** tstop() called on ds3 at Mon Apr 27 23:10:18 2020
Module time:
	user time   =      13.72 seconds =       0.23 minutes
	system time =       5.47 seconds =       0.09 minutes
	total time  =         19 seconds =       0.32 minutes
Total time:
	user time   =      13.72 seconds =       0.23 minutes
	system time =       5.47 seconds =       0.09 minutes
	total time  =         19 seconds =       0.32 minutes
                                     G D M A

                                 by Anthony Stone

                           version 2.2.06, 22 June 2011

               Distributed Multipoles from Gaussian wavefunctions

Starting at 23:10:18 on 27 Apr 2020

Using SCF density matrix from file ./SSI/SSI-070SER-082VAL-1-dimer.test.1388.fchk

                         Distributed Multipole Analysis

Standard DMA

Positions and radii in angstrom
Multipole moments in atomic units, ea_0^k for rank k

C          x = -0.097895  y =  0.164541  z = -1.505567 angstrom
           Maximum rank =  0   Radius =  0.650 angstrom
                   Q00  =   0.098486

C          x = -0.228895  y =  0.049541  z = -3.019567 angstrom
           Maximum rank =  0   Radius =  0.650 angstrom
                   Q00  =  -0.244262

O          x = -1.090895  y = -0.586459  z = -0.839567 angstrom
           Maximum rank =  0   Radius =  0.650 angstrom
                   Q00  =  -0.595767

H          x =  0.883105  y = -0.207459  z = -1.205567 angstrom
           Maximum rank =  0   Radius =  0.325 angstrom
                   Q00  =   0.068506

H          x = -0.170895  y =  1.212541  z = -1.211567 angstrom
           Maximum rank =  0   Radius =  0.325 angstrom
                   Q00  =   0.032710

H          x =  0.634105  y =  0.576541  z = -3.427567 angstrom
           Maximum rank =  0   Radius =  0.325 angstrom
                   Q00  =   0.073580

H          x = -1.703895  y =  0.057541  z = -0.426567 angstrom
           Maximum rank =  0   Radius =  0.325 angstrom
                   Q00  =   0.399462

H          x = -1.158455  y =  0.518440  z = -3.374612 angstrom
           Maximum rank =  0   Radius =  0.325 angstrom
                   Q00  =   0.084360

H          x = -0.114595  y = -0.998702  z = -3.332810 angstrom
           Maximum rank =  0   Radius =  0.325 angstrom
                   Q00  =   0.095856

C          x =  0.977105  y = -0.272459  z =  2.116433 angstrom
           Maximum rank =  0   Radius =  0.650 angstrom
                   Q00  =  -0.229878

C          x =  0.559105  y =  0.650541  z =  3.262433 angstrom
           Maximum rank =  0   Radius =  0.650 angstrom
                   Q00  =  -0.237272

H          x =  1.366105  y = -1.214459  z =  2.503433 angstrom
           Maximum rank =  0   Radius =  0.325 angstrom
                   Q00  =   0.080307

H          x =  0.105105  y = -0.501459  z =  1.505433 angstrom
           Maximum rank =  0   Radius =  0.325 angstrom
                   Q00  =   0.073795

H          x =  1.734105  y =  0.211541  z =  1.500433 angstrom
           Maximum rank =  0   Radius =  0.325 angstrom
                   Q00  =   0.072181

H          x = -0.188895  y =  0.133541  z =  3.851433 angstrom
           Maximum rank =  0   Radius =  0.325 angstrom
                   Q00  =   0.078345

H          x =  1.419975  y =  0.893332  z =  3.902713 angstrom
           Maximum rank =  0   Radius =  0.325 angstrom
                   Q00  =   0.077598

H          x =  0.107145  y =  1.575340  z =  2.874521 angstrom
           Maximum rank =  0   Radius =  0.325 angstrom
                   Q00  =   0.071994

Total multipoles referred to origin at
           x =   0.000000,  y =    0.000000,  z =    0.000000 angstrom
                   Q00  =  -0.000000

Finished at 23:10:18 on 27 Apr 2020

  DMA results are available in the Python driver through the
	  variable('DMA DISTRIBUTED MULTIPOLES')
  and
	  variable('DMA TOTAL MULTIPOLES')
  commands.

    Psi4 stopped on: Monday, 27 April 2020 11:10PM
    Psi4 wall time for execution: 0:00:18.87

*** Psi4 exiting successfully. Buy a developer a beer!
