                               Psi4 1.3.2 release

  ==> Input File <==

--------------------------------------------------------------------------
import numpy as np
set {scf_type pk
basis cc-pvdz
d_convergence 10
gdma_switch   0
gdma_limit    0
gdma_origin   [ 0.0,  0.0,  0.0 ]
}
molecule test {
    units Angstrom
    0 1
    --
    0 1
    C                1.149540799973027    -1.853311229297798     0.509237095703386
    C                1.421540799973027    -3.336311229297798     0.752237095703386
    H                2.067540799973028    -1.273311229297798     0.582237095703386
    H                0.761540799973027    -1.730311229297798    -0.501762904296614
    H                0.410540799973027    -1.475311229297798     1.216237095703386
    H                2.273540799973028    -3.659311229297798     0.151237095703386
    H                0.536540799973027    -3.865311229297798     0.406237095703386
    H                1.600160799973027    -3.551821229297798     1.816027095703386
    C               -0.770459200026973     1.196688770702202    -0.286762904296614
    C                0.225540799973027     2.350688770702202    -0.111762904296614
    C               -2.074459200026972     1.716688770702202    -0.869762904296614
    H               -0.336459200026973     0.460688770702202    -0.964762904296614
    H               -0.974459200026973     0.716688770702202     0.671237095703386
    H               -0.262459200026973     3.175688770702202     0.410237095703386
    H                0.508540799973027     2.702688770702202    -1.105762904296614
    H               -2.568459200026973     2.343688770702202    -0.123762904296614
    H               -1.841459200026972     2.320688770702202    -1.749762904296614
    H                1.132710799973027     2.062175770702202     0.439427095703386
    H               -2.732768200026972     0.886678770702202    -1.165922904296614

}
e, wfn = energy('scf', return_wfn=True)
gdma(wfn)
dmavals = variable('DMA DISTRIBUTED MULTIPOLES')
charges = np.array(dmavals)
print(charges)
np.save('SSI-038ILE-085ARG-1-dimer.npy', np.array(charges))--------------------------------------------------------------------------

*** tstart() called on ds3
*** at Sun Apr 26 18:22:21 2020

   => Loading Basis Set <=

    Name: CC-PVDZ
    Role: ORBITAL
    Keyword: BASIS
    atoms 1-2, 9-11  entry C          line   138 file /theoryfs2/ds/metcalf/miniconda2/envs/tf2gpu/share/psi4/basis/cc-pvdz.gbs
    atoms 3-8, 12-19 entry H          line    22 file /theoryfs2/ds/metcalf/miniconda2/envs/tf2gpu/share/psi4/basis/cc-pvdz.gbs

         ---------------------------------------------------------
                                   SCF
               by Justin Turney, Rob Parrish, Andy Simmonett
                          and Daniel G. A. Smith
                              RHF Reference
                        1 Threads,    500 MiB Core
         ---------------------------------------------------------

  ==> Geometry <==

    Molecular point group: c1
    Full point group: C1

    Geometry (in Angstrom), charge = 0, multiplicity = 1:

       Center              X                  Y                   Z               Mass
    ------------   -----------------  -----------------  -----------------  -----------------
         C            1.149540799973    -1.853311229298     0.509237095703    12.000000000000
         C            1.421540799973    -3.336311229298     0.752237095703    12.000000000000
         H            2.067540799973    -1.273311229298     0.582237095703     1.007825032230
         H            0.761540799973    -1.730311229298    -0.501762904297     1.007825032230
         H            0.410540799973    -1.475311229298     1.216237095703     1.007825032230
         H            2.273540799973    -3.659311229298     0.151237095703     1.007825032230
         H            0.536540799973    -3.865311229298     0.406237095703     1.007825032230
         H            1.600160799973    -3.551821229298     1.816027095703     1.007825032230
         C           -0.770459200027     1.196688770702    -0.286762904297    12.000000000000
         C            0.225540799973     2.350688770702    -0.111762904297    12.000000000000
         C           -2.074459200027     1.716688770702    -0.869762904297    12.000000000000
         H           -0.336459200027     0.460688770702    -0.964762904297     1.007825032230
         H           -0.974459200027     0.716688770702     0.671237095703     1.007825032230
         H           -0.262459200027     3.175688770702     0.410237095703     1.007825032230
         H            0.508540799973     2.702688770702    -1.105762904297     1.007825032230
         H           -2.568459200027     2.343688770702    -0.123762904297     1.007825032230
         H           -1.841459200027     2.320688770702    -1.749762904297     1.007825032230
         H            1.132710799973     2.062175770702     0.439427095703     1.007825032230
         H           -2.732768200027     0.886678770702    -1.165922904297     1.007825032230

  Running in c1 symmetry.

  Rotational constants: A =      0.26529  B =      0.03464  C =      0.03156 [cm^-1]
  Rotational constants: A =   7953.27520  B =   1038.43773  C =    946.27559 [MHz]
  Nuclear repulsion =  175.556385184053767

  Charge       = 0
  Multiplicity = 1
  Electrons    = 44
  Nalpha       = 22
  Nbeta        = 22

  ==> Algorithm <==

  SCF Algorithm Type is PK.
  DIIS enabled.
  MOM disabled.
  Fractional occupation disabled.
  Guess Type is SAD.
  Energy threshold   = 1.00e-06
  Density threshold  = 1.00e-10
  Integral threshold = 0.00e+00

  ==> Primary Basis <==

  Basis Set: CC-PVDZ
    Blend: CC-PVDZ
    Number of shells: 72
    Number of basis function: 140
    Number of Cartesian functions: 145
    Spherical Harmonics?: true
    Max angular momentum: 2

  ==> Pre-Iterations <==

   -------------------------------------------------------
    Irrep   Nso     Nmo     Nalpha   Nbeta   Ndocc  Nsocc
   -------------------------------------------------------
     A        140     140       0       0       0       0
   -------------------------------------------------------
    Total     140     140      22      22      22       0
   -------------------------------------------------------

  ==> Integral Setup <==

  Using integral reordering PK algorithm.
  Sizing the integral batches needed.
  Building batch lookup table.
   Calculation information:
      Number of atoms:                  19
      Number of AO shells:              72
      Number of primitives:            180
      Number of atomic orbitals:       145
      Number of basis functions:       140

      Integral cutoff                 1.00e-12
      Number of threads:                 1

	Batch   1 pq = [       0,    9405] index = [             0,44231715] size =     44231715
	Batch   2 pq = [    9405,    9870] index = [      44231715,48713385] size =      4481670
  Task number: 5
  Buffer size: 11059200
  Buffer per thread: 2
  We computed 2718217 shell quartets total.
  Whereas there are 3454506 unique shell quartets.

  ==> DiskJK: Disk-Based J/K Matrices <==

    J tasked:                  Yes
    K tasked:                  Yes
    wK tasked:                  No
    Memory [MiB]:              375
    Schwarz Cutoff:          1E-12

    OpenMP threads:              1

  Minimum eigenvalue in the overlap matrix is 5.2460498352E-03.
  Using Symmetric Orthogonalization.

  SCF Guess: Superposition of Atomic Densities via on-the-fly atomic UHF.

  ==> Iterations <==

                        Total Energy        Delta E     RMS |[F,P]|

   @RHF iter SAD:  -196.38295964777853   -1.96383e+02   0.00000e+00
   @RHF iter   1:  -197.30980191977707   -9.26842e-01   3.82069e-03 DIIS
   @RHF iter   2:  -197.47068251821565   -1.60881e-01   1.65347e-03 DIIS
   @RHF iter   3:  -197.49949461638303   -2.88121e-02   3.27119e-04 DIIS
   @RHF iter   4:  -197.50172074410420   -2.22613e-03   4.88167e-05 DIIS
   @RHF iter   5:  -197.50175994044889   -3.91963e-05   1.48896e-05 DIIS
   @RHF iter   6:  -197.50176328582893   -3.34538e-06   2.50880e-06 DIIS
   @RHF iter   7:  -197.50176339663560   -1.10807e-07   4.45604e-07 DIIS
   @RHF iter   8:  -197.50176340080367   -4.16807e-09   1.10226e-07 DIIS
   @RHF iter   9:  -197.50176340104611   -2.42437e-10   3.58976e-08 DIIS
   @RHF iter  10:  -197.50176340107581   -2.97007e-11   8.00648e-09 DIIS
   @RHF iter  11:  -197.50176340107839   -2.58638e-12   1.48365e-09 DIIS
   @RHF iter  12:  -197.50176340107816    2.27374e-13   2.67672e-10 DIIS
   @RHF iter  13:  -197.50176340107876   -5.96856e-13   5.50750e-11 DIIS
  Energy and wave function converged.

  ==> Post-Iterations <==

    Orbital Energies [Eh]
    ---------------------

    Doubly Occupied:

       1A    -11.217913     2A    -11.217574     3A    -11.215795
       4A    -11.215494     5A    -11.215484     6A     -1.055043
       7A     -1.019111     8A     -0.920464     9A     -0.836553
      10A     -0.795959    11A     -0.628190    12A     -0.599993
      13A     -0.598521    14A     -0.596628    15A     -0.543217
      16A     -0.529348    17A     -0.500454    18A     -0.488477
      19A     -0.483937    20A     -0.470073    21A     -0.468374
      22A     -0.467069

    Virtual:

      23A      0.173515    24A      0.193120    25A      0.216385
      26A      0.221540    27A      0.225466    28A      0.249458
      29A      0.255317    30A      0.267664    31A      0.276412
      32A      0.282452    33A      0.301112    34A      0.310011
      35A      0.320427    36A      0.352213    37A      0.366607
      38A      0.396795    39A      0.432396    40A      0.571309
      41A      0.583174    42A      0.595973    43A      0.600409
      44A      0.608596    45A      0.615513    46A      0.619070
      47A      0.673709    48A      0.697879    49A      0.751652
      50A      0.791829    51A      0.815881    52A      0.835605
      53A      0.864593    54A      0.884933    55A      0.886913
      56A      0.895490    57A      0.897450    58A      0.900002
      59A      0.906923    60A      0.909090    61A      0.915973
      62A      0.919683    63A      0.931875    64A      0.950816
      65A      0.961783    66A      0.971534    67A      0.977097
      68A      0.995710    69A      1.120795    70A      1.125593
      71A      1.128008    72A      1.146996    73A      1.194548
      74A      1.247165    75A      1.381513    76A      1.470474
      77A      1.476218    78A      1.483857    79A      1.491384
      80A      1.557393    81A      1.598381    82A      1.614570
      83A      1.677196    84A      1.680591    85A      1.685748
      86A      1.695661    87A      1.720896    88A      1.837353
      89A      1.856302    90A      1.861524    91A      1.878917
      92A      1.880498    93A      1.912372    94A      1.915693
      95A      1.923418    96A      1.938909    97A      1.951260
      98A      1.953658    99A      1.957030   100A      1.963453
     101A      1.964934   102A      1.974820   103A      1.982210
     104A      1.995243   105A      2.031191   106A      2.038017
     107A      2.075626   108A      2.108217   109A      2.141854
     110A      2.150772   111A      2.163787   112A      2.288429
     113A      2.297879   114A      2.301324   115A      2.306932
     116A      2.331929   117A      2.365745   118A      2.449454
     119A      2.460096   120A      2.505712   121A      2.529016
     122A      2.572588   123A      2.575688   124A      2.587153
     125A      2.615765   126A      2.635754   127A      2.759353
     128A      2.764256   129A      2.773934   130A      2.786343
     131A      2.792061   132A      2.828097   133A      2.841412
     134A      2.858603   135A      2.902096   136A      2.952118
     137A      2.952386   138A      2.957854   139A      2.966104
     140A      3.078492

    Final Occupation by Irrep:
              A
    DOCC [    22 ]

  @RHF Final Energy:  -197.50176340107876

   => Energetics <=

    Nuclear Repulsion Energy =            175.5563851840537666
    One-Electron Energy =                -611.9489564754911726
    Two-Electron Energy =                 238.8908078903586727
    Total Energy =                       -197.5017634010787617

Computation Completed

Properties will be evaluated at   0.000000,   0.000000,   0.000000 [a0]

Properties computed using the SCF density matrix

  Nuclear Dipole Moment: [e a0]
     X:     0.5391      Y:    -0.8310      Z:     0.0761

  Electronic Dipole Moment: [e a0]
     X:    -0.5374      Y:     0.8024      Z:    -0.0847

  Dipole Moment: [e a0]
     X:     0.0017      Y:    -0.0285      Z:    -0.0087     Total:     0.0299

  Dipole Moment: [D]
     X:     0.0044      Y:    -0.0725      Z:    -0.0220     Total:     0.0759

*** tstop() called on ds3 at Sun Apr 26 18:22:52 2020
Module time:
	user time   =      13.41 seconds =       0.22 minutes
	system time =       4.98 seconds =       0.08 minutes
	total time  =         31 seconds =       0.52 minutes
Total time:
	user time   =      13.41 seconds =       0.22 minutes
	system time =       4.98 seconds =       0.08 minutes
	total time  =         31 seconds =       0.52 minutes
                                     G D M A

                                 by Anthony Stone

                           version 2.2.06, 22 June 2011

               Distributed Multipoles from Gaussian wavefunctions

Starting at 18:22:52 on 26 Apr 2020

Using SCF density matrix from file ./SSI/SSI-038ILE-085ARG-1-dimer.test.7598.fchk

                         Distributed Multipole Analysis

Standard DMA

Positions and radii in angstrom
Multipole moments in atomic units, ea_0^k for rank k

C          x =  1.149541  y = -1.853311  z =  0.509237 angstrom
           Maximum rank =  0   Radius =  0.650 angstrom
                   Q00  =  -0.240196

C          x =  1.421541  y = -3.336311  z =  0.752237 angstrom
           Maximum rank =  0   Radius =  0.650 angstrom
                   Q00  =  -0.229699

H          x =  2.067541  y = -1.273311  z =  0.582237 angstrom
           Maximum rank =  0   Radius =  0.325 angstrom
                   Q00  =   0.078047

H          x =  0.761541  y = -1.730311  z = -0.501763 angstrom
           Maximum rank =  0   Radius =  0.325 angstrom
                   Q00  =   0.075336

H          x =  0.410541  y = -1.475311  z =  1.216237 angstrom
           Maximum rank =  0   Radius =  0.325 angstrom
                   Q00  =   0.080836

H          x =  2.273541  y = -3.659311  z =  0.151237 angstrom
           Maximum rank =  0   Radius =  0.325 angstrom
                   Q00  =   0.080237

H          x =  0.536541  y = -3.865311  z =  0.406237 angstrom
           Maximum rank =  0   Radius =  0.325 angstrom
                   Q00  =   0.075693

H          x =  1.600161  y = -3.551821  z =  1.816027 angstrom
           Maximum rank =  0   Radius =  0.325 angstrom
                   Q00  =   0.080622

C          x = -0.770459  y =  1.196689  z = -0.286763 angstrom
           Maximum rank =  0   Radius =  0.650 angstrom
                   Q00  =  -0.081219

C          x =  0.225541  y =  2.350689  z = -0.111763 angstrom
           Maximum rank =  0   Radius =  0.650 angstrom
                   Q00  =  -0.250828

C          x = -2.074459  y =  1.716689  z = -0.869763 angstrom
           Maximum rank =  0   Radius =  0.650 angstrom
                   Q00  =  -0.230586

H          x = -0.336459  y =  0.460689  z = -0.964763 angstrom
           Maximum rank =  0   Radius =  0.325 angstrom
                   Q00  =   0.047646

H          x = -0.974459  y =  0.716689  z =  0.671237 angstrom
           Maximum rank =  0   Radius =  0.325 angstrom
                   Q00  =   0.048166

H          x = -0.262459  y =  3.175689  z =  0.410237 angstrom
           Maximum rank =  0   Radius =  0.325 angstrom
                   Q00  =   0.073274

H          x =  0.508541  y =  2.702689  z = -1.105763 angstrom
           Maximum rank =  0   Radius =  0.325 angstrom
                   Q00  =   0.075152

H          x = -2.568459  y =  2.343689  z = -0.123763 angstrom
           Maximum rank =  0   Radius =  0.325 angstrom
                   Q00  =   0.076828

H          x = -1.841459  y =  2.320689  z = -1.749763 angstrom
           Maximum rank =  0   Radius =  0.325 angstrom
                   Q00  =   0.072336

H          x =  1.132711  y =  2.062176  z =  0.439427 angstrom
           Maximum rank =  0   Radius =  0.325 angstrom
                   Q00  =   0.086030

H          x = -2.732768  y =  0.886679  z = -1.165923 angstrom
           Maximum rank =  0   Radius =  0.325 angstrom
                   Q00  =   0.082328

Total multipoles referred to origin at
           x =   0.000000,  y =    0.000000,  z =    0.000000 angstrom
                   Q00  =  -0.000000

Finished at 18:22:52 on 26 Apr 2020

  DMA results are available in the Python driver through the
	  variable('DMA DISTRIBUTED MULTIPOLES')
  and
	  variable('DMA TOTAL MULTIPOLES')
  commands.

    Psi4 stopped on: Sunday, 26 April 2020 06:22PM
    Psi4 wall time for execution: 0:00:30.35

*** Psi4 exiting successfully. Buy a developer a beer!
