                               Psi4 1.3.2 release

  ==> Input File <==

--------------------------------------------------------------------------
import numpy as np
set {scf_type pk
basis cc-pvdz
d_convergence 10
gdma_switch   0
gdma_limit    0
gdma_origin   [ 0.0,  0.0,  0.0 ]
}
molecule test {
    units Angstrom
    0 1
    --
    0 1
    C                1.683541650966616     0.003089368937539    -2.033587244144722
    C                2.115541650966616     0.677089368937540    -3.309587244144722
    S                1.275541650966616    -1.701910631062461    -2.264587244144722
    H                2.468541650966617     0.096089368937539    -1.278587244144721
    H                0.792541650966616     0.471089368937539    -1.669587244144721
    H                1.349541650966616     0.466089368937539    -4.060587244144721
    H                0.949541650966616    -1.968910631062461    -0.991587244144722
    H                3.082731650966616     0.306209368937539    -3.679707244144722
    H                2.122763650966617     1.769099368937539    -3.177417244144721
    C               -1.097458349033384     2.045089368937539    -0.245587244144721
    C                0.104541650966616     0.448089368937539     1.279412755855279
    C               -1.080458349033384     1.106089368937540     0.917412755855278
    C                0.164541650966616    -0.434910631062461     2.367412755855278
    C               -2.251458349033383     0.838089368937539     1.621412755855279
    C               -1.008458349033384    -0.701910631062460     3.095412755855278
    C               -2.213458349033383    -0.065910631062461     2.730412755855278
    H                1.011541650966616     0.640089368937540     0.724412755855278
    H                1.096541650966617    -0.916910631062461     2.634412755855279
    H               -2.106458349033384     2.063089368937540    -0.659587244144721
    H               -0.462458349033384     1.713089368937540    -1.041587244144722
    H               -3.181458349033383     1.317089368937539     1.344412755855278
    H               -0.983458349033384    -1.388910631062461     3.930412755855278
    H               -3.119458349033383    -0.267910631062461     3.282412755855278
    H               -0.821864249033384     3.078929368937540     0.009802755855278

}
e, wfn = energy('scf', return_wfn=True)
gdma(wfn)
dmavals = variable('DMA DISTRIBUTED MULTIPOLES')
charges = np.array(dmavals)
print(charges)
np.save('SSI-186CYS-192PHE-1-dimer.npy', np.array(charges))--------------------------------------------------------------------------

*** tstart() called on ds3
*** at Mon Apr 27 14:00:12 2020

   => Loading Basis Set <=

    Name: CC-PVDZ
    Role: ORBITAL
    Keyword: BASIS
    atoms 1-2, 10-16 entry C          line   138 file /theoryfs2/ds/metcalf/miniconda2/envs/tf2gpu/share/psi4/basis/cc-pvdz.gbs
    atoms 3          entry S          line   598 file /theoryfs2/ds/metcalf/miniconda2/envs/tf2gpu/share/psi4/basis/cc-pvdz.gbs
    atoms 4-9, 17-24 entry H          line    22 file /theoryfs2/ds/metcalf/miniconda2/envs/tf2gpu/share/psi4/basis/cc-pvdz.gbs

         ---------------------------------------------------------
                                   SCF
               by Justin Turney, Rob Parrish, Andy Simmonett
                          and Daniel G. A. Smith
                              RHF Reference
                        1 Threads,    500 MiB Core
         ---------------------------------------------------------

  ==> Geometry <==

    Molecular point group: c1
    Full point group: C1

    Geometry (in Angstrom), charge = 0, multiplicity = 1:

       Center              X                  Y                   Z               Mass
    ------------   -----------------  -----------------  -----------------  -----------------
         C            1.683541650967     0.003089368938    -2.033587244145    12.000000000000
         C            2.115541650967     0.677089368938    -3.309587244145    12.000000000000
         S            1.275541650967    -1.701910631062    -2.264587244145    31.972071174400
         H            2.468541650967     0.096089368938    -1.278587244145     1.007825032230
         H            0.792541650967     0.471089368938    -1.669587244145     1.007825032230
         H            1.349541650967     0.466089368938    -4.060587244145     1.007825032230
         H            0.949541650967    -1.968910631062    -0.991587244145     1.007825032230
         H            3.082731650967     0.306209368938    -3.679707244145     1.007825032230
         H            2.122763650967     1.769099368938    -3.177417244145     1.007825032230
         C           -1.097458349033     2.045089368938    -0.245587244145    12.000000000000
         C            0.104541650967     0.448089368938     1.279412755855    12.000000000000
         C           -1.080458349033     1.106089368938     0.917412755855    12.000000000000
         C            0.164541650967    -0.434910631062     2.367412755855    12.000000000000
         C           -2.251458349033     0.838089368938     1.621412755855    12.000000000000
         C           -1.008458349033    -0.701910631062     3.095412755855    12.000000000000
         C           -2.213458349033    -0.065910631062     2.730412755855    12.000000000000
         H            1.011541650967     0.640089368938     0.724412755855     1.007825032230
         H            1.096541650967    -0.916910631062     2.634412755855     1.007825032230
         H           -2.106458349033     2.063089368938    -0.659587244145     1.007825032230
         H           -0.462458349033     1.713089368938    -1.041587244145     1.007825032230
         H           -3.181458349033     1.317089368938     1.344412755855     1.007825032230
         H           -0.983458349033    -1.388910631062     3.930412755855     1.007825032230
         H           -3.119458349033    -0.267910631062     3.282412755855     1.007825032230
         H           -0.821864249033     3.078929368938     0.009802755855     1.007825032230

  Running in c1 symmetry.

  Rotational constants: A =      0.05837  B =      0.01527  C =      0.01339 [cm^-1]
  Rotational constants: A =   1749.95963  B =    457.72331  C =    401.30276 [MHz]
  Nuclear repulsion =  551.467704577857148

  Charge       = 0
  Multiplicity = 1
  Electrons    = 84
  Nalpha       = 42
  Nbeta        = 42

  ==> Algorithm <==

  SCF Algorithm Type is PK.
  DIIS enabled.
  MOM disabled.
  Fractional occupation disabled.
  Guess Type is SAD.
  Energy threshold   = 1.00e-06
  Density threshold  = 1.00e-10
  Integral threshold = 0.00e+00

  ==> Primary Basis <==

  Basis Set: CC-PVDZ
    Blend: CC-PVDZ
    Number of shells: 104
    Number of basis function: 214
    Number of Cartesian functions: 224
    Spherical Harmonics?: true
    Max angular momentum: 2

  ==> Pre-Iterations <==

   -------------------------------------------------------
    Irrep   Nso     Nmo     Nalpha   Nbeta   Ndocc  Nsocc
   -------------------------------------------------------
     A        214     214       0       0       0       0
   -------------------------------------------------------
    Total     214     214      42      42      42       0
   -------------------------------------------------------

  ==> Integral Setup <==

  Using integral reordering PK algorithm.
  Sizing the integral batches needed.
  Building batch lookup table.
   Calculation information:
      Number of atoms:                  24
      Number of AO shells:             104
      Number of primitives:            318
      Number of atomic orbitals:       224
      Number of basis functions:       214

      Integral cutoff                 1.00e-12
      Number of threads:                 1

	Batch   1 pq = [       0,    9405] index = [             0,44231715] size =     44231715
	Batch   2 pq = [    9405,   13301] index = [      44231715,88464951] size =     44233236
	Batch   3 pq = [   13301,   16290] index = [      88464951,132690195] size =     44225244
	Batch   4 pq = [   16290,   18810] index = [     132690195,176917455] size =     44227260
	Batch   5 pq = [   18810,   21030] index = [     176917455,221140965] size =     44223510
	Batch   6 pq = [   21030,   23005] index = [     221140965,264626515] size =     43485550
  Task number: 24
  Buffer size: 11059200
  Buffer per thread: 2
  We computed 13275606 shell quartets total.
  Whereas there are 14908530 unique shell quartets.

  ==> DiskJK: Disk-Based J/K Matrices <==

    J tasked:                  Yes
    K tasked:                  Yes
    wK tasked:                  No
    Memory [MiB]:              375
    Schwarz Cutoff:          1E-12

    OpenMP threads:              1

  Minimum eigenvalue in the overlap matrix is 3.3737177608E-04.
  Using Symmetric Orthogonalization.

  SCF Guess: Superposition of Atomic Densities via on-the-fly atomic UHF.

  ==> Iterations <==

                        Total Energy        Delta E     RMS |[F,P]|

   @RHF iter SAD:  -745.52690762686200   -7.45527e+02   0.00000e+00
   @RHF iter   1:  -746.29070267740292   -7.63795e-01   2.57016e-03 DIIS
   @RHF iter   2:  -746.48215501579887   -1.91452e-01   1.03699e-03 DIIS
   @RHF iter   3:  -746.50976481538817   -2.76098e-02   2.54543e-04 DIIS
   @RHF iter   4:  -746.51247627037480   -2.71145e-03   6.26618e-05 DIIS
   @RHF iter   5:  -746.51259722523639   -1.20955e-04   1.93395e-05 DIIS
   @RHF iter   6:  -746.51260896223778   -1.17370e-05   5.54147e-06 DIIS
   @RHF iter   7:  -746.51261013521707   -1.17298e-06   1.58851e-06 DIIS
   @RHF iter   8:  -746.51261026560269   -1.30386e-07   4.73624e-07 DIIS
   @RHF iter   9:  -746.51261028783085   -2.22282e-08   1.95854e-07 DIIS
   @RHF iter  10:  -746.51261029257512   -4.74427e-09   9.18882e-08 DIIS
   @RHF iter  11:  -746.51261029406203   -1.48691e-09   3.42202e-08 DIIS
   @RHF iter  12:  -746.51261029427212   -2.10093e-10   1.08449e-08 DIIS
   @RHF iter  13:  -746.51261029428554   -1.34150e-11   4.37178e-09 DIIS
   @RHF iter  14:  -746.51261029428849   -2.95586e-12   1.17297e-09 DIIS
   @RHF iter  15:  -746.51261029428360    4.88853e-12   4.29848e-10 DIIS
   @RHF iter  16:  -746.51261029429065   -7.04858e-12   1.48391e-10 DIIS
   @RHF iter  17:  -746.51261029428497    5.68434e-12   6.92453e-11 DIIS
  Energy and wave function converged.

  ==> Post-Iterations <==

    Orbital Energies [Eh]
    ---------------------

    Doubly Occupied:

       1A    -91.938135     2A    -11.255066     3A    -11.246990
       4A    -11.246726     5A    -11.244678     6A    -11.240914
       7A    -11.240558     8A    -11.237736     9A    -11.234680
      10A    -11.231015    11A     -8.942553    12A     -6.624718
      13A     -6.623270    14A     -6.620831    15A     -1.149806
      16A     -1.082708    17A     -1.048381    18A     -1.008918
      19A     -0.946118    20A     -0.936453    21A     -0.829900
      22A     -0.811760    23A     -0.797504    24A     -0.692370
      25A     -0.643049    26A     -0.638515    27A     -0.629090
      28A     -0.618656    29A     -0.584162    30A     -0.581285
      31A     -0.570309    32A     -0.541407    33A     -0.536327
      34A     -0.510837    35A     -0.503556    36A     -0.490915
      37A     -0.486650    38A     -0.485183    39A     -0.441700
      40A     -0.346159    41A     -0.332192    42A     -0.325841

    Virtual:

      43A      0.125402    44A      0.131597    45A      0.155537
      46A      0.187943    47A      0.193821    48A      0.212217
      49A      0.217474    50A      0.228234    51A      0.238985
      52A      0.247460    53A      0.252516    54A      0.259011
      55A      0.272457    56A      0.278053    57A      0.285657
      58A      0.310836    59A      0.349744    60A      0.356988
      61A      0.373001    62A      0.416008    63A      0.443386
      64A      0.457671    65A      0.482975    66A      0.488049
      67A      0.517596    68A      0.557408    69A      0.586988
      70A      0.590228    71A      0.595736    72A      0.637404
      73A      0.654929    74A      0.662732    75A      0.667945
      76A      0.676708    77A      0.691202    78A      0.698101
      79A      0.707342    80A      0.716494    81A      0.728333
      82A      0.733305    83A      0.738212    84A      0.743524
      85A      0.755287    86A      0.756759    87A      0.772413
      88A      0.794423    89A      0.801312    90A      0.819871
      91A      0.822106    92A      0.842640    93A      0.860411
      94A      0.863136    95A      0.867857    96A      0.871734
      97A      0.874860    98A      0.883996    99A      0.893138
     100A      0.894204   101A      0.907869   102A      0.916886
     103A      0.928170   104A      0.935337   105A      0.942185
     106A      0.961548   107A      0.978012   108A      0.994207
     109A      1.013053   110A      1.043848   111A      1.068463
     112A      1.073903   113A      1.101434   114A      1.128861
     115A      1.135802   116A      1.152909   117A      1.180462
     118A      1.223714   119A      1.231421   120A      1.232134
     121A      1.240262   122A      1.258675   123A      1.273293
     124A      1.291420   125A      1.298619   126A      1.307942
     127A      1.314013   128A      1.323521   129A      1.341872
     130A      1.412469   131A      1.423825   132A      1.472216
     133A      1.500163   134A      1.530721   135A      1.553366
     136A      1.586951   137A      1.619957   138A      1.655225
     139A      1.675902   140A      1.681825   141A      1.708177
     142A      1.717527   143A      1.733200   144A      1.738656
     145A      1.748616   146A      1.752992   147A      1.786645
     148A      1.797038   149A      1.849754   150A      1.859447
     151A      1.863357   152A      1.883499   153A      1.888842
     154A      1.896184   155A      1.908055   156A      1.908932
     157A      1.914948   158A      1.921408   159A      1.942628
     160A      1.949897   161A      1.950330   162A      1.966690
     163A      1.980450   164A      1.988140   165A      1.999087
     166A      2.016339   167A      2.030441   168A      2.045862
     169A      2.054938   170A      2.080244   171A      2.109341
     172A      2.123809   173A      2.133757   174A      2.139661
     175A      2.140767   176A      2.160054   177A      2.179188
     178A      2.219861   179A      2.246824   180A      2.265570
     181A      2.280097   182A      2.292222   183A      2.302330
     184A      2.306534   185A      2.330291   186A      2.345498
     187A      2.420689   188A      2.442203   189A      2.459495
     190A      2.478843   191A      2.492365   192A      2.530483
     193A      2.552985   194A      2.576530   195A      2.618453
     196A      2.725876   197A      2.737342   198A      2.745056
     199A      2.759089   200A      2.770531   201A      2.797073
     202A      2.808221   203A      2.832957   204A      2.851321
     205A      2.876954   206A      2.920347   207A      2.946796
     208A      2.983450   209A      3.001228   210A      3.030802
     211A      3.146921   212A      3.177386   213A      3.265088
     214A      3.909258

    Final Occupation by Irrep:
              A
    DOCC [    42 ]

  @RHF Final Energy:  -746.51261029428497

   => Energetics <=

    Nuclear Repulsion Energy =            551.4677045778571483
    One-Electron Energy =               -2114.9653864089395938
    Two-Electron Energy =                 816.9850715367974772
    Total Energy =                       -746.5126102942849684

Computation Completed

Properties will be evaluated at   0.000000,   0.000000,   0.000000 [a0]

Properties computed using the SCF density matrix

  Nuclear Dipole Moment: [e a0]
     X:     2.0948      Y:     6.8719      Z:    -4.4029

  Electronic Dipole Moment: [e a0]
     X:    -2.1281      Y:    -6.2574      Z:     4.7423

  Dipole Moment: [e a0]
     X:    -0.0333      Y:     0.6145      Z:     0.3395     Total:     0.7028

  Dipole Moment: [D]
     X:    -0.0846      Y:     1.5619      Z:     0.8628     Total:     1.7864

*** tstop() called on ds3 at Mon Apr 27 14:02:38 2020
Module time:
	user time   =     110.02 seconds =       1.83 minutes
	system time =      41.17 seconds =       0.69 minutes
	total time  =        146 seconds =       2.43 minutes
Total time:
	user time   =     110.02 seconds =       1.83 minutes
	system time =      41.17 seconds =       0.69 minutes
	total time  =        146 seconds =       2.43 minutes
                                     G D M A

                                 by Anthony Stone

                           version 2.2.06, 22 June 2011

               Distributed Multipoles from Gaussian wavefunctions

Starting at 14:2:38 on 27 Apr 2020

Using SCF density matrix from file ./SSI/SSI-186CYS-192PHE-1-dimer.test.8482.fchk

                         Distributed Multipole Analysis

Standard DMA

Positions and radii in angstrom
Multipole moments in atomic units, ea_0^k for rank k

C          x =  1.683542  y =  0.003089  z = -2.033587 angstrom
           Maximum rank =  0   Radius =  0.650 angstrom
                   Q00  =  -0.172733

C          x =  2.115542  y =  0.677089  z = -3.309587 angstrom
           Maximum rank =  0   Radius =  0.650 angstrom
                   Q00  =  -0.215182

S          x =  1.275542  y = -1.701911  z = -2.264587 angstrom
           Maximum rank =  0   Radius =  0.650 angstrom
                   Q00  =  -0.111383

H          x =  2.468542  y =  0.096089  z = -1.278587 angstrom
           Maximum rank =  0   Radius =  0.325 angstrom
                   Q00  =   0.058935

H          x =  0.792542  y =  0.471089  z = -1.669587 angstrom
           Maximum rank =  0   Radius =  0.325 angstrom
                   Q00  =   0.056737

H          x =  1.349542  y =  0.466089  z = -4.060587 angstrom
           Maximum rank =  0   Radius =  0.325 angstrom
                   Q00  =   0.082160

H          x =  0.949542  y = -1.968911  z = -0.991587 angstrom
           Maximum rank =  0   Radius =  0.325 angstrom
                   Q00  =   0.117858

H          x =  3.082732  y =  0.306209  z = -3.679707 angstrom
           Maximum rank =  0   Radius =  0.325 angstrom
                   Q00  =   0.093976

H          x =  2.122764  y =  1.769099  z = -3.177417 angstrom
           Maximum rank =  0   Radius =  0.325 angstrom
                   Q00  =   0.092458

C          x = -1.097458  y =  2.045089  z = -0.245587 angstrom
           Maximum rank =  0   Radius =  0.650 angstrom
                   Q00  =  -0.205088

C          x =  0.104542  y =  0.448089  z =  1.279413 angstrom
           Maximum rank =  0   Radius =  0.650 angstrom
                   Q00  =  -0.012361

C          x = -1.080458  y =  1.106089  z =  0.917413 angstrom
           Maximum rank =  0   Radius =  0.650 angstrom
                   Q00  =  -0.093835

C          x =  0.164542  y = -0.434911  z =  2.367413 angstrom
           Maximum rank =  0   Radius =  0.650 angstrom
                   Q00  =  -0.076156

C          x = -2.251458  y =  0.838089  z =  1.621413 angstrom
           Maximum rank =  0   Radius =  0.650 angstrom
                   Q00  =  -0.086647

C          x = -1.008458  y = -0.701911  z =  3.095413 angstrom
           Maximum rank =  0   Radius =  0.650 angstrom
                   Q00  =  -0.087900

C          x = -2.213458  y = -0.065911  z =  2.730413 angstrom
           Maximum rank =  0   Radius =  0.650 angstrom
                   Q00  =  -0.073357

H          x =  1.011542  y =  0.640089  z =  0.724413 angstrom
           Maximum rank =  0   Radius =  0.325 angstrom
                   Q00  =   0.055291

H          x =  1.096542  y = -0.916911  z =  2.634413 angstrom
           Maximum rank =  0   Radius =  0.325 angstrom
                   Q00  =   0.069595

H          x = -2.106458  y =  2.063089  z = -0.659587 angstrom
           Maximum rank =  0   Radius =  0.325 angstrom
                   Q00  =   0.098039

H          x = -0.462458  y =  1.713089  z = -1.041587 angstrom
           Maximum rank =  0   Radius =  0.325 angstrom
                   Q00  =   0.098064

H          x = -3.181458  y =  1.317089  z =  1.344413 angstrom
           Maximum rank =  0   Radius =  0.325 angstrom
                   Q00  =   0.066725

H          x = -0.983458  y = -1.388911  z =  3.930413 angstrom
           Maximum rank =  0   Radius =  0.325 angstrom
                   Q00  =   0.067651

H          x = -3.119458  y = -0.267911  z =  3.282413 angstrom
           Maximum rank =  0   Radius =  0.325 angstrom
                   Q00  =   0.072268

H          x = -0.821864  y =  3.078929  z =  0.009803 angstrom
           Maximum rank =  0   Radius =  0.325 angstrom
                   Q00  =   0.104885

Total multipoles referred to origin at
           x =   0.000000,  y =    0.000000,  z =    0.000000 angstrom
                   Q00  =  -0.000000

Finished at 14:2:38 on 27 Apr 2020

  DMA results are available in the Python driver through the
	  variable('DMA DISTRIBUTED MULTIPOLES')
  and
	  variable('DMA TOTAL MULTIPOLES')
  commands.

    Psi4 stopped on: Monday, 27 April 2020 02:02PM
    Psi4 wall time for execution: 0:02:26.20

*** Psi4 exiting successfully. Buy a developer a beer!
