                               Psi4 1.3.2 release

  ==> Input File <==

--------------------------------------------------------------------------
import numpy as np
set {scf_type pk
basis cc-pvdz
d_convergence 10
gdma_switch   0
gdma_limit    0
gdma_origin   [ 0.0,  0.0,  0.0 ]
}
molecule test {
    units Angstrom
    0 1
    --
    0 1
    C                0.969977641588421    -1.590889386372379    -1.494892938451069
    C                2.089977641588421    -2.586889386372379    -1.250892938451069
    H                1.367977641588421    -0.666889386372379    -1.913892938451069
    H                0.248977641588421    -2.018889386372379    -2.192892938451069
    H                0.448977641588421    -1.374889386372379    -0.562892938451069
    H                1.686977641588421    -3.441889386372379    -0.706892938451069
    H                2.900960641588421    -2.120179386372379    -0.672544938451069
    H                2.471785641588422    -2.931449386372379    -2.223261938451069
    C                0.177977641588421     2.133110613627621     0.952107061548931
    C               -0.819022358411579     1.005110613627621     0.749107061548931
    O               -1.012022358411579     0.131110613627621     1.591107061548931
    N               -1.430022358411579     0.986110613627621    -0.413892938451069
    H               -0.238022358411579     3.061110613627621     0.556107061548931
    H                1.068977641588421     1.893110613627621     0.373107061548931
    H               -2.094022358411579     0.250110613627621    -0.603892938451069
    H               -1.174022358411579     1.659110613627621    -1.125892938451069
    H                0.440639641588421     2.286390613627621     2.009237061548931

}
e, wfn = energy('scf', return_wfn=True)
gdma(wfn)
dmavals = variable('DMA DISTRIBUTED MULTIPOLES')
charges = np.array(dmavals)
print(charges)
np.save('SSI-083THR-087GLN-1-dimer.npy', np.array(charges))--------------------------------------------------------------------------

*** tstart() called on ds3
*** at Mon Apr 27 22:26:15 2020

   => Loading Basis Set <=

    Name: CC-PVDZ
    Role: ORBITAL
    Keyword: BASIS
    atoms 1-2, 9-10  entry C          line   138 file /theoryfs2/ds/metcalf/miniconda2/envs/tf2gpu/share/psi4/basis/cc-pvdz.gbs
    atoms 3-8, 13-17 entry H          line    22 file /theoryfs2/ds/metcalf/miniconda2/envs/tf2gpu/share/psi4/basis/cc-pvdz.gbs
    atoms 11         entry O          line   198 file /theoryfs2/ds/metcalf/miniconda2/envs/tf2gpu/share/psi4/basis/cc-pvdz.gbs
    atoms 12         entry N          line   168 file /theoryfs2/ds/metcalf/miniconda2/envs/tf2gpu/share/psi4/basis/cc-pvdz.gbs

         ---------------------------------------------------------
                                   SCF
               by Justin Turney, Rob Parrish, Andy Simmonett
                          and Daniel G. A. Smith
                              RHF Reference
                        1 Threads,    500 MiB Core
         ---------------------------------------------------------

  ==> Geometry <==

    Molecular point group: c1
    Full point group: C1

    Geometry (in Angstrom), charge = 0, multiplicity = 1:

       Center              X                  Y                   Z               Mass
    ------------   -----------------  -----------------  -----------------  -----------------
         C            0.969977641588    -1.590889386372    -1.494892938451    12.000000000000
         C            2.089977641588    -2.586889386372    -1.250892938451    12.000000000000
         H            1.367977641588    -0.666889386372    -1.913892938451     1.007825032230
         H            0.248977641588    -2.018889386372    -2.192892938451     1.007825032230
         H            0.448977641588    -1.374889386372    -0.562892938451     1.007825032230
         H            1.686977641588    -3.441889386372    -0.706892938451     1.007825032230
         H            2.900960641588    -2.120179386372    -0.672544938451     1.007825032230
         H            2.471785641588    -2.931449386372    -2.223261938451     1.007825032230
         C            0.177977641588     2.133110613628     0.952107061549    12.000000000000
         C           -0.819022358412     1.005110613628     0.749107061549    12.000000000000
         O           -1.012022358412     0.131110613628     1.591107061549    15.994914619570
         N           -1.430022358412     0.986110613628    -0.413892938451    14.003074004430
         H           -0.238022358412     3.061110613628     0.556107061549     1.007825032230
         H            1.068977641588     1.893110613628     0.373107061549     1.007825032230
         H           -2.094022358412     0.250110613628    -0.603892938451     1.007825032230
         H           -1.174022358412     1.659110613628    -1.125892938451     1.007825032230
         H            0.440639641588     2.286390613628     2.009237061549     1.007825032230

  Running in c1 symmetry.

  Rotational constants: A =      0.15933  B =      0.03666  C =      0.03628 [cm^-1]
  Rotational constants: A =   4776.57296  B =   1098.98181  C =   1087.77878 [MHz]
  Nuclear repulsion =  232.085932632412550

  Charge       = 0
  Multiplicity = 1
  Electrons    = 50
  Nalpha       = 25
  Nbeta        = 25

  ==> Algorithm <==

  SCF Algorithm Type is PK.
  DIIS enabled.
  MOM disabled.
  Fractional occupation disabled.
  Guess Type is SAD.
  Energy threshold   = 1.00e-06
  Density threshold  = 1.00e-10
  Integral threshold = 0.00e+00

  ==> Primary Basis <==

  Basis Set: CC-PVDZ
    Blend: CC-PVDZ
    Number of shells: 69
    Number of basis function: 139
    Number of Cartesian functions: 145
    Spherical Harmonics?: true
    Max angular momentum: 2

  ==> Pre-Iterations <==

   -------------------------------------------------------
    Irrep   Nso     Nmo     Nalpha   Nbeta   Ndocc  Nsocc
   -------------------------------------------------------
     A        139     139       0       0       0       0
   -------------------------------------------------------
    Total     139     139      25      25      25       0
   -------------------------------------------------------

  ==> Integral Setup <==

  Using integral reordering PK algorithm.
  Sizing the integral batches needed.
  Building batch lookup table.
   Calculation information:
      Number of atoms:                  17
      Number of AO shells:              69
      Number of primitives:            187
      Number of atomic orbitals:       145
      Number of basis functions:       139

      Integral cutoff                 1.00e-12
      Number of threads:                 1

	Batch   1 pq = [       0,    9730] index = [             0,47341315] size =     47341315
  Task number: 5
  Buffer size: 11059200
  Buffer per thread: 2
  We computed 2434916 shell quartets total.
  Whereas there are 2917320 unique shell quartets.

  ==> DiskJK: Disk-Based J/K Matrices <==

    J tasked:                  Yes
    K tasked:                  Yes
    wK tasked:                  No
    Memory [MiB]:              375
    Schwarz Cutoff:          1E-12

    OpenMP threads:              1

  Minimum eigenvalue in the overlap matrix is 4.5809623180E-03.
  Using Symmetric Orthogonalization.

  SCF Guess: Superposition of Atomic Densities via on-the-fly atomic UHF.

  ==> Iterations <==

                        Total Energy        Delta E     RMS |[F,P]|

   @RHF iter SAD:  -285.96551059196423   -2.85966e+02   0.00000e+00
   @RHF iter   1:  -286.99551853274590   -1.03001e+00   4.64780e-03 DIIS
   @RHF iter   2:  -287.17169679351252   -1.76178e-01   2.60334e-03 DIIS
   @RHF iter   3:  -287.22204629033291   -5.03495e-02   5.39550e-04 DIIS
   @RHF iter   4:  -287.22539482748527   -3.34854e-03   2.19830e-04 DIIS
   @RHF iter   5:  -287.22599669417087   -6.01867e-04   3.39361e-05 DIIS
   @RHF iter   6:  -287.22602688845143   -3.01943e-05   1.51677e-05 DIIS
   @RHF iter   7:  -287.22603155685562   -4.66840e-06   6.11300e-06 DIIS
   @RHF iter   8:  -287.22603260047703   -1.04362e-06   2.09188e-06 DIIS
   @RHF iter   9:  -287.22603272714520   -1.26668e-07   5.28857e-07 DIIS
   @RHF iter  10:  -287.22603273299023   -5.84504e-09   1.66224e-07 DIIS
   @RHF iter  11:  -287.22603273363319   -6.42956e-10   3.64943e-08 DIIS
   @RHF iter  12:  -287.22603273366786   -3.46745e-11   7.93463e-09 DIIS
   @RHF iter  13:  -287.22603273366883   -9.66338e-13   1.68082e-09 DIIS
   @RHF iter  14:  -287.22603273366917   -3.41061e-13   7.65650e-10 DIIS
   @RHF iter  15:  -287.22603273366963   -4.54747e-13   3.39947e-10 DIIS
   @RHF iter  16:  -287.22603273366764    1.98952e-12   1.24614e-10 DIIS
   @RHF iter  17:  -287.22603273366883   -1.19371e-12   4.75182e-11 DIIS
  Energy and wave function converged.

  ==> Post-Iterations <==

    Orbital Energies [Eh]
    ---------------------

    Doubly Occupied:

       1A    -20.502152     2A    -15.588484     3A    -11.345926
       4A    -11.243463     5A    -11.215974     6A    -11.213347
       7A     -1.368197     8A     -1.219633     9A     -1.018650
      10A     -1.000324    11A     -0.832705    12A     -0.800530
      13A     -0.729522    14A     -0.652986    15A     -0.616251
      16A     -0.598987    17A     -0.595201    18A     -0.568908
      19A     -0.558419    20A     -0.524381    21A     -0.497971
      22A     -0.484728    23A     -0.479477    24A     -0.409029
      25A     -0.402880

    Virtual:

      26A      0.153956    27A      0.188854    28A      0.203777
      29A      0.209792    30A      0.231336    31A      0.244158
      32A      0.252168    33A      0.258220    34A      0.270226
      35A      0.290261    36A      0.302510    37A      0.306048
      38A      0.380075    39A      0.398089    40A      0.484645
      41A      0.541656    42A      0.598075    43A      0.601532
      44A      0.604702    45A      0.630743    46A      0.644758
      47A      0.680376    48A      0.685500    49A      0.699943
      50A      0.736215    51A      0.746851    52A      0.815574
      53A      0.841628    54A      0.858589    55A      0.869174
      56A      0.886345    57A      0.895386    58A      0.898608
      59A      0.904161    60A      0.911803    61A      0.923508
      62A      0.925596    63A      0.951467    64A      0.981153
      65A      1.028894    66A      1.045827    67A      1.064835
      68A      1.116227    69A      1.125874    70A      1.126706
      71A      1.164636    72A      1.240450    73A      1.328619
      74A      1.350866    75A      1.380800    76A      1.392783
      77A      1.427935    78A      1.465184    79A      1.484872
      80A      1.487008    81A      1.495589    82A      1.588213
      83A      1.656378    84A      1.657251    85A      1.680790
      86A      1.695383    87A      1.731048    88A      1.796177
      89A      1.839291    90A      1.861262    91A      1.870807
      92A      1.878352    93A      1.902777    94A      1.904437
      95A      1.923360    96A      1.949012    97A      1.950087
      98A      1.951870    99A      1.961092   100A      1.966615
     101A      1.991912   102A      2.010072   103A      2.042373
     104A      2.082376   105A      2.118868   106A      2.129074
     107A      2.167771   108A      2.231344   109A      2.264340
     110A      2.301942   111A      2.316467   112A      2.421784
     113A      2.445060   114A      2.453862   115A      2.472992
     116A      2.498241   117A      2.532061   118A      2.577063
     119A      2.581522   120A      2.596026   121A      2.623301
     122A      2.712430   123A      2.742105   124A      2.766192
     125A      2.791064   126A      2.800437   127A      2.847483
     128A      2.851935   129A      2.871418   130A      2.949835
     131A      2.968147   132A      3.001189   133A      3.095957
     134A      3.139629   135A      3.288248   136A      3.499499
     137A      3.543867   138A      3.869114   139A      3.912956

    Final Occupation by Irrep:
              A
    DOCC [    25 ]

  @RHF Final Energy:  -287.22603273366883

   => Energetics <=

    Nuclear Repulsion Energy =            232.0859326324125504
    One-Electron Energy =                -849.6876817161938789
    Two-Electron Energy =                 330.3757163501124978
    Total Energy =                       -287.2260327336688306

Computation Completed

Properties will be evaluated at   0.000000,   0.000000,   0.000000 [a0]

Properties computed using the SCF density matrix

  Nuclear Dipole Moment: [e a0]
     X:     6.6827      Y:    -3.1937      Z:    -6.6132

  Electronic Dipole Moment: [e a0]
     X:    -6.6209      Y:     4.2042      Z:     5.2844

  Dipole Moment: [e a0]
     X:     0.0618      Y:     1.0105      Z:    -1.3288     Total:     1.6705

  Dipole Moment: [D]
     X:     0.1570      Y:     2.5684      Z:    -3.3774     Total:     4.2460

*** tstop() called on ds3 at Mon Apr 27 22:26:40 2020
Module time:
	user time   =      16.68 seconds =       0.28 minutes
	system time =       8.38 seconds =       0.14 minutes
	total time  =         25 seconds =       0.42 minutes
Total time:
	user time   =      16.68 seconds =       0.28 minutes
	system time =       8.38 seconds =       0.14 minutes
	total time  =         25 seconds =       0.42 minutes
                                     G D M A

                                 by Anthony Stone

                           version 2.2.06, 22 June 2011

               Distributed Multipoles from Gaussian wavefunctions

Starting at 22:26:40 on 27 Apr 2020

Using SCF density matrix from file ./SSI/SSI-083THR-087GLN-1-dimer.test.12320.fchk

                         Distributed Multipole Analysis

Standard DMA

Positions and radii in angstrom
Multipole moments in atomic units, ea_0^k for rank k

C          x =  0.969978  y = -1.590889  z = -1.494893 angstrom
           Maximum rank =  0   Radius =  0.650 angstrom
                   Q00  =  -0.235704

C          x =  2.089978  y = -2.586889  z = -1.250893 angstrom
           Maximum rank =  0   Radius =  0.650 angstrom
                   Q00  =  -0.229008

H          x =  1.367978  y = -0.666889  z = -1.913893 angstrom
           Maximum rank =  0   Radius =  0.325 angstrom
                   Q00  =   0.065505

H          x =  0.248978  y = -2.018889  z = -2.192893 angstrom
           Maximum rank =  0   Radius =  0.325 angstrom
                   Q00  =   0.072234

H          x =  0.448978  y = -1.374889  z = -0.562893 angstrom
           Maximum rank =  0   Radius =  0.325 angstrom
                   Q00  =   0.091324

H          x =  1.686978  y = -3.441889  z = -0.706893 angstrom
           Maximum rank =  0   Radius =  0.325 angstrom
                   Q00  =   0.083398

H          x =  2.900961  y = -2.120179  z = -0.672545 angstrom
           Maximum rank =  0   Radius =  0.325 angstrom
                   Q00  =   0.078921

H          x =  2.471786  y = -2.931449  z = -2.223262 angstrom
           Maximum rank =  0   Radius =  0.325 angstrom
                   Q00  =   0.071225

C          x =  0.177978  y =  2.133111  z =  0.952107 angstrom
           Maximum rank =  0   Radius =  0.650 angstrom
                   Q00  =  -0.264905

C          x = -0.819022  y =  1.005111  z =  0.749107 angstrom
           Maximum rank =  0   Radius =  0.650 angstrom
                   Q00  =   0.818695

O          x = -1.012022  y =  0.131111  z =  1.591107 angstrom
           Maximum rank =  0   Radius =  0.650 angstrom
                   Q00  =  -0.797583

N          x = -1.430022  y =  0.986111  z = -0.413893 angstrom
           Maximum rank =  0   Radius =  0.650 angstrom
                   Q00  =  -0.523003

H          x = -0.238022  y =  3.061111  z =  0.556107 angstrom
           Maximum rank =  0   Radius =  0.325 angstrom
                   Q00  =   0.089239

H          x =  1.068978  y =  1.893111  z =  0.373107 angstrom
           Maximum rank =  0   Radius =  0.325 angstrom
                   Q00  =   0.117843

H          x = -2.094022  y =  0.250111  z = -0.603893 angstrom
           Maximum rank =  0   Radius =  0.325 angstrom
                   Q00  =   0.225617

H          x = -1.174022  y =  1.659111  z = -1.125893 angstrom
           Maximum rank =  0   Radius =  0.325 angstrom
                   Q00  =   0.203845

H          x =  0.440640  y =  2.286391  z =  2.009237 angstrom
           Maximum rank =  0   Radius =  0.325 angstrom
                   Q00  =   0.132358

Total multipoles referred to origin at
           x =   0.000000,  y =    0.000000,  z =    0.000000 angstrom
                   Q00  =  -0.000000

Finished at 22:26:40 on 27 Apr 2020

  DMA results are available in the Python driver through the
	  variable('DMA DISTRIBUTED MULTIPOLES')
  and
	  variable('DMA TOTAL MULTIPOLES')
  commands.

    Psi4 stopped on: Monday, 27 April 2020 10:26PM
    Psi4 wall time for execution: 0:00:25.04

*** Psi4 exiting successfully. Buy a developer a beer!
