                               Psi4 1.3.2 release

  ==> Input File <==

--------------------------------------------------------------------------
import numpy as np
set {scf_type pk
basis cc-pvdz
d_convergence 10
gdma_switch   0
gdma_limit    0
gdma_origin   [ 0.0,  0.0,  0.0 ]
}
molecule test {
    units Angstrom
    0 1
    --
    0 1
    C               -3.153943420447341     0.259038454454190     0.241463454665010
    C               -0.625943420447341     0.146038454454190     0.916463454665010
    C               -1.878943420447341     0.828038454454190     0.812463454665010
    C                0.321056579552659     1.049038454454190     1.451463454665010
    C               -1.643943420447341     2.094038454454190     1.234463454665010
    C               -0.223943420447341    -1.160961545545810     0.651463454665010
    C                1.089056579552659    -1.525961545545810     0.896463454665010
    C                2.007056579552659    -0.609961545545810     1.413463454665010
    C                1.648056579552659     0.690038454454190     1.686463454665010
    N               -0.333943420447341     2.237038454454190     1.613463454665010
    H               -0.931943420447341    -1.878961545545810     0.260463454665010
    H                1.409056579552659    -2.539961545545810     0.691463454665010
    H                3.026056579552659    -0.927961545545810     1.596463454665010
    H               -4.014943420447342     0.713038454454190     0.736463454665010
    H               -3.176943420447341    -0.812961545545810     0.440463454665010
    H               -2.385943420447341     2.885038454454190     1.246463454665010
    H                0.081056579552659     3.124038454454190     1.917463454665010
    H                2.352056579552659     1.398038454454190     2.093463454665010
    H               -3.214293420447341     0.425728454454190    -0.844156545334990
    C                0.366056579552659    -1.144961545545810    -2.997536545334989
    C                1.671056579552659    -0.541961545545810    -2.552536545334990
    C                0.718056579552659    -2.048961545545810    -4.125536545334990
    H               -0.295943420447341    -0.355961545545810    -3.357536545334989
    H               -0.117943420447341    -1.690961545545810    -2.188536545334989
    H                1.509056579552660     0.443038454454190    -2.113536545334990
    H                2.169056579552660    -1.206961545545810    -1.844536545334990
    H               -0.137943420447341    -2.228961545545810    -4.778536545334990
    H                1.086056579552659    -2.994961545545810    -3.726536545334990
    H                2.247336579552659    -0.493188545545810    -3.488236545334989
    H                1.539306579552659    -1.525036545545810    -4.636466545334990

}
e, wfn = energy('scf', return_wfn=True)
gdma(wfn)
dmavals = variable('DMA DISTRIBUTED MULTIPOLES')
charges = np.array(dmavals)
print(charges)
np.save('SSI-066TRP-110PRO-1-dimer.npy', np.array(charges))--------------------------------------------------------------------------

*** tstart() called on ds3
*** at Tue Apr 28 14:42:38 2020

   => Loading Basis Set <=

    Name: CC-PVDZ
    Role: ORBITAL
    Keyword: BASIS
    atoms 1-9, 20-22   entry C          line   138 file /theoryfs2/ds/metcalf/miniconda2/envs/tf2gpu/share/psi4/basis/cc-pvdz.gbs
    atoms 10           entry N          line   168 file /theoryfs2/ds/metcalf/miniconda2/envs/tf2gpu/share/psi4/basis/cc-pvdz.gbs
    atoms 11-19, 23-30 entry H          line    22 file /theoryfs2/ds/metcalf/miniconda2/envs/tf2gpu/share/psi4/basis/cc-pvdz.gbs

         ---------------------------------------------------------
                                   SCF
               by Justin Turney, Rob Parrish, Andy Simmonett
                          and Daniel G. A. Smith
                              RHF Reference
                        1 Threads,    500 MiB Core
         ---------------------------------------------------------

  ==> Geometry <==

    Molecular point group: c1
    Full point group: C1

    Geometry (in Angstrom), charge = 0, multiplicity = 1:

       Center              X                  Y                   Z               Mass
    ------------   -----------------  -----------------  -----------------  -----------------
         C           -3.153943420447     0.259038454454     0.241463454665    12.000000000000
         C           -0.625943420447     0.146038454454     0.916463454665    12.000000000000
         C           -1.878943420447     0.828038454454     0.812463454665    12.000000000000
         C            0.321056579553     1.049038454454     1.451463454665    12.000000000000
         C           -1.643943420447     2.094038454454     1.234463454665    12.000000000000
         C           -0.223943420447    -1.160961545546     0.651463454665    12.000000000000
         C            1.089056579553    -1.525961545546     0.896463454665    12.000000000000
         C            2.007056579553    -0.609961545546     1.413463454665    12.000000000000
         C            1.648056579553     0.690038454454     1.686463454665    12.000000000000
         N           -0.333943420447     2.237038454454     1.613463454665    14.003074004430
         H           -0.931943420447    -1.878961545546     0.260463454665     1.007825032230
         H            1.409056579553    -2.539961545546     0.691463454665     1.007825032230
         H            3.026056579553    -0.927961545546     1.596463454665     1.007825032230
         H           -4.014943420447     0.713038454454     0.736463454665     1.007825032230
         H           -3.176943420447    -0.812961545546     0.440463454665     1.007825032230
         H           -2.385943420447     2.885038454454     1.246463454665     1.007825032230
         H            0.081056579553     3.124038454454     1.917463454665     1.007825032230
         H            2.352056579553     1.398038454454     2.093463454665     1.007825032230
         H           -3.214293420447     0.425728454454    -0.844156545335     1.007825032230
         C            0.366056579553    -1.144961545546    -2.997536545335    12.000000000000
         C            1.671056579553    -0.541961545546    -2.552536545335    12.000000000000
         C            0.718056579553    -2.048961545546    -4.125536545335    12.000000000000
         H           -0.295943420447    -0.355961545546    -3.357536545335     1.007825032230
         H           -0.117943420447    -1.690961545546    -2.188536545335     1.007825032230
         H            1.509056579553     0.443038454454    -2.113536545335     1.007825032230
         H            2.169056579553    -1.206961545546    -1.844536545335     1.007825032230
         H           -0.137943420447    -2.228961545546    -4.778536545335     1.007825032230
         H            1.086056579553    -2.994961545546    -3.726536545335     1.007825032230
         H            2.247336579553    -0.493188545546    -3.488236545335     1.007825032230
         H            1.539306579553    -1.525036545546    -4.636466545335     1.007825032230

  Running in c1 symmetry.

  Rotational constants: A =      0.03269  B =      0.01645  C =      0.01320 [cm^-1]
  Rotational constants: A =    979.93125  B =    493.08555  C =    395.73329 [MHz]
  Nuclear repulsion =  759.958625280800675

  Charge       = 0
  Multiplicity = 1
  Electrons    = 96
  Nalpha       = 48
  Nbeta        = 48

  ==> Algorithm <==

  SCF Algorithm Type is PK.
  DIIS enabled.
  MOM disabled.
  Fractional occupation disabled.
  Guess Type is SAD.
  Energy threshold   = 1.00e-06
  Density threshold  = 1.00e-10
  Integral threshold = 0.00e+00

  ==> Primary Basis <==

  Basis Set: CC-PVDZ
    Blend: CC-PVDZ
    Number of shells: 129
    Number of basis function: 267
    Number of Cartesian functions: 280
    Spherical Harmonics?: true
    Max angular momentum: 2

  ==> Pre-Iterations <==

   -------------------------------------------------------
    Irrep   Nso     Nmo     Nalpha   Nbeta   Ndocc  Nsocc
   -------------------------------------------------------
     A        267     267       0       0       0       0
   -------------------------------------------------------
    Total     267     267      48      48      48       0
   -------------------------------------------------------

  ==> Integral Setup <==

  Using integral reordering PK algorithm.
  Sizing the integral batches needed.
  Building batch lookup table.
   Calculation information:
      Number of atoms:                  30
      Number of AO shells:             129
      Number of primitives:            371
      Number of atomic orbitals:       280
      Number of basis functions:       267

      Integral cutoff                 1.00e-12
      Number of threads:                 1

	Batch   1 pq = [       0,    9405] index = [             0,44231715] size =     44231715
	Batch   2 pq = [    9405,   13301] index = [      44231715,88464951] size =     44233236
	Batch   3 pq = [   13301,   16290] index = [      88464951,132690195] size =     44225244
	Batch   4 pq = [   16290,   18810] index = [     132690195,176917455] size =     44227260
	Batch   5 pq = [   18810,   21030] index = [     176917455,221140965] size =     44223510
	Batch   6 pq = [   21030,   23037] index = [     221140965,265363203] size =     44222238
	Batch   7 pq = [   23037,   24883] index = [     265363203,309594286] size =     44231083
	Batch   8 pq = [   24883,   26601] index = [     309594286,353819901] size =     44225615
	Batch   9 pq = [   26601,   28214] index = [     353819901,398029005] size =     44209104
	Batch  10 pq = [   28214,   29740] index = [     398029005,442248670] size =     44219665
	Batch  11 pq = [   29740,   31191] index = [     442248670,486454836] size =     44206166
	Batch  12 pq = [   31191,   32578] index = [     486454836,530679331] size =     44224495
	Batch  13 pq = [   32578,   33908] index = [     530679331,574893186] size =     44213855
	Batch  14 pq = [   33908,   35188] index = [     574893186,619115266] size =     44222080
	Batch  15 pq = [   35188,   35778] index = [     619115266,640050531] size =     20935265
  Task number: 58
  Buffer size: 11059200
  Buffer per thread: 2
  We computed 36366249 shell quartets total.
  Whereas there are 35158305 unique shell quartets.
     3.44 percent of shell quartets recomputed by reordering.

  ==> DiskJK: Disk-Based J/K Matrices <==

    J tasked:                  Yes
    K tasked:                  Yes
    wK tasked:                  No
    Memory [MiB]:              375
    Schwarz Cutoff:          1E-12

    OpenMP threads:              1

  Minimum eigenvalue in the overlap matrix is 2.3969196277E-04.
  Using Symmetric Orthogonalization.

  SCF Guess: Superposition of Atomic Densities via on-the-fly atomic UHF.

  ==> Iterations <==

                        Total Energy        Delta E     RMS |[F,P]|

   @RHF iter SAD:  -518.33598007642865   -5.18336e+02   0.00000e+00
   @RHF iter   1:  -518.46274447613769   -1.26764e-01   2.56742e-03 DIIS
   @RHF iter   2:  -518.72857995533286   -2.65835e-01   1.17734e-03 DIIS
   @RHF iter   3:  -518.78043475522179   -5.18548e-02   2.92505e-04 DIIS
   @RHF iter   4:  -518.78471962474646   -4.28487e-03   1.33576e-04 DIIS
   @RHF iter   5:  -518.78543243953754   -7.12815e-04   2.00579e-05 DIIS
   @RHF iter   6:  -518.78546457424886   -3.21347e-05   8.74223e-06 DIIS
   @RHF iter   7:  -518.78547110719148   -6.53294e-06   3.44878e-06 DIIS
   @RHF iter   8:  -518.78547274011351   -1.63292e-06   1.45655e-06 DIIS
   @RHF iter   9:  -518.78547309124497   -3.51131e-07   6.44146e-07 DIIS
   @RHF iter  10:  -518.78547316579352   -7.45486e-08   2.73922e-07 DIIS
   @RHF iter  11:  -518.78547318233302   -1.65395e-08   1.07437e-07 DIIS
   @RHF iter  12:  -518.78547318464643   -2.31341e-09   3.97192e-08 DIIS
   @RHF iter  13:  -518.78547318484402   -1.97588e-10   1.00480e-08 DIIS
   @RHF iter  14:  -518.78547318485744   -1.34150e-11   3.42265e-09 DIIS
   @RHF iter  15:  -518.78547318485755   -1.13687e-13   1.71248e-09 DIIS
   @RHF iter  16:  -518.78547318485698    5.68434e-13   8.02120e-10 DIIS
   @RHF iter  17:  -518.78547318485835   -1.36424e-12   3.69378e-10 DIIS
   @RHF iter  18:  -518.78547318486005   -1.70530e-12   1.44116e-10 DIIS
   @RHF iter  19:  -518.78547318486073   -6.82121e-13   5.03217e-11 DIIS
  Energy and wave function converged.

  ==> Post-Iterations <==

    Orbital Energies [Eh]
    ---------------------

    Doubly Occupied:

       1A    -15.602705     2A    -11.263424     3A    -11.262142
       4A    -11.229882     5A    -11.228639     6A    -11.228394
       7A    -11.227490     8A    -11.219096     9A    -11.217670
      10A    -11.215991    11A    -11.202792    12A    -11.199860
      13A    -11.197311    14A     -1.297882    15A     -1.131615
      16A     -1.073959    17A     -1.063384    18A     -0.998033
      19A     -0.988507    20A     -0.932284    21A     -0.905559
      22A     -0.841103    23A     -0.803720    24A     -0.785164
      25A     -0.753816    26A     -0.719471    27A     -0.662702
      28A     -0.642989    29A     -0.629972    30A     -0.605187
      31A     -0.603992    32A     -0.593667    33A     -0.590702
      34A     -0.567489    35A     -0.553621    36A     -0.537036
      37A     -0.532610    38A     -0.526440    39A     -0.503387
      40A     -0.495220    41A     -0.473290    42A     -0.469835
      43A     -0.463179    44A     -0.454657    45A     -0.451623
      46A     -0.374546    47A     -0.295073    48A     -0.276369

    Virtual:

      49A      0.126363    50A      0.169331    51A      0.177151
      52A      0.180034    53A      0.196231    54A      0.206735
      55A      0.214398    56A      0.224758    57A      0.229504
      58A      0.243131    59A      0.247936    60A      0.257162
      61A      0.264454    62A      0.271084    63A      0.278980
      64A      0.293244    65A      0.311034    66A      0.316728
      67A      0.342306    68A      0.350506    69A      0.373064
      70A      0.380398    71A      0.397173    72A      0.408452
      73A      0.423059    74A      0.447514    75A      0.452259
      76A      0.473891    77A      0.480493    78A      0.503497
      79A      0.512295    80A      0.571714    81A      0.578972
      82A      0.597887    83A      0.617584    84A      0.621817
      85A      0.633621    86A      0.639256    87A      0.648844
      88A      0.655528    89A      0.668313    90A      0.700037
      91A      0.706069    92A      0.723702    93A      0.733274
      94A      0.739798    95A      0.740798    96A      0.744381
      97A      0.756881    98A      0.765277    99A      0.783837
     100A      0.787769   101A      0.794999   102A      0.803869
     103A      0.821325   104A      0.832040   105A      0.854916
     106A      0.863358   107A      0.871371   108A      0.874488
     109A      0.885083   110A      0.887074   111A      0.891588
     112A      0.899438   113A      0.903046   114A      0.910441
     115A      0.914779   116A      0.923801   117A      0.928360
     118A      0.936256   119A      0.946664   120A      0.954716
     121A      0.959429   122A      0.960957   123A      0.974225
     124A      0.985935   125A      0.992327   126A      1.006188
     127A      1.012861   128A      1.037586   129A      1.061465
     130A      1.075891   131A      1.092454   132A      1.103748
     133A      1.127555   134A      1.137720   135A      1.141479
     136A      1.147133   137A      1.162504   138A      1.188482
     139A      1.205746   140A      1.215976   141A      1.226057
     142A      1.233888   143A      1.243455   144A      1.268636
     145A      1.283263   146A      1.294585   147A      1.303644
     148A      1.330163   149A      1.334269   150A      1.366613
     151A      1.373157   152A      1.419029   153A      1.425866
     154A      1.443740   155A      1.481000   156A      1.505115
     157A      1.529660   158A      1.556235   159A      1.567383
     160A      1.596230   161A      1.626324   162A      1.627783
     163A      1.635133   164A      1.638542   165A      1.641617
     166A      1.649545   167A      1.691632   168A      1.709788
     169A      1.736275   170A      1.740865   171A      1.746796
     172A      1.773858   173A      1.773973   174A      1.789935
     175A      1.800801   176A      1.811793   177A      1.834051
     178A      1.843631   179A      1.866973   180A      1.886191
     181A      1.888911   182A      1.894848   183A      1.904353
     184A      1.913709   185A      1.927145   186A      1.928437
     187A      1.936052   188A      1.944878   189A      1.949756
     190A      1.954388   191A      1.959047   192A      1.974235
     193A      1.979428   194A      1.998607   195A      2.006777
     196A      2.016177   197A      2.030572   198A      2.039951
     199A      2.045803   200A      2.051896   201A      2.061007
     202A      2.070798   203A      2.089506   204A      2.098336
     205A      2.112005   206A      2.117707   207A      2.125969
     208A      2.137423   209A      2.150014   210A      2.154828
     211A      2.169278   212A      2.180924   213A      2.189411
     214A      2.223013   215A      2.233839   216A      2.243421
     217A      2.267024   218A      2.276036   219A      2.301963
     220A      2.311981   221A      2.327522   222A      2.342472
     223A      2.357123   224A      2.374602   225A      2.398492
     226A      2.410164   227A      2.451615   228A      2.458744
     229A      2.479970   230A      2.484697   231A      2.513872
     232A      2.541395   233A      2.575860   234A      2.585846
     235A      2.594632   236A      2.641062   237A      2.657426
     238A      2.669979   239A      2.689069   240A      2.712832
     241A      2.723392   242A      2.764487   243A      2.768838
     244A      2.773196   245A      2.782471   246A      2.792407
     247A      2.809953   248A      2.824087   249A      2.834471
     250A      2.856251   251A      2.866442   252A      2.878707
     253A      2.890205   254A      2.923681   255A      2.951841
     256A      2.958752   257A      2.978816   258A      3.036741
     259A      3.060018   260A      3.076585   261A      3.087529
     262A      3.128080   263A      3.208734   264A      3.313941
     265A      3.380712   266A      3.733738   267A      3.970816

    Final Occupation by Irrep:
              A
    DOCC [    48 ]

  @RHF Final Energy:  -518.78547318486073

   => Energetics <=

    Nuclear Repulsion Energy =            759.9586252808006748
    One-Electron Energy =               -2209.7012441997894712
    Two-Electron Energy =                 930.9571457341279483
    Total Energy =                       -518.7854731848607344

Computation Completed

Properties will be evaluated at   0.000000,   0.000000,   0.000000 [a0]

Properties computed using the SCF density matrix

  Nuclear Dipole Moment: [e a0]
     X:     1.0726      Y:    -7.1940      Z:   -16.8748

  Electronic Dipole Moment: [e a0]
     X:    -1.2324      Y:     8.0321      Z:    17.1634

  Dipole Moment: [e a0]
     X:    -0.1598      Y:     0.8381      Z:     0.2886     Total:     0.9006

  Dipole Moment: [D]
     X:    -0.4061      Y:     2.1301      Z:     0.7335     Total:     2.2892

*** tstop() called on ds3 at Tue Apr 28 14:51:21 2020
Module time:
	user time   =     286.06 seconds =       4.77 minutes
	system time =     102.63 seconds =       1.71 minutes
	total time  =        523 seconds =       8.72 minutes
Total time:
	user time   =     286.06 seconds =       4.77 minutes
	system time =     102.63 seconds =       1.71 minutes
	total time  =        523 seconds =       8.72 minutes
                                     G D M A

                                 by Anthony Stone

                           version 2.2.06, 22 June 2011

               Distributed Multipoles from Gaussian wavefunctions

Starting at 14:51:21 on 28 Apr 2020

Using SCF density matrix from file ./SSI/SSI-066TRP-110PRO-1-dimer.test.7965.fchk

                         Distributed Multipole Analysis

Standard DMA

Positions and radii in angstrom
Multipole moments in atomic units, ea_0^k for rank k

C          x = -3.153943  y =  0.259038  z =  0.241463 angstrom
           Maximum rank =  0   Radius =  0.650 angstrom
                   Q00  =  -0.215030

C          x = -0.625943  y =  0.146038  z =  0.916463 angstrom
           Maximum rank =  0   Radius =  0.650 angstrom
                   Q00  =  -0.050204

C          x = -1.878943  y =  0.828038  z =  0.812463 angstrom
           Maximum rank =  0   Radius =  0.650 angstrom
                   Q00  =  -0.123221

C          x =  0.321057  y =  1.049038  z =  1.451463 angstrom
           Maximum rank =  0   Radius =  0.650 angstrom
                   Q00  =   0.260818

C          x = -1.643943  y =  2.094038  z =  1.234463 angstrom
           Maximum rank =  0   Radius =  0.650 angstrom
                   Q00  =   0.073570

C          x = -0.223943  y = -1.160962  z =  0.651463 angstrom
           Maximum rank =  0   Radius =  0.650 angstrom
                   Q00  =  -0.102655

C          x =  1.089057  y = -1.525962  z =  0.896463 angstrom
           Maximum rank =  0   Radius =  0.650 angstrom
                   Q00  =  -0.078918

C          x =  2.007057  y = -0.609962  z =  1.413463 angstrom
           Maximum rank =  0   Radius =  0.650 angstrom
                   Q00  =  -0.042002

C          x =  1.648057  y =  0.690038  z =  1.686463 angstrom
           Maximum rank =  0   Radius =  0.650 angstrom
                   Q00  =  -0.117802

N          x = -0.333943  y =  2.237038  z =  1.613463 angstrom
           Maximum rank =  0   Radius =  0.650 angstrom
                   Q00  =  -0.498558

H          x = -0.931943  y = -1.878962  z =  0.260463 angstrom
           Maximum rank =  0   Radius =  0.325 angstrom
                   Q00  =   0.070115

H          x =  1.409057  y = -2.539962  z =  0.691463 angstrom
           Maximum rank =  0   Radius =  0.325 angstrom
                   Q00  =   0.057484

H          x =  3.026057  y = -0.927962  z =  1.596463 angstrom
           Maximum rank =  0   Radius =  0.325 angstrom
                   Q00  =   0.062880

H          x = -4.014943  y =  0.713038  z =  0.736463 angstrom
           Maximum rank =  0   Radius =  0.325 angstrom
                   Q00  =   0.105586

H          x = -3.176943  y = -0.812962  z =  0.440463 angstrom
           Maximum rank =  0   Radius =  0.325 angstrom
                   Q00  =   0.104988

H          x = -2.385943  y =  2.885038  z =  1.246463 angstrom
           Maximum rank =  0   Radius =  0.325 angstrom
                   Q00  =   0.099251

H          x =  0.081057  y =  3.124038  z =  1.917463 angstrom
           Maximum rank =  0   Radius =  0.325 angstrom
                   Q00  =   0.219407

H          x =  2.352057  y =  1.398038  z =  2.093463 angstrom
           Maximum rank =  0   Radius =  0.325 angstrom
                   Q00  =   0.073124

H          x = -3.214293  y =  0.425728  z = -0.844157 angstrom
           Maximum rank =  0   Radius =  0.325 angstrom
                   Q00  =   0.101002

C          x =  0.366057  y = -1.144962  z = -2.997537 angstrom
           Maximum rank =  0   Radius =  0.650 angstrom
                   Q00  =  -0.087391

C          x =  1.671057  y = -0.541962  z = -2.552537 angstrom
           Maximum rank =  0   Radius =  0.650 angstrom
                   Q00  =  -0.212294

C          x =  0.718057  y = -2.048962  z = -4.125537 angstrom
           Maximum rank =  0   Radius =  0.650 angstrom
                   Q00  =  -0.197795

H          x = -0.295943  y = -0.355962  z = -3.357537 angstrom
           Maximum rank =  0   Radius =  0.325 angstrom
                   Q00  =   0.039907

H          x = -0.117943  y = -1.690962  z = -2.188537 angstrom
           Maximum rank =  0   Radius =  0.325 angstrom
                   Q00  =   0.049502

H          x =  1.509057  y =  0.443038  z = -2.113537 angstrom
           Maximum rank =  0   Radius =  0.325 angstrom
                   Q00  =   0.086373

H          x =  2.169057  y = -1.206962  z = -1.844537 angstrom
           Maximum rank =  0   Radius =  0.325 angstrom
                   Q00  =   0.080828

H          x = -0.137943  y = -2.228962  z = -4.778537 angstrom
           Maximum rank =  0   Radius =  0.325 angstrom
                   Q00  =   0.075506

H          x =  1.086057  y = -2.994962  z = -3.726537 angstrom
           Maximum rank =  0   Radius =  0.325 angstrom
                   Q00  =   0.070345

H          x =  2.247337  y = -0.493189  z = -3.488237 angstrom
           Maximum rank =  0   Radius =  0.325 angstrom
                   Q00  =   0.047295

H          x =  1.539307  y = -1.525037  z = -4.636467 angstrom
           Maximum rank =  0   Radius =  0.325 angstrom
                   Q00  =   0.047889

Total multipoles referred to origin at
           x =   0.000000,  y =    0.000000,  z =    0.000000 angstrom
                   Q00  =  -0.000000

Finished at 14:51:21 on 28 Apr 2020

  DMA results are available in the Python driver through the
	  variable('DMA DISTRIBUTED MULTIPOLES')
  and
	  variable('DMA TOTAL MULTIPOLES')
  commands.

    Psi4 stopped on: Tuesday, 28 April 2020 02:51PM
    Psi4 wall time for execution: 0:08:43.12

*** Psi4 exiting successfully. Buy a developer a beer!
