                               Psi4 1.3.2 release

  ==> Input File <==

--------------------------------------------------------------------------
import numpy as np
set {scf_type pk
basis cc-pvdz
d_convergence 10
gdma_switch   0
gdma_limit    0
gdma_origin   [ 0.0,  0.0,  0.0 ]
}
molecule test {
    units Angstrom
    0 1
    --
    0 1
    C               -1.769388948419671     0.285584728848346    -0.908699640290743
    C               -3.108388948419670    -0.464415271151654    -0.754699640290743
    C               -1.709388948419670     1.586584728848346    -0.127699640290743
    H               -0.969388948419670    -0.368415271151654    -0.567699640290743
    H               -1.575388948419671     0.513584728848346    -1.955699640290743
    H               -3.925388948419671     0.206584728848346    -1.029699640290743
    H               -1.686388948419671     1.396584728848346     0.943300359709257
    H               -0.797388948419670     2.120584728848346    -0.393699640290743
    H               -2.567388948419670     2.212584728848346    -0.376699640290743
    H               -3.124099948419670    -1.333495271151654    -1.428827640290743
    H               -3.257736948419670    -0.781875271151654     0.287853359709257
    C                1.661611051580330    -0.419415271151654     0.531300359709257
    C                2.490611051580329     0.588584728848346     1.326300359709257
    C                2.426611051580330    -1.589415271151654    -0.083699640290743
    H                0.877611051580330    -0.810415271151654     1.183300359709257
    H                1.182611051580329     0.121584728848346    -0.284699640290743
    H                3.311611051580330     0.943584728848346     0.702300359709257
    H                3.002611051580330    -2.101415271151654     0.677300359709257
    H                2.905401051580329     0.121854728848346     2.231903359709257
    H                1.877371051580330     1.469574728848346     1.566701359709257
    H                1.701611051580330    -2.303545271151655    -0.501301640290743
    H                3.143571051580330    -1.258625271151654    -0.849560640290743

}
e, wfn = energy('scf', return_wfn=True)
gdma(wfn)
dmavals = variable('DMA DISTRIBUTED MULTIPOLES')
charges = np.array(dmavals)
print(charges)
np.save('SSI-037ILE-125LEU-1-dimer.npy', np.array(charges))--------------------------------------------------------------------------

*** tstart() called on ds3
*** at Mon Apr 27 07:45:28 2020

   => Loading Basis Set <=

    Name: CC-PVDZ
    Role: ORBITAL
    Keyword: BASIS
    atoms 1-3, 12-14  entry C          line   138 file /theoryfs2/ds/metcalf/miniconda2/envs/tf2gpu/share/psi4/basis/cc-pvdz.gbs
    atoms 4-11, 15-22 entry H          line    22 file /theoryfs2/ds/metcalf/miniconda2/envs/tf2gpu/share/psi4/basis/cc-pvdz.gbs

         ---------------------------------------------------------
                                   SCF
               by Justin Turney, Rob Parrish, Andy Simmonett
                          and Daniel G. A. Smith
                              RHF Reference
                        1 Threads,    500 MiB Core
         ---------------------------------------------------------

  ==> Geometry <==

    Molecular point group: c1
    Full point group: C1

    Geometry (in Angstrom), charge = 0, multiplicity = 1:

       Center              X                  Y                   Z               Mass
    ------------   -----------------  -----------------  -----------------  -----------------
         C           -1.769388948420     0.285584728848    -0.908699640291    12.000000000000
         C           -3.108388948420    -0.464415271152    -0.754699640291    12.000000000000
         C           -1.709388948420     1.586584728848    -0.127699640291    12.000000000000
         H           -0.969388948420    -0.368415271152    -0.567699640291     1.007825032230
         H           -1.575388948420     0.513584728848    -1.955699640291     1.007825032230
         H           -3.925388948420     0.206584728848    -1.029699640291     1.007825032230
         H           -1.686388948420     1.396584728848     0.943300359709     1.007825032230
         H           -0.797388948420     2.120584728848    -0.393699640291     1.007825032230
         H           -2.567388948420     2.212584728848    -0.376699640291     1.007825032230
         H           -3.124099948420    -1.333495271152    -1.428827640291     1.007825032230
         H           -3.257736948420    -0.781875271152     0.287853359709     1.007825032230
         C            1.661611051580    -0.419415271152     0.531300359709    12.000000000000
         C            2.490611051580     0.588584728848     1.326300359709    12.000000000000
         C            2.426611051580    -1.589415271152    -0.083699640291    12.000000000000
         H            0.877611051580    -0.810415271152     1.183300359709     1.007825032230
         H            1.182611051580     0.121584728848    -0.284699640291     1.007825032230
         H            3.311611051580     0.943584728848     0.702300359709     1.007825032230
         H            3.002611051580    -2.101415271152     0.677300359709     1.007825032230
         H            2.905401051580     0.121854728848     2.231903359709     1.007825032230
         H            1.877371051580     1.469574728848     1.566701359709     1.007825032230
         H            1.701611051580    -2.303545271152    -0.501301640291     1.007825032230
         H            3.143571051580    -1.258625271152    -0.849560640291     1.007825032230

  Running in c1 symmetry.

  Rotational constants: A =      0.14392  B =      0.03216  C =      0.02774 [cm^-1]
  Rotational constants: A =   4314.47232  B =    964.08678  C =    831.50477 [MHz]
  Nuclear repulsion =  239.485100689316141

  Charge       = 0
  Multiplicity = 1
  Electrons    = 52
  Nalpha       = 26
  Nbeta        = 26

  ==> Algorithm <==

  SCF Algorithm Type is PK.
  DIIS enabled.
  MOM disabled.
  Fractional occupation disabled.
  Guess Type is SAD.
  Energy threshold   = 1.00e-06
  Density threshold  = 1.00e-10
  Integral threshold = 0.00e+00

  ==> Primary Basis <==

  Basis Set: CC-PVDZ
    Blend: CC-PVDZ
    Number of shells: 84
    Number of basis function: 164
    Number of Cartesian functions: 170
    Spherical Harmonics?: true
    Max angular momentum: 2

  ==> Pre-Iterations <==

   -------------------------------------------------------
    Irrep   Nso     Nmo     Nalpha   Nbeta   Ndocc  Nsocc
   -------------------------------------------------------
     A        164     164       0       0       0       0
   -------------------------------------------------------
    Total     164     164      26      26      26       0
   -------------------------------------------------------

  ==> Integral Setup <==

  Using integral reordering PK algorithm.
  Sizing the integral batches needed.
  Building batch lookup table.
   Calculation information:
      Number of atoms:                  22
      Number of AO shells:              84
      Number of primitives:            212
      Number of atomic orbitals:       170
      Number of basis functions:       164

      Integral cutoff                 1.00e-12
      Number of threads:                 1

	Batch   1 pq = [       0,    9405] index = [             0,44231715] size =     44231715
	Batch   2 pq = [    9405,   13530] index = [      44231715,91537215] size =     47305500
  Task number: 9
  Buffer size: 11059200
  Buffer per thread: 2
  We computed 5505224 shell quartets total.
  Whereas there are 6374235 unique shell quartets.

  ==> DiskJK: Disk-Based J/K Matrices <==

    J tasked:                  Yes
    K tasked:                  Yes
    wK tasked:                  No
    Memory [MiB]:              375
    Schwarz Cutoff:          1E-12

    OpenMP threads:              1

  Minimum eigenvalue in the overlap matrix is 5.2089147395E-03.
  Using Symmetric Orthogonalization.

  SCF Guess: Superposition of Atomic Densities via on-the-fly atomic UHF.

  ==> Iterations <==

                        Total Energy        Delta E     RMS |[F,P]|

   @RHF iter SAD:  -235.36419036602618   -2.35364e+02   0.00000e+00
   @RHF iter   1:  -236.31687761712593   -9.52687e-01   3.48557e-03 DIIS
   @RHF iter   2:  -236.50333751561732   -1.86460e-01   1.50868e-03 DIIS
   @RHF iter   3:  -236.53636461131168   -3.30271e-02   3.05040e-04 DIIS
   @RHF iter   4:  -236.53898602330173   -2.62141e-03   4.98163e-05 DIIS
   @RHF iter   5:  -236.53903856012886   -5.25368e-05   1.38709e-05 DIIS
   @RHF iter   6:  -236.53904289060887   -4.33048e-06   2.22909e-06 DIIS
   @RHF iter   7:  -236.53904301677545   -1.26167e-07   4.37887e-07 DIIS
   @RHF iter   8:  -236.53904302287086   -6.09541e-09   8.61236e-08 DIIS
   @RHF iter   9:  -236.53904302313327   -2.62418e-10   2.25592e-08 DIIS
   @RHF iter  10:  -236.53904302314962   -1.63425e-11   6.51593e-09 DIIS
   @RHF iter  11:  -236.53904302314950    1.13687e-13   1.43780e-09 DIIS
   @RHF iter  12:  -236.53904302315107   -1.56319e-12   3.19088e-10 DIIS
   @RHF iter  13:  -236.53904302315101    5.68434e-14   5.50839e-11 DIIS
  Energy and wave function converged.

  ==> Post-Iterations <==

    Orbital Energies [Eh]
    ---------------------

    Doubly Occupied:

       1A    -11.219704     2A    -11.218251     3A    -11.217915
       4A    -11.217438     5A    -11.217414     6A    -11.213846
       7A     -1.053866     8A     -1.050998     9A     -0.926830
      10A     -0.924341    11A     -0.799497    12A     -0.792913
      13A     -0.626770    14A     -0.624277    15A     -0.596082
      16A     -0.590237    17A     -0.553509    18A     -0.549406
      19A     -0.532800    20A     -0.532119    21A     -0.476732
      22A     -0.473489    23A     -0.471020    24A     -0.468157
      25A     -0.467347    26A     -0.456783

    Virtual:

      27A      0.165986    28A      0.194036    29A      0.204270
      30A      0.215451    31A      0.226519    32A      0.245861
      33A      0.246503    34A      0.258989    35A      0.265444
      36A      0.280386    37A      0.287345    38A      0.295727
      39A      0.299957    40A      0.312957    41A      0.314228
      42A      0.332423    43A      0.376849    44A      0.387893
      45A      0.424773    46A      0.434669    47A      0.568477
      48A      0.574249    49A      0.581851    50A      0.602229
      51A      0.610574    52A      0.620730    53A      0.624892
      54A      0.631164    55A      0.663390    56A      0.751147
      57A      0.776345    58A      0.789079    59A      0.798284
      60A      0.816691    61A      0.852015    62A      0.863105
      63A      0.877155    64A      0.887458    65A      0.891262
      66A      0.894785    67A      0.896225    68A      0.900806
      69A      0.902118    70A      0.903715    71A      0.909355
      72A      0.913331    73A      0.925192    74A      0.931461
      75A      0.943189    76A      0.950397    77A      0.958267
      78A      0.991288    79A      1.003482    80A      1.031013
      81A      1.118913    82A      1.124186    83A      1.125902
      84A      1.162250    85A      1.216032    86A      1.234137
      87A      1.373260    88A      1.387028    89A      1.468837
      90A      1.472240    91A      1.480284    92A      1.489065
      93A      1.509234    94A      1.558100    95A      1.617116
      96A      1.654218    97A      1.671820    98A      1.675541
      99A      1.687874   100A      1.689060   101A      1.698953
     102A      1.707775   103A      1.850322   104A      1.859021
     105A      1.864691   106A      1.880462   107A      1.887968
     108A      1.891206   109A      1.909363   110A      1.914376
     111A      1.926384   112A      1.931571   113A      1.938552
     114A      1.957382   115A      1.960713   116A      1.964221
     117A      1.973149   118A      1.974606   119A      1.985706
     120A      1.991027   121A      1.999004   122A      2.003027
     123A      2.018883   124A      2.045362   125A      2.059058
     126A      2.059937   127A      2.131823   128A      2.136441
     129A      2.158443   130A      2.160246   131A      2.280584
     132A      2.286091   133A      2.295233   134A      2.308452
     135A      2.332245   136A      2.340314   137A      2.350383
     138A      2.360110   139A      2.476908   140A      2.504057
     141A      2.519959   142A      2.538042   143A      2.584186
     144A      2.600105   145A      2.607105   146A      2.620094
     147A      2.631417   148A      2.634187   149A      2.749809
     150A      2.753089   151A      2.756252   152A      2.771314
     153A      2.781012   154A      2.795617   155A      2.807499
     156A      2.822112   157A      2.919160   158A      2.927959
     159A      2.952879   160A      2.963195   161A      2.978430
     162A      2.982160   163A      3.058346   164A      3.089080

    Final Occupation by Irrep:
              A
    DOCC [    26 ]

  @RHF Final Energy:  -236.53904302315101

   => Energetics <=

    Nuclear Repulsion Energy =            239.4851006893161411
    One-Electron Energy =                -791.5048095090847937
    Two-Electron Energy =                 315.4806657966176431
    Total Energy =                       -236.5390430231510095

Computation Completed

Properties will be evaluated at   0.000000,   0.000000,   0.000000 [a0]

Properties computed using the SCF density matrix

  Nuclear Dipole Moment: [e a0]
     X:     0.0930      Y:     0.1394      Z:     0.1920

  Electronic Dipole Moment: [e a0]
     X:    -0.0718      Y:    -0.1416      Z:    -0.2140

  Dipole Moment: [e a0]
     X:     0.0212      Y:    -0.0021      Z:    -0.0221     Total:     0.0307

  Dipole Moment: [D]
     X:     0.0538      Y:    -0.0054      Z:    -0.0561     Total:     0.0779

*** tstop() called on ds3 at Mon Apr 27 07:46:34 2020
Module time:
	user time   =      30.16 seconds =       0.50 minutes
	system time =      11.30 seconds =       0.19 minutes
	total time  =         66 seconds =       1.10 minutes
Total time:
	user time   =      30.16 seconds =       0.50 minutes
	system time =      11.30 seconds =       0.19 minutes
	total time  =         66 seconds =       1.10 minutes
                                     G D M A

                                 by Anthony Stone

                           version 2.2.06, 22 June 2011

               Distributed Multipoles from Gaussian wavefunctions

Starting at 7:46:34 on 27 Apr 2020

Using SCF density matrix from file ./SSI/SSI-037ILE-125LEU-1-dimer.test.32591.fchk

                         Distributed Multipole Analysis

Standard DMA

Positions and radii in angstrom
Multipole moments in atomic units, ea_0^k for rank k

C          x = -1.769389  y =  0.285585  z = -0.908700 angstrom
           Maximum rank =  0   Radius =  0.650 angstrom
                   Q00  =  -0.073001

C          x = -3.108389  y = -0.464415  z = -0.754700 angstrom
           Maximum rank =  0   Radius =  0.650 angstrom
                   Q00  =  -0.256558

C          x = -1.709389  y =  1.586585  z = -0.127700 angstrom
           Maximum rank =  0   Radius =  0.650 angstrom
                   Q00  =  -0.242865

H          x = -0.969389  y = -0.368415  z = -0.567700 angstrom
           Maximum rank =  0   Radius =  0.325 angstrom
                   Q00  =   0.050109

H          x = -1.575389  y =  0.513585  z = -1.955700 angstrom
           Maximum rank =  0   Radius =  0.325 angstrom
                   Q00  =   0.045867

H          x = -3.925389  y =  0.206585  z = -1.029700 angstrom
           Maximum rank =  0   Radius =  0.325 angstrom
                   Q00  =   0.075666

H          x = -1.686389  y =  1.396585  z =  0.943300 angstrom
           Maximum rank =  0   Radius =  0.325 angstrom
                   Q00  =   0.077650

H          x = -0.797389  y =  2.120585  z = -0.393700 angstrom
           Maximum rank =  0   Radius =  0.325 angstrom
                   Q00  =   0.081042

H          x = -2.567389  y =  2.212585  z = -0.376700 angstrom
           Maximum rank =  0   Radius =  0.325 angstrom
                   Q00  =   0.076647

H          x = -3.124100  y = -1.333495  z = -1.428828 angstrom
           Maximum rank =  0   Radius =  0.325 angstrom
                   Q00  =   0.085234

H          x = -3.257737  y = -0.781875  z =  0.287853 angstrom
           Maximum rank =  0   Radius =  0.325 angstrom
                   Q00  =   0.078202

C          x =  1.661611  y = -0.419415  z =  0.531300 angstrom
           Maximum rank =  0   Radius =  0.650 angstrom
                   Q00  =  -0.064178

C          x =  2.490611  y =  0.588585  z =  1.326300 angstrom
           Maximum rank =  0   Radius =  0.650 angstrom
                   Q00  =  -0.242922

C          x =  2.426611  y = -1.589415  z = -0.083700 angstrom
           Maximum rank =  0   Radius =  0.650 angstrom
                   Q00  =  -0.252816

H          x =  0.877611  y = -0.810415  z =  1.183300 angstrom
           Maximum rank =  0   Radius =  0.325 angstrom
                   Q00  =   0.042328

H          x =  1.182611  y =  0.121585  z = -0.284700 angstrom
           Maximum rank =  0   Radius =  0.325 angstrom
                   Q00  =   0.043085

H          x =  3.311611  y =  0.943585  z =  0.702300 angstrom
           Maximum rank =  0   Radius =  0.325 angstrom
                   Q00  =   0.074908

H          x =  3.002611  y = -2.101415  z =  0.677300 angstrom
           Maximum rank =  0   Radius =  0.325 angstrom
                   Q00  =   0.075700

H          x =  2.905401  y =  0.121855  z =  2.231903 angstrom
           Maximum rank =  0   Radius =  0.325 angstrom
                   Q00  =   0.078411

H          x =  1.877371  y =  1.469575  z =  1.566701 angstrom
           Maximum rank =  0   Radius =  0.325 angstrom
                   Q00  =   0.085237

H          x =  1.701611  y = -2.303545  z = -0.501302 angstrom
           Maximum rank =  0   Radius =  0.325 angstrom
                   Q00  =   0.083924

H          x =  3.143571  y = -1.258625  z = -0.849561 angstrom
           Maximum rank =  0   Radius =  0.325 angstrom
                   Q00  =   0.078332

Total multipoles referred to origin at
           x =   0.000000,  y =    0.000000,  z =    0.000000 angstrom
                   Q00  =  -0.000000

Finished at 7:46:34 on 27 Apr 2020

  DMA results are available in the Python driver through the
	  variable('DMA DISTRIBUTED MULTIPOLES')
  and
	  variable('DMA TOTAL MULTIPOLES')
  commands.

    Psi4 stopped on: Monday, 27 April 2020 07:46AM
    Psi4 wall time for execution: 0:01:06.38

*** Psi4 exiting successfully. Buy a developer a beer!
