                               Psi4 1.3.2 release

  ==> Input File <==

--------------------------------------------------------------------------
import numpy as np
set {scf_type pk
basis cc-pvdz
d_convergence 10
gdma_switch   0
gdma_limit    0
gdma_origin   [ 0.0,  0.0,  0.0 ]
}
molecule test {
    units Angstrom
    0 1
    --
    0 1
    C                0.479320434928401    -2.772628634241159    -1.248503911330245
    C               -0.740679565071599    -3.492628634241159    -0.693503911330245
    C                1.578320434928401    -3.826628634241159    -1.190503911330245
    H                0.725320434928401    -1.884628634241159    -0.664503911330245
    H                0.291320434928401    -2.499628634241159    -2.286503911330245
    H               -0.691679565071599    -3.551628634241159     0.394496088669755
    H               -1.665679565071599    -3.007628634241159    -1.006503911330245
    H                2.245320434928401    -3.725628634241159    -2.048503911330245
    H               -0.637579565071599    -4.492188634241160    -1.141001911330245
    H                1.025950434928401    -4.777638634241160    -1.212357911330245
    H                2.149400434928401    -3.723128634241160    -0.256075911330245
    C                0.363320434928401     2.780371365758841    -1.565503911330245
    C               -0.793679565071599     0.106371365758841     0.832496088669755
    C               -0.639679565071599     0.731371365758841     2.063496088669755
    C               -0.472679565071599     0.765371365758841    -0.342503911330245
    C                0.002320434928401     2.071371365758841    -0.297503911330245
    C               -0.161679565071599     2.029371365758840     2.121496088669755
    C                0.158320434928401     2.701371365758841     0.937496088669755
    H               -1.182679565071599    -0.901628634241159     0.797496088669755
    H               -0.904679565071599     0.212371365758841     2.972496088669755
    H               -0.599679565071599     0.263371365758841    -1.290503911330245
    H               -0.046679565071599     2.517371365758841     3.075496088669755
    H                0.681320434928401     2.036371365758840    -2.295503911330245
    H                1.232320434928401     3.405371365758841    -1.373503911330245
    H                0.524320434928401     3.716371365758841     0.982496088669755
    H               -0.446199565071599     3.389838365758841    -1.993564911330245

}
e, wfn = energy('scf', return_wfn=True)
gdma(wfn)
dmavals = variable('DMA DISTRIBUTED MULTIPOLES')
charges = np.array(dmavals)
print(charges)
np.save('SSI-084PRO-135PHE-1-dimer.npy', np.array(charges))--------------------------------------------------------------------------

*** tstart() called on ds3
*** at Mon Apr 27 18:05:42 2020

   => Loading Basis Set <=

    Name: CC-PVDZ
    Role: ORBITAL
    Keyword: BASIS
    atoms 1-3, 12-18  entry C          line   138 file /theoryfs2/ds/metcalf/miniconda2/envs/tf2gpu/share/psi4/basis/cc-pvdz.gbs
    atoms 4-11, 19-26 entry H          line    22 file /theoryfs2/ds/metcalf/miniconda2/envs/tf2gpu/share/psi4/basis/cc-pvdz.gbs

         ---------------------------------------------------------
                                   SCF
               by Justin Turney, Rob Parrish, Andy Simmonett
                          and Daniel G. A. Smith
                              RHF Reference
                        1 Threads,    500 MiB Core
         ---------------------------------------------------------

  ==> Geometry <==

    Molecular point group: c1
    Full point group: C1

    Geometry (in Angstrom), charge = 0, multiplicity = 1:

       Center              X                  Y                   Z               Mass
    ------------   -----------------  -----------------  -----------------  -----------------
         C            0.479320434928    -2.772628634241    -1.248503911330    12.000000000000
         C           -0.740679565072    -3.492628634241    -0.693503911330    12.000000000000
         C            1.578320434928    -3.826628634241    -1.190503911330    12.000000000000
         H            0.725320434928    -1.884628634241    -0.664503911330     1.007825032230
         H            0.291320434928    -2.499628634241    -2.286503911330     1.007825032230
         H           -0.691679565072    -3.551628634241     0.394496088670     1.007825032230
         H           -1.665679565072    -3.007628634241    -1.006503911330     1.007825032230
         H            2.245320434928    -3.725628634241    -2.048503911330     1.007825032230
         H           -0.637579565072    -4.492188634241    -1.141001911330     1.007825032230
         H            1.025950434928    -4.777638634241    -1.212357911330     1.007825032230
         H            2.149400434928    -3.723128634241    -0.256075911330     1.007825032230
         C            0.363320434928     2.780371365759    -1.565503911330    12.000000000000
         C           -0.793679565072     0.106371365759     0.832496088670    12.000000000000
         C           -0.639679565072     0.731371365759     2.063496088670    12.000000000000
         C           -0.472679565072     0.765371365759    -0.342503911330    12.000000000000
         C            0.002320434928     2.071371365759    -0.297503911330    12.000000000000
         C           -0.161679565072     2.029371365759     2.121496088670    12.000000000000
         C            0.158320434928     2.701371365759     0.937496088670    12.000000000000
         H           -1.182679565072    -0.901628634241     0.797496088670     1.007825032230
         H           -0.904679565072     0.212371365759     2.972496088670     1.007825032230
         H           -0.599679565072     0.263371365759    -1.290503911330     1.007825032230
         H           -0.046679565072     2.517371365759     3.075496088670     1.007825032230
         H            0.681320434928     2.036371365759    -2.295503911330     1.007825032230
         H            1.232320434928     3.405371365759    -1.373503911330     1.007825032230
         H            0.524320434928     3.716371365759     0.982496088670     1.007825032230
         H           -0.446199565072     3.389838365759    -1.993564911330     1.007825032230

  Running in c1 symmetry.

  Rotational constants: A =      0.06439  B =      0.01730  C =      0.01495 [cm^-1]
  Rotational constants: A =   1930.22726  B =    518.54525  C =    448.29177 [MHz]
  Nuclear repulsion =  482.553392772122834

  Charge       = 0
  Multiplicity = 1
  Electrons    = 76
  Nalpha       = 38
  Nbeta        = 38

  ==> Algorithm <==

  SCF Algorithm Type is PK.
  DIIS enabled.
  MOM disabled.
  Fractional occupation disabled.
  Guess Type is SAD.
  Energy threshold   = 1.00e-06
  Density threshold  = 1.00e-10
  Integral threshold = 0.00e+00

  ==> Primary Basis <==

  Basis Set: CC-PVDZ
    Blend: CC-PVDZ
    Number of shells: 108
    Number of basis function: 220
    Number of Cartesian functions: 230
    Spherical Harmonics?: true
    Max angular momentum: 2

  ==> Pre-Iterations <==

   -------------------------------------------------------
    Irrep   Nso     Nmo     Nalpha   Nbeta   Ndocc  Nsocc
   -------------------------------------------------------
     A        220     220       0       0       0       0
   -------------------------------------------------------
    Total     220     220      38      38      38       0
   -------------------------------------------------------

  ==> Integral Setup <==

  Using integral reordering PK algorithm.
  Sizing the integral batches needed.
  Building batch lookup table.
   Calculation information:
      Number of atoms:                  26
      Number of AO shells:             108
      Number of primitives:            300
      Number of atomic orbitals:       230
      Number of basis functions:       220

      Integral cutoff                 1.00e-12
      Number of threads:                 1

	Batch   1 pq = [       0,    9405] index = [             0,44231715] size =     44231715
	Batch   2 pq = [    9405,   13301] index = [      44231715,88464951] size =     44233236
	Batch   3 pq = [   13301,   16290] index = [      88464951,132690195] size =     44225244
	Batch   4 pq = [   16290,   18810] index = [     132690195,176917455] size =     44227260
	Batch   5 pq = [   18810,   21030] index = [     176917455,221140965] size =     44223510
	Batch   6 pq = [   21030,   23037] index = [     221140965,265363203] size =     44222238
	Batch   7 pq = [   23037,   24310] index = [     265363203,295500205] size =     30137002
  Task number: 27
  Buffer size: 11059200
  Buffer per thread: 2
  We computed 14606628 shell quartets total.
  Whereas there are 17325441 unique shell quartets.

  ==> DiskJK: Disk-Based J/K Matrices <==

    J tasked:                  Yes
    K tasked:                  Yes
    wK tasked:                  No
    Memory [MiB]:              375
    Schwarz Cutoff:          1E-12

    OpenMP threads:              1

  Minimum eigenvalue in the overlap matrix is 3.0204285739E-04.
  Using Symmetric Orthogonalization.

  SCF Guess: Superposition of Atomic Densities via on-the-fly atomic UHF.

  ==> Iterations <==

                        Total Energy        Delta E     RMS |[F,P]|

   @RHF iter SAD:  -387.05924017104383   -3.87059e+02   0.00000e+00
   @RHF iter   1:  -387.75004488056402   -6.90805e-01   2.78198e-03 DIIS
   @RHF iter   2:  -387.97150258384528   -2.21458e-01   1.17676e-03 DIIS
   @RHF iter   3:  -388.00776574150774   -3.62632e-02   2.52243e-04 DIIS
   @RHF iter   4:  -388.01066036623212   -2.89462e-03   5.07335e-05 DIIS
   @RHF iter   5:  -388.01074596911735   -8.56029e-05   1.58474e-05 DIIS
   @RHF iter   6:  -388.01075392819439   -7.95908e-06   4.77583e-06 DIIS
   @RHF iter   7:  -388.01075472322378   -7.95029e-07   1.17930e-06 DIIS
   @RHF iter   8:  -388.01075477564990   -5.24261e-08   2.42592e-07 DIIS
   @RHF iter   9:  -388.01075477894688   -3.29698e-09   7.64233e-08 DIIS
   @RHF iter  10:  -388.01075477923268   -2.85809e-10   2.93916e-08 DIIS
   @RHF iter  11:  -388.01075477927930   -4.66116e-11   8.77880e-09 DIIS
   @RHF iter  12:  -388.01075477928634   -7.04858e-12   4.02326e-09 DIIS
   @RHF iter  13:  -388.01075477928930   -2.95586e-12   1.96929e-09 DIIS
   @RHF iter  14:  -388.01075477928879    5.11591e-13   7.80249e-10 DIIS
   @RHF iter  15:  -388.01075477929265   -3.86535e-12   3.03260e-10 DIIS
   @RHF iter  16:  -388.01075477929066    1.98952e-12   7.34045e-11 DIIS
  Energy and wave function converged.

  ==> Post-Iterations <==

    Orbital Energies [Eh]
    ---------------------

    Doubly Occupied:

       1A    -11.239246     2A    -11.235000     3A    -11.233177
       4A    -11.230684     5A    -11.229335     6A    -11.228599
       7A    -11.227554     8A    -11.215185     9A    -11.214260
      10A    -11.212888    11A     -1.154098    12A     -1.065335
      13A     -1.046342    14A     -1.012022    15A     -0.931576
      16A     -0.913592    17A     -0.825956    18A     -0.799419
      19A     -0.793714    20A     -0.691912    21A     -0.637911
      22A     -0.631973    23A     -0.629333    24A     -0.612936
      25A     -0.582554    26A     -0.579215    27A     -0.562927
      28A     -0.541495    29A     -0.532831    30A     -0.511996
      31A     -0.490299    32A     -0.484493    33A     -0.481715
      34A     -0.478637    35A     -0.468731    36A     -0.458891
      37A     -0.331895    38A     -0.322426

    Virtual:

      39A      0.135795    40A      0.140071    41A      0.173493
      42A      0.193700    43A      0.201678    44A      0.212532
      45A      0.223504    46A      0.233765    47A      0.244091
      48A      0.256130    49A      0.259120    50A      0.276473
      51A      0.279875    52A      0.282125    53A      0.297654
      54A      0.307527    55A      0.322705    56A      0.335230
      57A      0.366297    58A      0.371400    59A      0.390327
      60A      0.428809    61A      0.459178    62A      0.464450
      63A      0.481665    64A      0.494512    65A      0.560187
      66A      0.573994    67A      0.591590    68A      0.613555
      69A      0.635467    70A      0.641767    71A      0.666978
      72A      0.677631    73A      0.687456    74A      0.696845
      75A      0.711443    76A      0.718049    77A      0.739318
      78A      0.741359    79A      0.746689    80A      0.762559
      81A      0.774284    82A      0.776864    83A      0.781109
      84A      0.806055    85A      0.812393    86A      0.839583
      87A      0.850806    88A      0.860726    89A      0.862160
      90A      0.874511    91A      0.878735    92A      0.883622
      93A      0.891222    94A      0.902057    95A      0.902984
      96A      0.904795    97A      0.913467    98A      0.919898
      99A      0.927280   100A      0.934459   101A      0.943311
     102A      0.944207   103A      0.961666   104A      0.976720
     105A      0.997968   106A      1.009269   107A      1.049420
     108A      1.062097   109A      1.088709   110A      1.125935
     111A      1.131630   112A      1.150914   113A      1.158693
     114A      1.167995   115A      1.186706   116A      1.212442
     117A      1.245712   118A      1.251057   119A      1.255326
     120A      1.278133   121A      1.305752   122A      1.317779
     123A      1.323203   124A      1.330725   125A      1.403393
     126A      1.430428   127A      1.464607   128A      1.486152
     129A      1.514885   130A      1.529055   131A      1.557016
     132A      1.607007   133A      1.610854   134A      1.631666
     135A      1.633197   136A      1.683113   137A      1.705685
     138A      1.728584   139A      1.735148   140A      1.737864
     141A      1.753189   142A      1.765571   143A      1.787840
     144A      1.809773   145A      1.812953   146A      1.862383
     147A      1.865748   148A      1.876765   149A      1.896463
     150A      1.898472   151A      1.905282   152A      1.907665
     153A      1.916463   154A      1.919995   155A      1.930330
     156A      1.944508   157A      1.947385   158A      1.950160
     159A      1.958341   160A      1.978921   161A      1.987917
     162A      1.994707   163A      2.016440   164A      2.020431
     165A      2.032011   166A      2.045445   167A      2.046952
     168A      2.069556   169A      2.076499   170A      2.097093
     171A      2.115059   172A      2.147096   173A      2.155345
     174A      2.162263   175A      2.177036   176A      2.181737
     177A      2.200988   178A      2.214508   179A      2.230474
     180A      2.270437   181A      2.285966   182A      2.301324
     183A      2.306272   184A      2.309923   185A      2.314282
     186A      2.333453   187A      2.338388   188A      2.432832
     189A      2.460605   190A      2.477823   191A      2.483772
     192A      2.502475   193A      2.522461   194A      2.545809
     195A      2.550679   196A      2.626062   197A      2.640177
     198A      2.693923   199A      2.748805   200A      2.761424
     201A      2.762557   202A      2.771617   203A      2.776351
     204A      2.792322   205A      2.801996   206A      2.824733
     207A      2.844543   208A      2.855809   209A      2.858366
     210A      2.879695   211A      2.918844   212A      2.945551
     213A      2.988022   214A      3.017620   215A      3.025210
     216A      3.066421   217A      3.160587   218A      3.210408
     219A      3.307683   220A      3.981823

    Final Occupation by Irrep:
              A
    DOCC [    38 ]

  @RHF Final Energy:  -388.01075477929066

   => Energetics <=

    Nuclear Repulsion Energy =            482.5533927721228338
    One-Electron Energy =               -1479.4479852179320005
    Two-Electron Energy =                 608.8838376665185024
    Total Energy =                       -388.0107547792906644

Computation Completed

Properties will be evaluated at   0.000000,   0.000000,   0.000000 [a0]

Properties computed using the SCF density matrix

  Nuclear Dipole Moment: [e a0]
     X:     2.5316      Y:   -12.2083      Z:    -6.8867

  Electronic Dipole Moment: [e a0]
     X:    -2.4918      Y:    12.3304      Z:     6.7883

  Dipole Moment: [e a0]
     X:     0.0398      Y:     0.1221      Z:    -0.0984     Total:     0.1618

  Dipole Moment: [D]
     X:     0.1012      Y:     0.3103      Z:    -0.2500     Total:     0.4111

*** tstop() called on ds3 at Mon Apr 27 18:09:31 2020
Module time:
	user time   =     101.44 seconds =       1.69 minutes
	system time =      39.69 seconds =       0.66 minutes
	total time  =        229 seconds =       3.82 minutes
Total time:
	user time   =     101.44 seconds =       1.69 minutes
	system time =      39.69 seconds =       0.66 minutes
	total time  =        229 seconds =       3.82 minutes
                                     G D M A

                                 by Anthony Stone

                           version 2.2.06, 22 June 2011

               Distributed Multipoles from Gaussian wavefunctions

Starting at 18:9:31 on 27 Apr 2020

Using SCF density matrix from file ./SSI/SSI-084PRO-135PHE-1-dimer.test.18831.fchk

                         Distributed Multipole Analysis

Standard DMA

Positions and radii in angstrom
Multipole moments in atomic units, ea_0^k for rank k

C          x =  0.479320  y = -2.772629  z = -1.248504 angstrom
           Maximum rank =  0   Radius =  0.650 angstrom
                   Q00  =  -0.095402

C          x = -0.740680  y = -3.492629  z = -0.693504 angstrom
           Maximum rank =  0   Radius =  0.650 angstrom
                   Q00  =  -0.232140

C          x =  1.578320  y = -3.826629  z = -1.190504 angstrom
           Maximum rank =  0   Radius =  0.650 angstrom
                   Q00  =  -0.238592

H          x =  0.725320  y = -1.884629  z = -0.664504 angstrom
           Maximum rank =  0   Radius =  0.325 angstrom
                   Q00  =   0.067241

H          x =  0.291320  y = -2.499629  z = -2.286504 angstrom
           Maximum rank =  0   Radius =  0.325 angstrom
                   Q00  =   0.051217

H          x = -0.691680  y = -3.551629  z =  0.394496 angstrom
           Maximum rank =  0   Radius =  0.325 angstrom
                   Q00  =   0.077688

H          x = -1.665680  y = -3.007629  z = -1.006504 angstrom
           Maximum rank =  0   Radius =  0.325 angstrom
                   Q00  =   0.078312

H          x =  2.245320  y = -3.725629  z = -2.048504 angstrom
           Maximum rank =  0   Radius =  0.325 angstrom
                   Q00  =   0.086668

H          x = -0.637580  y = -4.492189  z = -1.141002 angstrom
           Maximum rank =  0   Radius =  0.325 angstrom
                   Q00  =   0.052541

H          x =  1.025950  y = -4.777639  z = -1.212358 angstrom
           Maximum rank =  0   Radius =  0.325 angstrom
                   Q00  =   0.065691

H          x =  2.149400  y = -3.723129  z = -0.256076 angstrom
           Maximum rank =  0   Radius =  0.325 angstrom
                   Q00  =   0.086564

C          x =  0.363320  y =  2.780371  z = -1.565504 angstrom
           Maximum rank =  0   Radius =  0.650 angstrom
                   Q00  =  -0.198151

C          x = -0.793680  y =  0.106371  z =  0.832496 angstrom
           Maximum rank =  0   Radius =  0.650 angstrom
                   Q00  =   0.015657

C          x = -0.639680  y =  0.731371  z =  2.063496 angstrom
           Maximum rank =  0   Radius =  0.650 angstrom
                   Q00  =  -0.078030

C          x = -0.472680  y =  0.765371  z = -0.342504 angstrom
           Maximum rank =  0   Radius =  0.650 angstrom
                   Q00  =  -0.089098

C          x =  0.002320  y =  2.071371  z = -0.297504 angstrom
           Maximum rank =  0   Radius =  0.650 angstrom
                   Q00  =  -0.102338

C          x = -0.161680  y =  2.029371  z =  2.121496 angstrom
           Maximum rank =  0   Radius =  0.650 angstrom
                   Q00  =  -0.076109

C          x =  0.158320  y =  2.701371  z =  0.937496 angstrom
           Maximum rank =  0   Radius =  0.650 angstrom
                   Q00  =  -0.074428

H          x = -1.182680  y = -0.901629  z =  0.797496 angstrom
           Maximum rank =  0   Radius =  0.325 angstrom
                   Q00  =   0.064117

H          x = -0.904680  y =  0.212371  z =  2.972496 angstrom
           Maximum rank =  0   Radius =  0.325 angstrom
                   Q00  =   0.059036

H          x = -0.599680  y =  0.263371  z = -1.290504 angstrom
           Maximum rank =  0   Radius =  0.325 angstrom
                   Q00  =   0.058168

H          x = -0.046680  y =  2.517371  z =  3.075496 angstrom
           Maximum rank =  0   Radius =  0.325 angstrom
                   Q00  =   0.065020

H          x =  0.681320  y =  2.036371  z = -2.295504 angstrom
           Maximum rank =  0   Radius =  0.325 angstrom
                   Q00  =   0.095932

H          x =  1.232320  y =  3.405371  z = -1.373504 angstrom
           Maximum rank =  0   Radius =  0.325 angstrom
                   Q00  =   0.097783

H          x =  0.524320  y =  3.716371  z =  0.982496 angstrom
           Maximum rank =  0   Radius =  0.325 angstrom
                   Q00  =   0.057089

H          x = -0.446200  y =  3.389838  z = -1.993565 angstrom
           Maximum rank =  0   Radius =  0.325 angstrom
                   Q00  =   0.105565

Total multipoles referred to origin at
           x =   0.000000,  y =    0.000000,  z =    0.000000 angstrom
                   Q00  =  -0.000000

Finished at 18:9:31 on 27 Apr 2020

  DMA results are available in the Python driver through the
	  variable('DMA DISTRIBUTED MULTIPOLES')
  and
	  variable('DMA TOTAL MULTIPOLES')
  commands.

    Psi4 stopped on: Monday, 27 April 2020 06:09PM
    Psi4 wall time for execution: 0:03:49.75

*** Psi4 exiting successfully. Buy a developer a beer!
