                               Psi4 1.3.2 release

  ==> Input File <==

--------------------------------------------------------------------------
import numpy as np
set {scf_type pk
basis cc-pvdz
d_convergence 10
gdma_switch   0
gdma_limit    0
gdma_origin   [ 0.0,  0.0,  0.0 ]
}
molecule test {
    units Angstrom
    0 1
    --
    0 1
    C                0.797158512212817    -0.054127042531593    -1.622411903428934
    C                0.764158512212817    -1.113127042531593    -2.725411903428934
    C                1.697158512212817     1.152872957468407    -1.910411903428934
    H               -0.216841487787182     0.315872957468407    -1.473411903428934
    H                1.133158512212817    -0.506127042531593    -0.691411903428934
    H                1.766158512212818    -1.500127042531593    -2.906411903428934
    H                0.432158512212817    -0.642127042531593    -3.648411903428934
    H                1.380158512212817     1.609872957468407    -2.852411903428934
    H                1.559158512212818     1.888872957468407    -1.110411903428934
    H                0.077988512212818    -1.938247042531593    -2.483861903428934
    H                2.758288512212817     0.868862957468407    -1.968251903428934
    C               -2.195841487787182     0.403872957468407     1.490588096571066
    C               -0.773841487787182    -0.073127042531593     1.556588096571066
    O               -0.473841487787182    -1.239127042531593     1.370588096571066
    N                0.136158512212817     0.852872957468407     1.814588096571066
    H               -2.252841487787182     1.461872957468407     1.756588096571066
    H               -2.767841487787182    -0.145127042531593     2.236588096571066
    H                1.096158512212818     0.558872957468407     1.922588096571066
    H               -0.134841487787182     1.808872957468407     1.993588096571066
    H               -2.641091487787183     0.267482957468407     0.494018096571066

}
e, wfn = energy('scf', return_wfn=True)
gdma(wfn)
dmavals = variable('DMA DISTRIBUTED MULTIPOLES')
charges = np.array(dmavals)
print(charges)
np.save('SSI-041LYS-045GLN-1-dimer.npy', np.array(charges))--------------------------------------------------------------------------

*** tstart() called on ds3
*** at Mon Apr 27 22:54:00 2020

   => Loading Basis Set <=

    Name: CC-PVDZ
    Role: ORBITAL
    Keyword: BASIS
    atoms 1-3, 12-13  entry C          line   138 file /theoryfs2/ds/metcalf/miniconda2/envs/tf2gpu/share/psi4/basis/cc-pvdz.gbs
    atoms 4-11, 16-20 entry H          line    22 file /theoryfs2/ds/metcalf/miniconda2/envs/tf2gpu/share/psi4/basis/cc-pvdz.gbs
    atoms 14          entry O          line   198 file /theoryfs2/ds/metcalf/miniconda2/envs/tf2gpu/share/psi4/basis/cc-pvdz.gbs
    atoms 15          entry N          line   168 file /theoryfs2/ds/metcalf/miniconda2/envs/tf2gpu/share/psi4/basis/cc-pvdz.gbs

         ---------------------------------------------------------
                                   SCF
               by Justin Turney, Rob Parrish, Andy Simmonett
                          and Daniel G. A. Smith
                              RHF Reference
                        1 Threads,    500 MiB Core
         ---------------------------------------------------------

  ==> Geometry <==

    Molecular point group: c1
    Full point group: C1

    Geometry (in Angstrom), charge = 0, multiplicity = 1:

       Center              X                  Y                   Z               Mass
    ------------   -----------------  -----------------  -----------------  -----------------
         C            0.797158512213    -0.054127042532    -1.622411903429    12.000000000000
         C            0.764158512213    -1.113127042532    -2.725411903429    12.000000000000
         C            1.697158512213     1.152872957468    -1.910411903429    12.000000000000
         H           -0.216841487787     0.315872957468    -1.473411903429     1.007825032230
         H            1.133158512213    -0.506127042532    -0.691411903429     1.007825032230
         H            1.766158512213    -1.500127042532    -2.906411903429     1.007825032230
         H            0.432158512213    -0.642127042532    -3.648411903429     1.007825032230
         H            1.380158512213     1.609872957468    -2.852411903429     1.007825032230
         H            1.559158512213     1.888872957468    -1.110411903429     1.007825032230
         H            0.077988512213    -1.938247042532    -2.483861903429     1.007825032230
         H            2.758288512213     0.868862957468    -1.968251903429     1.007825032230
         C           -2.195841487787     0.403872957468     1.490588096571    12.000000000000
         C           -0.773841487787    -0.073127042532     1.556588096571    12.000000000000
         O           -0.473841487787    -1.239127042532     1.370588096571    15.994914619570
         N            0.136158512213     0.852872957468     1.814588096571    14.003074004430
         H           -2.252841487787     1.461872957468     1.756588096571     1.007825032230
         H           -2.767841487787    -0.145127042532     2.236588096571     1.007825032230
         H            1.096158512213     0.558872957468     1.922588096571     1.007825032230
         H           -0.134841487787     1.808872957468     1.993588096571     1.007825032230
         H           -2.641091487787     0.267482957468     0.494018096571     1.007825032230

  Running in c1 symmetry.

  Rotational constants: A =      0.11454  B =      0.03374  C =      0.03048 [cm^-1]
  Rotational constants: A =   3433.89140  B =   1011.62287  C =    913.85192 [MHz]
  Nuclear repulsion =  306.055150251898851

  Charge       = 0
  Multiplicity = 1
  Electrons    = 58
  Nalpha       = 29
  Nbeta        = 29

  ==> Algorithm <==

  SCF Algorithm Type is PK.
  DIIS enabled.
  MOM disabled.
  Fractional occupation disabled.
  Guess Type is SAD.
  Energy threshold   = 1.00e-06
  Density threshold  = 1.00e-10
  Integral threshold = 0.00e+00

  ==> Primary Basis <==

  Basis Set: CC-PVDZ
    Blend: CC-PVDZ
    Number of shells: 81
    Number of basis function: 163
    Number of Cartesian functions: 170
    Spherical Harmonics?: true
    Max angular momentum: 2

  ==> Pre-Iterations <==

   -------------------------------------------------------
    Irrep   Nso     Nmo     Nalpha   Nbeta   Ndocc  Nsocc
   -------------------------------------------------------
     A        163     163       0       0       0       0
   -------------------------------------------------------
    Total     163     163      29      29      29       0
   -------------------------------------------------------

  ==> Integral Setup <==

  Using integral reordering PK algorithm.
  Sizing the integral batches needed.
  Building batch lookup table.
   Calculation information:
      Number of atoms:                  20
      Number of AO shells:              81
      Number of primitives:            219
      Number of atomic orbitals:       170
      Number of basis functions:       163

      Integral cutoff                 1.00e-12
      Number of threads:                 1

	Batch   1 pq = [       0,    9405] index = [             0,44231715] size =     44231715
	Batch   2 pq = [    9405,   13366] index = [      44231715,89331661] size =     45099946
  Task number: 9
  Buffer size: 11059200
  Buffer per thread: 2
  We computed 5012718 shell quartets total.
  Whereas there are 5516181 unique shell quartets.

  ==> DiskJK: Disk-Based J/K Matrices <==

    J tasked:                  Yes
    K tasked:                  Yes
    wK tasked:                  No
    Memory [MiB]:              375
    Schwarz Cutoff:          1E-12

    OpenMP threads:              1

  Minimum eigenvalue in the overlap matrix is 4.1453690532E-03.
  Using Symmetric Orthogonalization.

  SCF Guess: Superposition of Atomic Densities via on-the-fly atomic UHF.

  ==> Iterations <==

                        Total Energy        Delta E     RMS |[F,P]|

   @RHF iter SAD:  -324.99302932321280   -3.24993e+02   0.00000e+00
   @RHF iter   1:  -326.00358384475248   -1.01055e+00   4.14358e-03 DIIS
   @RHF iter   2:  -326.20674928302549   -2.03165e-01   2.24409e-03 DIIS
   @RHF iter   3:  -326.25962769606559   -5.28784e-02   4.78034e-04 DIIS
   @RHF iter   4:  -326.26328869356053   -3.66100e-03   1.99313e-04 DIIS
   @RHF iter   5:  -326.26392949771349   -6.40804e-04   3.05106e-05 DIIS
   @RHF iter   6:  -326.26396025517312   -3.07575e-05   1.34657e-05 DIIS
   @RHF iter   7:  -326.26396535866996   -5.10350e-06   5.20081e-06 DIIS
   @RHF iter   8:  -326.26396641524059   -1.05657e-06   1.78785e-06 DIIS
   @RHF iter   9:  -326.26396654364169   -1.28401e-07   4.68498e-07 DIIS
   @RHF iter  10:  -326.26396654965231   -6.01062e-09   1.49143e-07 DIIS
   @RHF iter  11:  -326.26396655035836   -7.06052e-10   3.61720e-08 DIIS
   @RHF iter  12:  -326.26396655039866   -4.03020e-11   8.98153e-09 DIIS
   @RHF iter  13:  -326.26396655040037   -1.70530e-12   2.09727e-09 DIIS
   @RHF iter  14:  -326.26396655040145   -1.08002e-12   7.33216e-10 DIIS
   @RHF iter  15:  -326.26396655040116    2.84217e-13   2.26184e-10 DIIS
   @RHF iter  16:  -326.26396655040099    1.70530e-13   8.49574e-11 DIIS
  Energy and wave function converged.

  ==> Post-Iterations <==

    Orbital Energies [Eh]
    ---------------------

    Doubly Occupied:

       1A    -20.502848     2A    -15.589587     3A    -11.345886
       4A    -11.242491     5A    -11.214000     6A    -11.209040
       7A    -11.206714     8A     -1.374677     9A     -1.219243
      10A     -1.043713    11A     -1.003992    12A     -0.918563
      13A     -0.800294    14A     -0.787857    15A     -0.729838
      16A     -0.658218    17A     -0.617660    18A     -0.616778
      19A     -0.586064    20A     -0.574487    21A     -0.555800
      22A     -0.542822    23A     -0.525550    24A     -0.524944
      25A     -0.466680    26A     -0.460664    27A     -0.456139
      28A     -0.411091    29A     -0.405118

    Virtual:

      30A      0.154489    31A      0.189287    32A      0.200274
      33A      0.203291    34A      0.220950    35A      0.239851
      36A      0.245929    37A      0.257854    38A      0.270702
      39A      0.280330    40A      0.298084    41A      0.301355
      42A      0.310506    43A      0.343460    44A      0.369561
      45A      0.389350    46A      0.432510    47A      0.472937
      48A      0.557601    49A      0.579841    50A      0.614202
      51A      0.616949    52A      0.624726    53A      0.631316
      54A      0.660021    55A      0.677046    56A      0.702961
      57A      0.719755    58A      0.746943    59A      0.802902
      60A      0.803724    61A      0.820047    62A      0.839142
      63A      0.849982    64A      0.870280    65A      0.890139
      66A      0.896609    67A      0.900408    68A      0.903773
      69A      0.910054    70A      0.916361    71A      0.918835
      72A      0.932879    73A      0.952702    74A      0.956090
      75A      0.971672    76A      0.995987    77A      1.008257
      78A      1.053467    79A      1.068988    80A      1.112326
      81A      1.123743    82A      1.130588    83A      1.202800
      84A      1.215656    85A      1.320429    86A      1.361421
      87A      1.371417    88A      1.404816    89A      1.413813
      90A      1.424267    91A      1.446315    92A      1.483292
      93A      1.493135    94A      1.530384    95A      1.560370
      96A      1.626194    97A      1.642560    98A      1.662102
      99A      1.684531   100A      1.700101   101A      1.702493
     102A      1.756029   103A      1.826689   104A      1.858010
     105A      1.874705   106A      1.879730   107A      1.892551
     108A      1.896210   109A      1.907757   110A      1.918928
     111A      1.919772   112A      1.923351   113A      1.940710
     114A      1.969935   115A      1.982157   116A      1.988913
     117A      1.997599   118A      2.001113   119A      2.006457
     120A      2.030374   121A      2.046919   122A      2.069494
     123A      2.100378   124A      2.122412   125A      2.143595
     126A      2.168414   127A      2.238398   128A      2.294019
     129A      2.306815   130A      2.314568   131A      2.335184
     132A      2.354206   133A      2.424692   134A      2.436277
     135A      2.464437   136A      2.517902   137A      2.541941
     138A      2.555462   139A      2.572246   140A      2.601511
     141A      2.621487   142A      2.631951   143A      2.642096
     144A      2.746501   145A      2.757042   146A      2.771435
     147A      2.779429   148A      2.789752   149A      2.804372
     150A      2.817453   151A      2.855038   152A      2.932467
     153A      2.965661   154A      2.980805   155A      2.991724
     156A      3.082537   157A      3.097233   158A      3.143490
     159A      3.285602   160A      3.511046   161A      3.541679
     162A      3.890174   163A      3.924418

    Final Occupation by Irrep:
              A
    DOCC [    29 ]

  @RHF Final Energy:  -326.26396655040099

   => Energetics <=

    Nuclear Repulsion Energy =            306.0551502518988514
    One-Electron Energy =               -1049.4567191960427408
    Two-Electron Energy =                 417.1376023937429522
    Total Energy =                       -326.2639665504009940

Computation Completed

Properties will be evaluated at   0.000000,   0.000000,   0.000000 [a0]

Properties computed using the SCF density matrix

  Nuclear Dipole Moment: [e a0]
     X:     2.0502      Y:     3.7872      Z:    -8.1839

  Electronic Dipole Moment: [e a0]
     X:    -2.2303      Y:    -2.2428      Z:     8.6563

  Dipole Moment: [e a0]
     X:    -0.1801      Y:     1.5445      Z:     0.4724     Total:     1.6251

  Dipole Moment: [D]
     X:    -0.4577      Y:     3.9257      Z:     1.2007     Total:     4.1306

*** tstop() called on ds3 at Mon Apr 27 22:54:47 2020
Module time:
	user time   =      34.81 seconds =       0.58 minutes
	system time =      14.50 seconds =       0.24 minutes
	total time  =         47 seconds =       0.78 minutes
Total time:
	user time   =      34.81 seconds =       0.58 minutes
	system time =      14.50 seconds =       0.24 minutes
	total time  =         47 seconds =       0.78 minutes
                                     G D M A

                                 by Anthony Stone

                           version 2.2.06, 22 June 2011

               Distributed Multipoles from Gaussian wavefunctions

Starting at 22:54:47 on 27 Apr 2020

Using SCF density matrix from file ./SSI/SSI-041LYS-045GLN-1-dimer.test.21161.fchk

                         Distributed Multipole Analysis

Standard DMA

Positions and radii in angstrom
Multipole moments in atomic units, ea_0^k for rank k

C          x =  0.797159  y = -0.054127  z = -1.622412 angstrom
           Maximum rank =  0   Radius =  0.650 angstrom
                   Q00  =  -0.071985

C          x =  0.764159  y = -1.113127  z = -2.725412 angstrom
           Maximum rank =  0   Radius =  0.650 angstrom
                   Q00  =  -0.233856

C          x =  1.697159  y =  1.152873  z = -1.910412 angstrom
           Maximum rank =  0   Radius =  0.650 angstrom
                   Q00  =  -0.248672

H          x = -0.216841  y =  0.315873  z = -1.473412 angstrom
           Maximum rank =  0   Radius =  0.325 angstrom
                   Q00  =   0.032455

H          x =  1.133159  y = -0.506127  z = -0.691412 angstrom
           Maximum rank =  0   Radius =  0.325 angstrom
                   Q00  =   0.060353

H          x =  1.766159  y = -1.500127  z = -2.906412 angstrom
           Maximum rank =  0   Radius =  0.325 angstrom
                   Q00  =   0.075331

H          x =  0.432159  y = -0.642127  z = -3.648412 angstrom
           Maximum rank =  0   Radius =  0.325 angstrom
                   Q00  =   0.066698

H          x =  1.380159  y =  1.609873  z = -2.852412 angstrom
           Maximum rank =  0   Radius =  0.325 angstrom
                   Q00  =   0.073009

H          x =  1.559159  y =  1.888873  z = -1.110412 angstrom
           Maximum rank =  0   Radius =  0.325 angstrom
                   Q00  =   0.069464

H          x =  0.077989  y = -1.938247  z = -2.483862 angstrom
           Maximum rank =  0   Radius =  0.325 angstrom
                   Q00  =   0.093628

H          x =  2.758289  y =  0.868863  z = -1.968252 angstrom
           Maximum rank =  0   Radius =  0.325 angstrom
                   Q00  =   0.077904

C          x = -2.195841  y =  0.403873  z =  1.490588 angstrom
           Maximum rank =  0   Radius =  0.650 angstrom
                   Q00  =  -0.263606

C          x = -0.773841  y = -0.073127  z =  1.556588 angstrom
           Maximum rank =  0   Radius =  0.650 angstrom
                   Q00  =   0.819327

O          x = -0.473841  y = -1.239127  z =  1.370588 angstrom
           Maximum rank =  0   Radius =  0.650 angstrom
                   Q00  =  -0.784895

N          x =  0.136159  y =  0.852873  z =  1.814588 angstrom
           Maximum rank =  0   Radius =  0.650 angstrom
                   Q00  =  -0.529497

H          x = -2.252841  y =  1.461873  z =  1.756588 angstrom
           Maximum rank =  0   Radius =  0.325 angstrom
                   Q00  =   0.068661

H          x = -2.767841  y = -0.145127  z =  2.236588 angstrom
           Maximum rank =  0   Radius =  0.325 angstrom
                   Q00  =   0.133777

H          x =  1.096159  y =  0.558873  z =  1.922588 angstrom
           Maximum rank =  0   Radius =  0.325 angstrom
                   Q00  =   0.221958

H          x = -0.134841  y =  1.808873  z =  1.993588 angstrom
           Maximum rank =  0   Radius =  0.325 angstrom
                   Q00  =   0.206700

H          x = -2.641091  y =  0.267483  z =  0.494018 angstrom
           Maximum rank =  0   Radius =  0.325 angstrom
                   Q00  =   0.133246

Total multipoles referred to origin at
           x =   0.000000,  y =    0.000000,  z =    0.000000 angstrom
                   Q00  =  -0.000000

Finished at 22:54:47 on 27 Apr 2020

  DMA results are available in the Python driver through the
	  variable('DMA DISTRIBUTED MULTIPOLES')
  and
	  variable('DMA TOTAL MULTIPOLES')
  commands.

    Psi4 stopped on: Monday, 27 April 2020 10:54PM
    Psi4 wall time for execution: 0:00:47.52

*** Psi4 exiting successfully. Buy a developer a beer!
