                               Psi4 1.3.2 release

  ==> Input File <==

--------------------------------------------------------------------------
import numpy as np
set {scf_type pk
basis cc-pvdz
d_convergence 10
gdma_switch   0
gdma_limit    0
gdma_origin   [ 0.0,  0.0,  0.0 ]
}
molecule test {
    units Angstrom
    0 1
    --
    0 1
    C               -2.537484705947395     1.026063166850315    -0.775911048009661
    C               -0.188484705947395     1.505063166850314    -1.385911048009661
    N               -1.088484705947395     0.792063166850315    -0.724911048009661
    N               -0.570484705947395     2.498063166850315    -2.164911048009662
    N                1.094515294052605     1.234063166850315    -1.262911048009662
    H               -0.738484705947395     0.074063166850315    -0.099911048009661
    H               -2.753484705947395     2.073063166850314    -0.965911048009661
    H               -2.943484705947395     0.793063166850315     0.211088951990339
    H               -1.545484705947395     2.710063166850314    -2.274911048009661
    H                0.118515294052605     3.066063166850315    -2.633911048009661
    H                1.359515294052605     0.560063166850315    -0.547911048009661
    H                1.794515294052605     1.795063166850315    -1.718911048009662
    H               -3.046704705947395     0.387563166850315    -1.512811048009661
    C                1.843515294052605    -2.706936833149685     1.987088951990339
    C                0.762515294052605    -1.729936833149685     1.562088951990338
    O                1.105515294052605    -0.579936833149685     1.197088951990338
    O               -0.429484705947395    -2.115936833149686     1.599088951990338
    H                1.472515294052605    -3.732936833149685     1.934088951990339
    H                2.067515294052605    -2.489936833149685     3.032088951990338
    H                2.756785294052605    -2.619926833149686     1.380158951990338

}
e, wfn = energy('scf', return_wfn=True)
gdma(wfn)
dmavals = variable('DMA DISTRIBUTED MULTIPOLES')
charges = np.array(dmavals)
print(charges)
np.save('SSI-073ARG-119ASP-1-dimer.npy', np.array(charges))--------------------------------------------------------------------------

*** tstart() called on ds3
*** at Tue Apr 28 14:34:15 2020

   => Loading Basis Set <=

    Name: CC-PVDZ
    Role: ORBITAL
    Keyword: BASIS
    atoms 1-2, 14-15  entry C          line   138 file /theoryfs2/ds/metcalf/miniconda2/envs/tf2gpu/share/psi4/basis/cc-pvdz.gbs
    atoms 3-5         entry N          line   168 file /theoryfs2/ds/metcalf/miniconda2/envs/tf2gpu/share/psi4/basis/cc-pvdz.gbs
    atoms 6-13, 18-20 entry H          line    22 file /theoryfs2/ds/metcalf/miniconda2/envs/tf2gpu/share/psi4/basis/cc-pvdz.gbs
    atoms 16-17       entry O          line   198 file /theoryfs2/ds/metcalf/miniconda2/envs/tf2gpu/share/psi4/basis/cc-pvdz.gbs

         ---------------------------------------------------------
                                   SCF
               by Justin Turney, Rob Parrish, Andy Simmonett
                          and Daniel G. A. Smith
                              RHF Reference
                        1 Threads,    500 MiB Core
         ---------------------------------------------------------

  ==> Geometry <==

    Molecular point group: c1
    Full point group: C1

    Geometry (in Angstrom), charge = 0, multiplicity = 1:

       Center              X                  Y                   Z               Mass
    ------------   -----------------  -----------------  -----------------  -----------------
         C           -2.537484705947     1.026063166850    -0.775911048010    12.000000000000
         C           -0.188484705947     1.505063166850    -1.385911048010    12.000000000000
         N           -1.088484705947     0.792063166850    -0.724911048010    14.003074004430
         N           -0.570484705947     2.498063166850    -2.164911048010    14.003074004430
         N            1.094515294053     1.234063166850    -1.262911048010    14.003074004430
         H           -0.738484705947     0.074063166850    -0.099911048010     1.007825032230
         H           -2.753484705947     2.073063166850    -0.965911048010     1.007825032230
         H           -2.943484705947     0.793063166850     0.211088951990     1.007825032230
         H           -1.545484705947     2.710063166850    -2.274911048010     1.007825032230
         H            0.118515294053     3.066063166850    -2.633911048010     1.007825032230
         H            1.359515294053     0.560063166850    -0.547911048010     1.007825032230
         H            1.794515294053     1.795063166850    -1.718911048010     1.007825032230
         H           -3.046704705947     0.387563166850    -1.512811048010     1.007825032230
         C            1.843515294053    -2.706936833150     1.987088951990    12.000000000000
         C            0.762515294053    -1.729936833150     1.562088951990    12.000000000000
         O            1.105515294053    -0.579936833150     1.197088951990    15.994914619570
         O           -0.429484705947    -2.115936833150     1.599088951990    15.994914619570
         H            1.472515294053    -3.732936833150     1.934088951990     1.007825032230
         H            2.067515294053    -2.489936833150     3.032088951990     1.007825032230
         H            2.756785294053    -2.619926833150     1.380158951990     1.007825032230

  Running in c1 symmetry.

  Rotational constants: A =      0.09624  B =      0.02164  C =      0.01803 [cm^-1]
  Rotational constants: A =   2885.15799  B =    648.62040  C =    540.61196 [MHz]
  Nuclear repulsion =  452.866268027459569

  Charge       = 0
  Multiplicity = 1
  Electrons    = 72
  Nalpha       = 36
  Nbeta        = 36

  ==> Algorithm <==

  SCF Algorithm Type is PK.
  DIIS enabled.
  MOM disabled.
  Fractional occupation disabled.
  Guess Type is SAD.
  Energy threshold   = 1.00e-06
  Density threshold  = 1.00e-10
  Integral threshold = 0.00e+00

  ==> Primary Basis <==

  Basis Set: CC-PVDZ
    Blend: CC-PVDZ
    Number of shells: 87
    Number of basis function: 181
    Number of Cartesian functions: 190
    Spherical Harmonics?: true
    Max angular momentum: 2

  ==> Pre-Iterations <==

   -------------------------------------------------------
    Irrep   Nso     Nmo     Nalpha   Nbeta   Ndocc  Nsocc
   -------------------------------------------------------
     A        181     181       0       0       0       0
   -------------------------------------------------------
    Total     181     181      36      36      36       0
   -------------------------------------------------------

  ==> Integral Setup <==

  Using integral reordering PK algorithm.
  Sizing the integral batches needed.
  Building batch lookup table.
   Calculation information:
      Number of atoms:                  20
      Number of AO shells:              87
      Number of primitives:            253
      Number of atomic orbitals:       190
      Number of basis functions:       181

      Integral cutoff                 1.00e-12
      Number of threads:                 1

	Batch   1 pq = [       0,    9405] index = [             0,44231715] size =     44231715
	Batch   2 pq = [    9405,   13301] index = [      44231715,88464951] size =     44233236
	Batch   3 pq = [   13301,   16471] index = [      88464951,135655156] size =     47190205
  Task number: 13
  Buffer size: 11059200
  Buffer per thread: 2
  We computed 5731445 shell quartets total.
  Whereas there are 7328706 unique shell quartets.

  ==> DiskJK: Disk-Based J/K Matrices <==

    J tasked:                  Yes
    K tasked:                  Yes
    wK tasked:                  No
    Memory [MiB]:              375
    Schwarz Cutoff:          1E-12

    OpenMP threads:              1

  Minimum eigenvalue in the overlap matrix is 3.8888047499E-03.
  Using Symmetric Orthogonalization.

  SCF Guess: Superposition of Atomic Densities via on-the-fly atomic UHF.

  ==> Iterations <==

                        Total Energy        Delta E     RMS |[F,P]|

   @RHF iter SAD:  -469.66423813926514   -4.69664e+02   0.00000e+00
   @RHF iter   1:  -470.69775708595625   -1.03352e+00   4.25454e-03 DIIS
   @RHF iter   2:  -470.92380122633307   -2.26044e-01   2.23989e-03 DIIS
   @RHF iter   3:  -470.98320232420576   -5.94011e-02   3.94896e-04 DIIS
   @RHF iter   4:  -470.98642700604717   -3.22468e-03   1.40397e-04 DIIS
   @RHF iter   5:  -470.98681851783704   -3.91512e-04   2.76171e-05 DIIS
   @RHF iter   6:  -470.98683857858271   -2.00607e-05   1.38208e-05 DIIS
   @RHF iter   7:  -470.98684216480433   -3.58622e-06   3.32377e-06 DIIS
   @RHF iter   8:  -470.98684261866492   -4.53861e-07   1.42973e-06 DIIS
   @RHF iter   9:  -470.98684269119804   -7.25331e-08   5.11998e-07 DIIS
   @RHF iter  10:  -470.98684270484154   -1.36435e-08   1.88123e-07 DIIS
   @RHF iter  11:  -470.98684270670373   -1.86219e-09   4.77379e-08 DIIS
   @RHF iter  12:  -470.98684270681815   -1.14426e-10   1.39934e-08 DIIS
   @RHF iter  13:  -470.98684270682224   -4.09273e-12   4.25245e-09 DIIS
   @RHF iter  14:  -470.98684270682401   -1.76215e-12   9.63894e-10 DIIS
   @RHF iter  15:  -470.98684270682270    1.30740e-12   3.86673e-10 DIIS
   @RHF iter  16:  -470.98684270682338   -6.82121e-13   1.40088e-10 DIIS
   @RHF iter  17:  -470.98684270682469   -1.30740e-12   5.53173e-11 DIIS
  Energy and wave function converged.

  ==> Post-Iterations <==

    Orbital Energies [Eh]
    ---------------------

    Doubly Occupied:

       1A    -20.412075     2A    -20.396282     3A    -15.662484
       4A    -15.633186     5A    -15.633153     6A    -11.446175
       7A    -11.315555     8A    -11.252656     9A    -11.159695
      10A     -1.405161    11A     -1.290300    12A     -1.260074
      13A     -1.249578    14A     -1.176937    15A     -1.007547
      16A     -0.910401    17A     -0.899284    18A     -0.838627
      19A     -0.802115    20A     -0.721394    21A     -0.710556
      22A     -0.686381    23A     -0.654492    24A     -0.629782
      25A     -0.614526    26A     -0.593961    27A     -0.539925
      28A     -0.529888    29A     -0.527711    30A     -0.484108
      31A     -0.466903    32A     -0.438700    33A     -0.435867
      34A     -0.326341    35A     -0.309753    36A     -0.306446

    Virtual:

      37A      0.113200    38A      0.145939    39A      0.166430
      40A      0.192787    41A      0.201133    42A      0.232797
      43A      0.247507    44A      0.255353    45A      0.280138
      46A      0.281977    47A      0.317694    48A      0.319297
      49A      0.357017    50A      0.361766    51A      0.414003
      52A      0.461303    53A      0.471399    54A      0.480629
      55A      0.572526    56A      0.572991    57A      0.589336
      58A      0.617997    59A      0.654182    60A      0.659728
      61A      0.665305    62A      0.683592    63A      0.693322
      64A      0.707499    65A      0.714962    66A      0.769334
      67A      0.798328    68A      0.807879    69A      0.818201
      70A      0.830013    71A      0.847089    72A      0.859940
      73A      0.877795    74A      0.901385    75A      0.920464
      76A      0.922445    77A      0.930318    78A      0.933245
      79A      0.955803    80A      0.966619    81A      0.983587
      82A      1.006794    83A      1.033631    84A      1.058133
      85A      1.069308    86A      1.098004    87A      1.111454
      88A      1.139824    89A      1.186976    90A      1.226141
      91A      1.237425    92A      1.250858    93A      1.274186
      94A      1.280446    95A      1.305212    96A      1.326632
      97A      1.339704    98A      1.387231    99A      1.420428
     100A      1.442547   101A      1.446693   102A      1.473416
     103A      1.503563   104A      1.520931   105A      1.552964
     106A      1.575769   107A      1.589141   108A      1.619638
     109A      1.625290   110A      1.667797   111A      1.669687
     112A      1.705532   113A      1.731067   114A      1.736003
     115A      1.781053   116A      1.800763   117A      1.837138
     118A      1.874094   119A      1.882066   120A      1.888783
     121A      1.903424   122A      1.926116   123A      1.929935
     124A      1.949157   125A      1.956257   126A      1.967081
     127A      1.987494   128A      2.005961   129A      2.020333
     130A      2.036386   131A      2.090807   132A      2.125192
     133A      2.131417   134A      2.162068   135A      2.171337
     136A      2.249257   137A      2.274896   138A      2.288560
     139A      2.300957   140A      2.315151   141A      2.322469
     142A      2.388575   143A      2.391582   144A      2.435109
     145A      2.447082   146A      2.470484   147A      2.486637
     148A      2.558435   149A      2.568716   150A      2.581733
     151A      2.587589   152A      2.602858   153A      2.635757
     154A      2.675684   155A      2.715894   156A      2.720637
     157A      2.786232   158A      2.809709   159A      2.852961
     160A      2.869398   161A      2.880266   162A      2.885961
     163A      2.915756   164A      2.962770   165A      2.972185
     166A      3.036563   167A      3.096415   168A      3.132893
     169A      3.152755   170A      3.206149   171A      3.219585
     172A      3.259230   173A      3.278743   174A      3.486684
     175A      3.645831   176A      3.689757   177A      3.728091
     178A      3.788879   179A      3.926773   180A      3.953464
     181A      4.067950

    Final Occupation by Irrep:
              A
    DOCC [    36 ]

  @RHF Final Energy:  -470.98684270682469

   => Energetics <=

    Nuclear Repulsion Energy =            452.8662680274595687
    One-Electron Energy =               -1542.2501891059021091
    Two-Electron Energy =                 618.3970783716179085
    Total Energy =                       -470.9868427068247456

Computation Completed

Properties will be evaluated at   0.000000,   0.000000,   0.000000 [a0]

Properties computed using the SCF density matrix

  Nuclear Dipole Moment: [e a0]
     X:    -1.3622      Y:     2.4265      Z:    -2.9715

  Electronic Dipole Moment: [e a0]
     X:     0.5965      Y:     1.8235      Z:    -1.0281

  Dipole Moment: [e a0]
     X:    -0.7657      Y:     4.2500      Z:    -3.9995     Total:     5.8860

  Dipole Moment: [D]
     X:    -1.9461      Y:    10.8024      Z:   -10.1657     Total:    14.9607

*** tstop() called on ds3 at Tue Apr 28 14:35:52 2020
Module time:
	user time   =      46.30 seconds =       0.77 minutes
	system time =      23.09 seconds =       0.38 minutes
	total time  =         97 seconds =       1.62 minutes
Total time:
	user time   =      46.30 seconds =       0.77 minutes
	system time =      23.09 seconds =       0.38 minutes
	total time  =         97 seconds =       1.62 minutes
                                     G D M A

                                 by Anthony Stone

                           version 2.2.06, 22 June 2011

               Distributed Multipoles from Gaussian wavefunctions

Starting at 14:35:52 on 28 Apr 2020

Using SCF density matrix from file ./SSI/SSI-073ARG-119ASP-1-dimer.test.30844.fchk

                         Distributed Multipole Analysis

Standard DMA

Positions and radii in angstrom
Multipole moments in atomic units, ea_0^k for rank k

C          x = -2.537485  y =  1.026063  z = -0.775911 angstrom
           Maximum rank =  0   Radius =  0.650 angstrom
                   Q00  =  -0.104853

C          x = -0.188485  y =  1.505063  z = -1.385911 angstrom
           Maximum rank =  0   Radius =  0.650 angstrom
                   Q00  =   1.057041

N          x = -1.088485  y =  0.792063  z = -0.724911 angstrom
           Maximum rank =  0   Radius =  0.650 angstrom
                   Q00  =  -0.474229

N          x = -0.570485  y =  2.498063  z = -2.164911 angstrom
           Maximum rank =  0   Radius =  0.650 angstrom
                   Q00  =  -0.580101

N          x =  1.094515  y =  1.234063  z = -1.262911 angstrom
           Maximum rank =  0   Radius =  0.650 angstrom
                   Q00  =  -0.580936

H          x = -0.738485  y =  0.074063  z = -0.099911 angstrom
           Maximum rank =  0   Radius =  0.325 angstrom
                   Q00  =   0.260255

H          x = -2.753485  y =  2.073063  z = -0.965911 angstrom
           Maximum rank =  0   Radius =  0.325 angstrom
                   Q00  =   0.077788

H          x = -2.943485  y =  0.793063  z =  0.211089 angstrom
           Maximum rank =  0   Radius =  0.325 angstrom
                   Q00  =   0.157857

H          x = -1.545485  y =  2.710063  z = -2.274911 angstrom
           Maximum rank =  0   Radius =  0.325 angstrom
                   Q00  =   0.248074

H          x =  0.118515  y =  3.066063  z = -2.633911 angstrom
           Maximum rank =  0   Radius =  0.325 angstrom
                   Q00  =   0.241502

H          x =  1.359515  y =  0.560063  z = -0.547911 angstrom
           Maximum rank =  0   Radius =  0.325 angstrom
                   Q00  =   0.303108

H          x =  1.794515  y =  1.795063  z = -1.718911 angstrom
           Maximum rank =  0   Radius =  0.325 angstrom
                   Q00  =   0.232984

H          x = -3.046705  y =  0.387563  z = -1.512811 angstrom
           Maximum rank =  0   Radius =  0.325 angstrom
                   Q00  =   0.114196

C          x =  1.843515  y = -2.706937  z =  1.987089 angstrom
           Maximum rank =  0   Radius =  0.650 angstrom
                   Q00  =  -0.253444

C          x =  0.762515  y = -1.729937  z =  1.562089 angstrom
           Maximum rank =  0   Radius =  0.650 angstrom
                   Q00  =   0.872091

O          x =  1.105515  y = -0.579937  z =  1.197089 angstrom
           Maximum rank =  0   Radius =  0.650 angstrom
                   Q00  =  -0.944332

O          x = -0.429485  y = -2.115937  z =  1.599089 angstrom
           Maximum rank =  0   Radius =  0.650 angstrom
                   Q00  =  -0.878861

H          x =  1.472515  y = -3.732937  z =  1.934089 angstrom
           Maximum rank =  0   Radius =  0.325 angstrom
                   Q00  =   0.081151

H          x =  2.067515  y = -2.489937  z =  3.032089 angstrom
           Maximum rank =  0   Radius =  0.325 angstrom
                   Q00  =   0.104190

H          x =  2.756785  y = -2.619927  z =  1.380159 angstrom
           Maximum rank =  0   Radius =  0.325 angstrom
                   Q00  =   0.066520

Total multipoles referred to origin at
           x =   0.000000,  y =    0.000000,  z =    0.000000 angstrom
                   Q00  =  -0.000000

Finished at 14:35:52 on 28 Apr 2020

  DMA results are available in the Python driver through the
	  variable('DMA DISTRIBUTED MULTIPOLES')
  and
	  variable('DMA TOTAL MULTIPOLES')
  commands.

    Psi4 stopped on: Tuesday, 28 April 2020 02:35PM
    Psi4 wall time for execution: 0:01:36.56

*** Psi4 exiting successfully. Buy a developer a beer!
