                               Psi4 1.3.2 release

  ==> Input File <==

--------------------------------------------------------------------------
import numpy as np
set {scf_type pk
basis cc-pvdz
d_convergence 10
gdma_switch   0
gdma_limit    0
gdma_origin   [ 0.0,  0.0,  0.0 ]
}
molecule test {
    units Angstrom
    0 1
    --
    0 1
    C                1.747116347338878    -1.501072337035802    -2.061706494122852
    C               -1.267883652661122    -0.942072337035802     0.136293505877148
    C               -0.686883652661122    -0.541072337035802     1.346293505877148
    C               -0.474883652661122    -1.264072337035802    -0.946706494122852
    C                0.897116347338878    -1.139072337035802    -0.873706494122852
    C                0.681116347338878    -0.420072337035802     1.429293505877148
    C                1.472116347338878    -0.702072337035802     0.315293505877148
    H               -2.338883652661122    -1.048072337035802     0.064293505877148
    H               -1.308883652661122    -0.334072337035802     2.205293505877148
    H               -0.938883652661122    -1.610072337035802    -1.859706494122852
    H                1.144116347338878    -0.111072337035802     2.356293505877148
    H                2.536116347338878    -0.755072337035802    -2.161706494122852
    H                1.143116347338878    -1.455072337035802    -2.966706494122852
    H                2.542116347338879    -0.603072337035802     0.397293505877148
    H                2.200066347338878    -2.500731337035802    -1.987417494122852
    C               -0.517883652661122     2.674927662964198    -0.013706494122852
    C               -1.709883652661122     3.089927662964198     0.800293505877148
    H               -0.192883652661122     3.490927662964198    -0.660706494122852
    H                0.300116347338878     2.403927662964198     0.654293505877148
    H               -0.759883652661122     1.802927662964198    -0.618706494122852
    H               -2.092883652661122     2.223927662964198     1.342293505877148
    H               -2.492777652661121     3.499396662964198     0.144998505877148
    H               -1.408085652661122     3.862562662964198     1.522757005877148

}
e, wfn = energy('scf', return_wfn=True)
gdma(wfn)
dmavals = variable('DMA DISTRIBUTED MULTIPOLES')
charges = np.array(dmavals)
print(charges)
np.save('SSI-079PHE-100THR-1-dimer.npy', np.array(charges))--------------------------------------------------------------------------

*** tstart() called on ds3
*** at Tue Apr 28 05:32:50 2020

   => Loading Basis Set <=

    Name: CC-PVDZ
    Role: ORBITAL
    Keyword: BASIS
    atoms 1-7, 16-17  entry C          line   138 file /theoryfs2/ds/metcalf/miniconda2/envs/tf2gpu/share/psi4/basis/cc-pvdz.gbs
    atoms 8-15, 18-23 entry H          line    22 file /theoryfs2/ds/metcalf/miniconda2/envs/tf2gpu/share/psi4/basis/cc-pvdz.gbs

         ---------------------------------------------------------
                                   SCF
               by Justin Turney, Rob Parrish, Andy Simmonett
                          and Daniel G. A. Smith
                              RHF Reference
                        1 Threads,    500 MiB Core
         ---------------------------------------------------------

  ==> Geometry <==

    Molecular point group: c1
    Full point group: C1

    Geometry (in Angstrom), charge = 0, multiplicity = 1:

       Center              X                  Y                   Z               Mass
    ------------   -----------------  -----------------  -----------------  -----------------
         C            1.747116347339    -1.501072337036    -2.061706494123    12.000000000000
         C           -1.267883652661    -0.942072337036     0.136293505877    12.000000000000
         C           -0.686883652661    -0.541072337036     1.346293505877    12.000000000000
         C           -0.474883652661    -1.264072337036    -0.946706494123    12.000000000000
         C            0.897116347339    -1.139072337036    -0.873706494123    12.000000000000
         C            0.681116347339    -0.420072337036     1.429293505877    12.000000000000
         C            1.472116347339    -0.702072337036     0.315293505877    12.000000000000
         H           -2.338883652661    -1.048072337036     0.064293505877     1.007825032230
         H           -1.308883652661    -0.334072337036     2.205293505877     1.007825032230
         H           -0.938883652661    -1.610072337036    -1.859706494123     1.007825032230
         H            1.144116347339    -0.111072337036     2.356293505877     1.007825032230
         H            2.536116347339    -0.755072337036    -2.161706494123     1.007825032230
         H            1.143116347339    -1.455072337036    -2.966706494123     1.007825032230
         H            2.542116347339    -0.603072337036     0.397293505877     1.007825032230
         H            2.200066347339    -2.500731337036    -1.987417494123     1.007825032230
         C           -0.517883652661     2.674927662964    -0.013706494123    12.000000000000
         C           -1.709883652661     3.089927662964     0.800293505877    12.000000000000
         H           -0.192883652661     3.490927662964    -0.660706494123     1.007825032230
         H            0.300116347339     2.403927662964     0.654293505877     1.007825032230
         H           -0.759883652661     1.802927662964    -0.618706494123     1.007825032230
         H           -2.092883652661     2.223927662964     1.342293505877     1.007825032230
         H           -2.492777652661     3.499396662964     0.144998505877     1.007825032230
         H           -1.408085652661     3.862562662964     1.522757005877     1.007825032230

  Running in c1 symmetry.

  Rotational constants: A =      0.07504  B =      0.02961  C =      0.02775 [cm^-1]
  Rotational constants: A =   2249.69950  B =    887.76134  C =    832.05378 [MHz]
  Nuclear repulsion =  421.903095649833972

  Charge       = 0
  Multiplicity = 1
  Electrons    = 68
  Nalpha       = 34
  Nbeta        = 34

  ==> Algorithm <==

  SCF Algorithm Type is PK.
  DIIS enabled.
  MOM disabled.
  Fractional occupation disabled.
  Guess Type is SAD.
  Energy threshold   = 1.00e-06
  Density threshold  = 1.00e-10
  Integral threshold = 0.00e+00

  ==> Primary Basis <==

  Basis Set: CC-PVDZ
    Blend: CC-PVDZ
    Number of shells: 96
    Number of basis function: 196
    Number of Cartesian functions: 205
    Spherical Harmonics?: true
    Max angular momentum: 2

  ==> Pre-Iterations <==

   -------------------------------------------------------
    Irrep   Nso     Nmo     Nalpha   Nbeta   Ndocc  Nsocc
   -------------------------------------------------------
     A        196     196       0       0       0       0
   -------------------------------------------------------
    Total     196     196      34      34      34       0
   -------------------------------------------------------

  ==> Integral Setup <==

  Using integral reordering PK algorithm.
  Sizing the integral batches needed.
  Building batch lookup table.
   Calculation information:
      Number of atoms:                  23
      Number of AO shells:              96
      Number of primitives:            268
      Number of atomic orbitals:       205
      Number of basis functions:       196

      Integral cutoff                 1.00e-12
      Number of threads:                 1

	Batch   1 pq = [       0,    9405] index = [             0,44231715] size =     44231715
	Batch   2 pq = [    9405,   13301] index = [      44231715,88464951] size =     44233236
	Batch   3 pq = [   13301,   16290] index = [      88464951,132690195] size =     44225244
	Batch   4 pq = [   16290,   18810] index = [     132690195,176917455] size =     44227260
	Batch   5 pq = [   18810,   19306] index = [     176917455,186370471] size =      9453016
  Task number: 17
  Buffer size: 11059200
  Buffer per thread: 2
  We computed 10749648 shell quartets total.
  Whereas there are 10841496 unique shell quartets.

  ==> DiskJK: Disk-Based J/K Matrices <==

    J tasked:                  Yes
    K tasked:                  Yes
    wK tasked:                  No
    Memory [MiB]:              375
    Schwarz Cutoff:          1E-12

    OpenMP threads:              1

  Minimum eigenvalue in the overlap matrix is 3.0152157350E-04.
  Using Symmetric Orthogonalization.

  SCF Guess: Superposition of Atomic Densities via on-the-fly atomic UHF.

  ==> Iterations <==

                        Total Energy        Delta E     RMS |[F,P]|

   @RHF iter SAD:  -347.99541218050325   -3.47995e+02   0.00000e+00
   @RHF iter   1:  -348.76055677624987   -7.65145e-01   2.93896e-03 DIIS
   @RHF iter   2:  -348.95622119994306   -1.95664e-01   1.23648e-03 DIIS
   @RHF iter   3:  -348.98796444756698   -3.17432e-02   2.60741e-04 DIIS
   @RHF iter   4:  -348.99046740825122   -2.50296e-03   5.23042e-05 DIIS
   @RHF iter   5:  -348.99054038426397   -7.29760e-05   1.66869e-05 DIIS
   @RHF iter   6:  -348.99054736359841   -6.97933e-06   4.68263e-06 DIIS
   @RHF iter   7:  -348.99054796854483   -6.04946e-07   1.28568e-06 DIIS
   @RHF iter   8:  -348.99054802053655   -5.19917e-08   3.00794e-07 DIIS
   @RHF iter   9:  -348.99054802636101   -5.82446e-09   1.25730e-07 DIIS
   @RHF iter  10:  -348.99054802769092   -1.32991e-09   5.75323e-08 DIIS
   @RHF iter  11:  -348.99054802813464   -4.43720e-10   2.17349e-08 DIIS
   @RHF iter  12:  -348.99054802819904   -6.44036e-11   9.48167e-09 DIIS
   @RHF iter  13:  -348.99054802820660   -7.56017e-12   3.74173e-09 DIIS
   @RHF iter  14:  -348.99054802820530    1.30740e-12   9.61302e-10 DIIS
   @RHF iter  15:  -348.99054802820643   -1.13687e-12   2.95759e-10 DIIS
   @RHF iter  16:  -348.99054802820604    3.97904e-13   6.59361e-11 DIIS
  Energy and wave function converged.

  ==> Post-Iterations <==

    Orbital Energies [Eh]
    ---------------------

    Doubly Occupied:

       1A    -11.239508     2A    -11.235051     3A    -11.234749
       4A    -11.230879     5A    -11.230454     6A    -11.229482
       7A    -11.228392     8A    -11.208693     9A    -11.200472
      10A     -1.157420    11A     -1.047057    12A     -1.014245
      13A     -1.014065    14A     -0.932975    15A     -0.826841
      16A     -0.822863    17A     -0.797983    18A     -0.693522
      19A     -0.634004    20A     -0.630016    21A     -0.594287
      22A     -0.589263    23A     -0.584140    24A     -0.577786
      25A     -0.564154    26A     -0.535518    27A     -0.499171
      28A     -0.488046    29A     -0.485339    30A     -0.482315
      31A     -0.471568    32A     -0.469469    33A     -0.334610
      34A     -0.323505

    Virtual:

      35A      0.133925    36A      0.140883    37A      0.175918
      38A      0.195601    39A      0.211906    40A      0.213190
      41A      0.235656    42A      0.252588    43A      0.255549
      44A      0.261195    45A      0.267646    46A      0.280271
      47A      0.286047    48A      0.292264    49A      0.312934
      50A      0.323759    51A      0.367946    52A      0.376919
      53A      0.414489    54A      0.452360    55A      0.462458
      56A      0.481435    57A      0.495741    58A      0.561396
      59A      0.579210    60A      0.590306    61A      0.604712
      62A      0.612720    63A      0.640934    64A      0.652087
      65A      0.677467    66A      0.684638    67A      0.695496
      68A      0.705155    69A      0.735623    70A      0.742817
      71A      0.748434    72A      0.760386    73A      0.769606
      74A      0.797999    75A      0.809115    76A      0.834784
      77A      0.841885    78A      0.859989    79A      0.862645
      80A      0.874097    81A      0.884921    82A      0.892820
      83A      0.895020    84A      0.901005    85A      0.904754
      86A      0.912466    87A      0.923431    88A      0.924956
      89A      0.939183    90A      0.940936    91A      0.976978
      92A      0.984227    93A      0.991382    94A      1.010201
      95A      1.044202    96A      1.068566    97A      1.125104
      98A      1.136207    99A      1.141462   100A      1.155975
     101A      1.160691   102A      1.172864   103A      1.196501
     104A      1.218153   105A      1.237784   106A      1.256907
     107A      1.265668   108A      1.295055   109A      1.301397
     110A      1.313557   111A      1.325362   112A      1.335657
     113A      1.411228   114A      1.491033   115A      1.500365
     116A      1.513895   117A      1.522618   118A      1.555490
     119A      1.599054   120A      1.613940   121A      1.671495
     122A      1.685953   123A      1.697884   124A      1.706855
     125A      1.734134   126A      1.758205   127A      1.781542
     128A      1.790255   129A      1.825668   130A      1.863127
     131A      1.870649   132A      1.884615   133A      1.889980
     134A      1.897982   135A      1.910253   136A      1.920521
     137A      1.927055   138A      1.945431   139A      1.947478
     140A      1.948267   141A      1.965294   142A      1.967033
     143A      1.972504   144A      1.976006   145A      1.981344
     146A      1.992596   147A      1.997927   148A      2.015746
     149A      2.046076   150A      2.073856   151A      2.097574
     152A      2.118905   153A      2.123283   154A      2.140957
     155A      2.159416   156A      2.165762   157A      2.180918
     158A      2.184491   159A      2.190670   160A      2.254738
     161A      2.279964   162A      2.293059   163A      2.301638
     164A      2.310256   165A      2.324456   166A      2.329649
     167A      2.358796   168A      2.466038   169A      2.470665
     170A      2.474324   171A      2.487790   172A      2.508474
     173A      2.546054   174A      2.588574   175A      2.593262
     176A      2.627494   177A      2.743164   178A      2.761019
     179A      2.771314   180A      2.776967   181A      2.795876
     182A      2.813136   183A      2.817291   184A      2.849974
     185A      2.860353   186A      2.878536   187A      2.885336
     188A      2.963096   189A      2.984957   190A      3.011060
     191A      3.030219   192A      3.037076   193A      3.165528
     194A      3.215304   195A      3.308497   196A      3.986046

    Final Occupation by Irrep:
              A
    DOCC [    34 ]

  @RHF Final Energy:  -348.99054802820604

   => Energetics <=

    Nuclear Repulsion Energy =            421.9030956498339719
    One-Electron Energy =               -1306.5715988356037087
    Two-Electron Energy =                 535.6779551575637015
    Total Energy =                       -348.9905480282060353

Computation Completed

Properties will be evaluated at   0.000000,   0.000000,   0.000000 [a0]

Properties computed using the SCF density matrix

  Nuclear Dipole Moment: [e a0]
     X:    -1.5632      Y:     8.3120      Z:    -1.4694

  Electronic Dipole Moment: [e a0]
     X:     1.6901      Y:    -8.4734      Z:     1.3647

  Dipole Moment: [e a0]
     X:     0.1268      Y:    -0.1614      Z:    -0.1047     Total:     0.2304

  Dipole Moment: [D]
     X:     0.3223      Y:    -0.4102      Z:    -0.2661     Total:     0.5856

*** tstop() called on ds3 at Tue Apr 28 05:34:26 2020
Module time:
	user time   =      72.90 seconds =       1.22 minutes
	system time =      25.66 seconds =       0.43 minutes
	total time  =         96 seconds =       1.60 minutes
Total time:
	user time   =      72.90 seconds =       1.22 minutes
	system time =      25.66 seconds =       0.43 minutes
	total time  =         96 seconds =       1.60 minutes
                                     G D M A

                                 by Anthony Stone

                           version 2.2.06, 22 June 2011

               Distributed Multipoles from Gaussian wavefunctions

Starting at 5:34:26 on 28 Apr 2020

Using SCF density matrix from file ./SSI/SSI-079PHE-100THR-1-dimer.test.31263.fchk

                         Distributed Multipole Analysis

Standard DMA

Positions and radii in angstrom
Multipole moments in atomic units, ea_0^k for rank k

C          x =  1.747116  y = -1.501072  z = -2.061706 angstrom
           Maximum rank =  0   Radius =  0.650 angstrom
                   Q00  =  -0.205229

C          x = -1.267884  y = -0.942072  z =  0.136294 angstrom
           Maximum rank =  0   Radius =  0.650 angstrom
                   Q00  =  -0.060332

C          x = -0.686884  y = -0.541072  z =  1.346294 angstrom
           Maximum rank =  0   Radius =  0.650 angstrom
                   Q00  =  -0.082808

C          x = -0.474884  y = -1.264072  z = -0.946706 angstrom
           Maximum rank =  0   Radius =  0.650 angstrom
                   Q00  =  -0.085781

C          x =  0.897116  y = -1.139072  z = -0.873706 angstrom
           Maximum rank =  0   Radius =  0.650 angstrom
                   Q00  =  -0.098853

C          x =  0.681116  y = -0.420072  z =  1.429294 angstrom
           Maximum rank =  0   Radius =  0.650 angstrom
                   Q00  =  -0.072950

C          x =  1.472116  y = -0.702072  z =  0.315294 angstrom
           Maximum rank =  0   Radius =  0.650 angstrom
                   Q00  =   0.005604

H          x = -2.338884  y = -1.048072  z =  0.064294 angstrom
           Maximum rank =  0   Radius =  0.325 angstrom
                   Q00  =   0.064500

H          x = -1.308884  y = -0.334072  z =  2.205294 angstrom
           Maximum rank =  0   Radius =  0.325 angstrom
                   Q00  =   0.061794

H          x = -0.938884  y = -1.610072  z = -1.859706 angstrom
           Maximum rank =  0   Radius =  0.325 angstrom
                   Q00  =   0.055167

H          x =  1.144116  y = -0.111072  z =  2.356294 angstrom
           Maximum rank =  0   Radius =  0.325 angstrom
                   Q00  =   0.063509

H          x =  2.536116  y = -0.755072  z = -2.161706 angstrom
           Maximum rank =  0   Radius =  0.325 angstrom
                   Q00  =   0.099763

H          x =  1.143116  y = -1.455072  z = -2.966706 angstrom
           Maximum rank =  0   Radius =  0.325 angstrom
                   Q00  =   0.097322

H          x =  2.542116  y = -0.603072  z =  0.397294 angstrom
           Maximum rank =  0   Radius =  0.325 angstrom
                   Q00  =   0.055361

H          x =  2.200066  y = -2.500731  z = -1.987417 angstrom
           Maximum rank =  0   Radius =  0.325 angstrom
                   Q00  =   0.105413

C          x = -0.517884  y =  2.674928  z = -0.013706 angstrom
           Maximum rank =  0   Radius =  0.650 angstrom
                   Q00  =  -0.219806

C          x = -1.709884  y =  3.089928  z =  0.800294 angstrom
           Maximum rank =  0   Radius =  0.650 angstrom
                   Q00  =  -0.226748

H          x = -0.192884  y =  3.490928  z = -0.660706 angstrom
           Maximum rank =  0   Radius =  0.325 angstrom
                   Q00  =   0.067828

H          x =  0.300116  y =  2.403928  z =  0.654294 angstrom
           Maximum rank =  0   Radius =  0.325 angstrom
                   Q00  =   0.076336

H          x = -0.759884  y =  1.802928  z = -0.618706 angstrom
           Maximum rank =  0   Radius =  0.325 angstrom
                   Q00  =   0.084761

H          x = -2.092884  y =  2.223928  z =  1.342294 angstrom
           Maximum rank =  0   Radius =  0.325 angstrom
                   Q00  =   0.073837

H          x = -2.492778  y =  3.499397  z =  0.144999 angstrom
           Maximum rank =  0   Radius =  0.325 angstrom
                   Q00  =   0.071675

H          x = -1.408086  y =  3.862563  z =  1.522757 angstrom
           Maximum rank =  0   Radius =  0.325 angstrom
                   Q00  =   0.069632

Total multipoles referred to origin at
           x =   0.000000,  y =    0.000000,  z =    0.000000 angstrom
                   Q00  =  -0.000000

Finished at 5:34:26 on 28 Apr 2020

  DMA results are available in the Python driver through the
	  variable('DMA DISTRIBUTED MULTIPOLES')
  and
	  variable('DMA TOTAL MULTIPOLES')
  commands.

    Psi4 stopped on: Tuesday, 28 April 2020 05:34AM
    Psi4 wall time for execution: 0:01:36.01

*** Psi4 exiting successfully. Buy a developer a beer!
