                               Psi4 1.3.2 release

  ==> Input File <==

--------------------------------------------------------------------------
import numpy as np
set {scf_type pk
basis cc-pvdz
d_convergence 10
gdma_switch   0
gdma_limit    0
gdma_origin   [ 0.0,  0.0,  0.0 ]
}
molecule test {
    units Angstrom
    0 1
    --
    0 1
    C               -0.213600320391663     1.360536222805367     1.716297657171399
    C               -1.008600320391663     0.504536222805367     0.771297657171399
    O               -1.618600320391663     1.019536222805367    -0.140702342828601
    N               -1.035600320391663    -0.811463777194633     0.973297657171399
    H                0.744399679608337     1.586536222805367     1.249297657171399
    H               -0.005600320391663     0.796536222805367     2.626297657171399
    H               -1.624600320391663    -1.368463777194633     0.374297657171399
    H               -0.548600320391663    -1.225463777194633     1.753297657171399
    H               -0.734600320391663     2.288820222805367     1.993503657171399
    C                1.263399679608337    -0.622463777194633    -1.848702342828601
    C                2.551399679608337    -1.333463777194633    -1.436702342828601
    H                1.000399679608337    -0.918463777194633    -2.862702342828601
    H                0.450399679608337    -0.915463777194633    -1.190702342828601
    H                1.381399679608337     0.458536222805367    -1.776702342828601
    H                2.893399679608337    -0.899463777194633    -0.497702342828601
    H                3.344649679608337    -1.234927777194633    -2.192379342828601
    H                2.306479679608337    -2.392403777194632    -1.267416342828601

}
e, wfn = energy('scf', return_wfn=True)
gdma(wfn)
dmavals = variable('DMA DISTRIBUTED MULTIPOLES')
charges = np.array(dmavals)
print(charges)
np.save('SSI-069ASN-119VAL-1-dimer.npy', np.array(charges))--------------------------------------------------------------------------

*** tstart() called on ds3
*** at Tue Apr 28 11:48:05 2020

   => Loading Basis Set <=

    Name: CC-PVDZ
    Role: ORBITAL
    Keyword: BASIS
    atoms 1-2, 10-11 entry C          line   138 file /theoryfs2/ds/metcalf/miniconda2/envs/tf2gpu/share/psi4/basis/cc-pvdz.gbs
    atoms 3          entry O          line   198 file /theoryfs2/ds/metcalf/miniconda2/envs/tf2gpu/share/psi4/basis/cc-pvdz.gbs
    atoms 4          entry N          line   168 file /theoryfs2/ds/metcalf/miniconda2/envs/tf2gpu/share/psi4/basis/cc-pvdz.gbs
    atoms 5-9, 12-17 entry H          line    22 file /theoryfs2/ds/metcalf/miniconda2/envs/tf2gpu/share/psi4/basis/cc-pvdz.gbs

         ---------------------------------------------------------
                                   SCF
               by Justin Turney, Rob Parrish, Andy Simmonett
                          and Daniel G. A. Smith
                              RHF Reference
                        1 Threads,    500 MiB Core
         ---------------------------------------------------------

  ==> Geometry <==

    Molecular point group: c1
    Full point group: C1

    Geometry (in Angstrom), charge = 0, multiplicity = 1:

       Center              X                  Y                   Z               Mass
    ------------   -----------------  -----------------  -----------------  -----------------
         C           -0.213600320392     1.360536222805     1.716297657171    12.000000000000
         C           -1.008600320392     0.504536222805     0.771297657171    12.000000000000
         O           -1.618600320392     1.019536222805    -0.140702342829    15.994914619570
         N           -1.035600320392    -0.811463777195     0.973297657171    14.003074004430
         H            0.744399679608     1.586536222805     1.249297657171     1.007825032230
         H           -0.005600320392     0.796536222805     2.626297657171     1.007825032230
         H           -1.624600320392    -1.368463777195     0.374297657171     1.007825032230
         H           -0.548600320392    -1.225463777195     1.753297657171     1.007825032230
         H           -0.734600320392     2.288820222805     1.993503657171     1.007825032230
         C            1.263399679608    -0.622463777195    -1.848702342829    12.000000000000
         C            2.551399679608    -1.333463777195    -1.436702342829    12.000000000000
         H            1.000399679608    -0.918463777195    -2.862702342829     1.007825032230
         H            0.450399679608    -0.915463777195    -1.190702342829     1.007825032230
         H            1.381399679608     0.458536222805    -1.776702342829     1.007825032230
         H            2.893399679608    -0.899463777195    -0.497702342829     1.007825032230
         H            3.344649679608    -1.234927777195    -2.192379342829     1.007825032230
         H            2.306479679608    -2.392403777195    -1.267416342829     1.007825032230

  Running in c1 symmetry.

  Rotational constants: A =      0.15416  B =      0.04266  C =      0.04149 [cm^-1]
  Rotational constants: A =   4621.68767  B =   1279.03217  C =   1243.72850 [MHz]
  Nuclear repulsion =  236.913461739960979

  Charge       = 0
  Multiplicity = 1
  Electrons    = 50
  Nalpha       = 25
  Nbeta        = 25

  ==> Algorithm <==

  SCF Algorithm Type is PK.
  DIIS enabled.
  MOM disabled.
  Fractional occupation disabled.
  Guess Type is SAD.
  Energy threshold   = 1.00e-06
  Density threshold  = 1.00e-10
  Integral threshold = 0.00e+00

  ==> Primary Basis <==

  Basis Set: CC-PVDZ
    Blend: CC-PVDZ
    Number of shells: 69
    Number of basis function: 139
    Number of Cartesian functions: 145
    Spherical Harmonics?: true
    Max angular momentum: 2

  ==> Pre-Iterations <==

   -------------------------------------------------------
    Irrep   Nso     Nmo     Nalpha   Nbeta   Ndocc  Nsocc
   -------------------------------------------------------
     A        139     139       0       0       0       0
   -------------------------------------------------------
    Total     139     139      25      25      25       0
   -------------------------------------------------------

  ==> Integral Setup <==

  Using integral reordering PK algorithm.
  Sizing the integral batches needed.
  Building batch lookup table.
   Calculation information:
      Number of atoms:                  17
      Number of AO shells:              69
      Number of primitives:            187
      Number of atomic orbitals:       145
      Number of basis functions:       139

      Integral cutoff                 1.00e-12
      Number of threads:                 1

	Batch   1 pq = [       0,    9730] index = [             0,47341315] size =     47341315
  Task number: 5
  Buffer size: 11059200
  Buffer per thread: 2
  We computed 2629210 shell quartets total.
  Whereas there are 2917320 unique shell quartets.

  ==> DiskJK: Disk-Based J/K Matrices <==

    J tasked:                  Yes
    K tasked:                  Yes
    wK tasked:                  No
    Memory [MiB]:              375
    Schwarz Cutoff:          1E-12

    OpenMP threads:              1

  Minimum eigenvalue in the overlap matrix is 4.3433766290E-03.
  Using Symmetric Orthogonalization.

  SCF Guess: Superposition of Atomic Densities via on-the-fly atomic UHF.

  ==> Iterations <==

                        Total Energy        Delta E     RMS |[F,P]|

   @RHF iter SAD:  -285.99558925168560   -2.85996e+02   0.00000e+00
   @RHF iter   1:  -286.99554789697163   -9.99959e-01   4.63167e-03 DIIS
   @RHF iter   2:  -287.17271722117141   -1.77169e-01   2.55426e-03 DIIS
   @RHF iter   3:  -287.22103840183740   -4.83212e-02   5.27206e-04 DIIS
   @RHF iter   4:  -287.22429541621216   -3.25701e-03   2.17535e-04 DIIS
   @RHF iter   5:  -287.22487825537797   -5.82839e-04   3.40991e-05 DIIS
   @RHF iter   6:  -287.22490890769581   -3.06523e-05   1.53863e-05 DIIS
   @RHF iter   7:  -287.22491370089222   -4.79320e-06   6.22920e-06 DIIS
   @RHF iter   8:  -287.22491474863330   -1.04774e-06   2.07007e-06 DIIS
   @RHF iter   9:  -287.22491487105532   -1.22422e-07   4.96451e-07 DIIS
   @RHF iter  10:  -287.22491487603452   -4.97920e-09   1.52197e-07 DIIS
   @RHF iter  11:  -287.22491487655378   -5.19265e-10   3.38675e-08 DIIS
   @RHF iter  12:  -287.22491487658169   -2.79101e-11   7.57583e-09 DIIS
   @RHF iter  13:  -287.22491487658385   -2.16005e-12   1.47519e-09 DIIS
   @RHF iter  14:  -287.22491487658334    5.11591e-13   6.16154e-10 DIIS
   @RHF iter  15:  -287.22491487658283    5.11591e-13   1.95517e-10 DIIS
   @RHF iter  16:  -287.22491487658414   -1.30740e-12   6.70924e-11 DIIS
  Energy and wave function converged.

  ==> Post-Iterations <==

    Orbital Energies [Eh]
    ---------------------

    Doubly Occupied:

       1A    -20.502397     2A    -15.588433     3A    -11.344999
       4A    -11.241834     5A    -11.217775     6A    -11.208487
       7A     -1.377819     8A     -1.216240     9A     -1.015459
      10A     -1.002958    11A     -0.832168    12A     -0.797946
      13A     -0.728937    14A     -0.658374    15A     -0.618068
      16A     -0.597047    17A     -0.593297    18A     -0.575253
      19A     -0.557766    20A     -0.525971    21A     -0.494246
      22A     -0.482911    23A     -0.478628    24A     -0.410050
      25A     -0.405066

    Virtual:

      26A      0.152805    27A      0.187192    28A      0.206616
      29A      0.209102    30A      0.222633    31A      0.247790
      32A      0.254426    33A      0.266597    34A      0.274279
      35A      0.291735    36A      0.313039    37A      0.336909
      38A      0.383840    39A      0.399819    40A      0.466411
      41A      0.560640    42A      0.594864    43A      0.603677
      44A      0.611332    45A      0.636623    46A      0.659573
      47A      0.680494    48A      0.692486    49A      0.706501
      50A      0.715842    51A      0.749116    52A      0.832920
      53A      0.850258    54A      0.857637    55A      0.860624
      56A      0.889753    57A      0.895456    58A      0.896276
      59A      0.913905    60A      0.926293    61A      0.931476
      62A      0.941081    63A      0.950541    64A      0.979096
      65A      1.010308    66A      1.049917    67A      1.082636
      68A      1.107443    69A      1.120789    70A      1.135837
      71A      1.178630    72A      1.258839    73A      1.334646
      74A      1.364092    75A      1.384770    76A      1.412256
      77A      1.427391    78A      1.463246    79A      1.474879
      80A      1.481705    81A      1.503666    82A      1.585510
      83A      1.645947    84A      1.656182    85A      1.680407
      86A      1.692700    87A      1.769549    88A      1.820851
      89A      1.852975    90A      1.855568    91A      1.872527
      92A      1.876758    93A      1.904725    94A      1.907181
      95A      1.922279    96A      1.941099    97A      1.952737
      98A      1.957380    99A      1.957865   100A      1.979605
     101A      1.983088   102A      1.998089   103A      2.050499
     104A      2.080020   105A      2.119950   106A      2.148491
     107A      2.185887   108A      2.238567   109A      2.283881
     110A      2.293430   111A      2.317297   112A      2.415319
     113A      2.445237   114A      2.458229   115A      2.462773
     116A      2.487237   117A      2.543843   118A      2.561394
     119A      2.580391   120A      2.606638   121A      2.635824
     122A      2.737915   123A      2.762102   124A      2.764454
     125A      2.801899   126A      2.814882   127A      2.841951
     128A      2.846604   129A      2.867434   130A      2.948310
     131A      2.974052   132A      2.987435   133A      3.096848
     134A      3.142841   135A      3.288386   136A      3.506218
     137A      3.545535   138A      3.896371   139A      3.922737

    Final Occupation by Irrep:
              A
    DOCC [    25 ]

  @RHF Final Energy:  -287.22491487658414

   => Energetics <=

    Nuclear Repulsion Energy =            236.9134617399609795
    One-Electron Energy =                -859.3324942275880858
    Two-Electron Energy =                 335.1941176110429410
    Total Energy =                       -287.2249148765841369

Computation Completed

Properties will be evaluated at   0.000000,   0.000000,   0.000000 [a0]

Properties computed using the SCF density matrix

  Nuclear Dipole Moment: [e a0]
     X:     8.6272      Y:    -3.5778      Z:    -1.6824

  Electronic Dipole Moment: [e a0]
     X:    -8.0404      Y:     2.6829      Z:     2.8498

  Dipole Moment: [e a0]
     X:     0.5868      Y:    -0.8949      Z:     1.1674     Total:     1.5837

  Dipole Moment: [D]
     X:     1.4916      Y:    -2.2747      Z:     2.9672     Total:     4.0253

*** tstop() called on ds3 at Tue Apr 28 11:48:36 2020
Module time:
	user time   =      16.96 seconds =       0.28 minutes
	system time =       6.33 seconds =       0.11 minutes
	total time  =         31 seconds =       0.52 minutes
Total time:
	user time   =      16.96 seconds =       0.28 minutes
	system time =       6.33 seconds =       0.11 minutes
	total time  =         31 seconds =       0.52 minutes
                                     G D M A

                                 by Anthony Stone

                           version 2.2.06, 22 June 2011

               Distributed Multipoles from Gaussian wavefunctions

Starting at 11:48:36 on 28 Apr 2020

Using SCF density matrix from file ./SSI/SSI-069ASN-119VAL-1-dimer.test.1521.fchk

                         Distributed Multipole Analysis

Standard DMA

Positions and radii in angstrom
Multipole moments in atomic units, ea_0^k for rank k

C          x = -0.213600  y =  1.360536  z =  1.716298 angstrom
           Maximum rank =  0   Radius =  0.650 angstrom
                   Q00  =  -0.260427

C          x = -1.008600  y =  0.504536  z =  0.771298 angstrom
           Maximum rank =  0   Radius =  0.650 angstrom
                   Q00  =   0.822378

O          x = -1.618600  y =  1.019536  z = -0.140702 angstrom
           Maximum rank =  0   Radius =  0.650 angstrom
                   Q00  =  -0.779570

N          x = -1.035600  y = -0.811464  z =  0.973298 angstrom
           Maximum rank =  0   Radius =  0.650 angstrom
                   Q00  =  -0.541565

H          x =  0.744400  y =  1.586536  z =  1.249298 angstrom
           Maximum rank =  0   Radius =  0.325 angstrom
                   Q00  =   0.130312

H          x = -0.005600  y =  0.796536  z =  2.626298 angstrom
           Maximum rank =  0   Radius =  0.325 angstrom
                   Q00  =   0.070808

H          x = -1.624600  y = -1.368464  z =  0.374298 angstrom
           Maximum rank =  0   Radius =  0.325 angstrom
                   Q00  =   0.224960

H          x = -0.548600  y = -1.225464  z =  1.753298 angstrom
           Maximum rank =  0   Radius =  0.325 angstrom
                   Q00  =   0.205550

H          x = -0.734600  y =  2.288820  z =  1.993504 angstrom
           Maximum rank =  0   Radius =  0.325 angstrom
                   Q00  =   0.134714

C          x =  1.263400  y = -0.622464  z = -1.848702 angstrom
           Maximum rank =  0   Radius =  0.650 angstrom
                   Q00  =  -0.225190

C          x =  2.551400  y = -1.333464  z = -1.436702 angstrom
           Maximum rank =  0   Radius =  0.650 angstrom
                   Q00  =  -0.240684

H          x =  1.000400  y = -0.918464  z = -2.862702 angstrom
           Maximum rank =  0   Radius =  0.325 angstrom
                   Q00  =   0.078194

H          x =  0.450400  y = -0.915464  z = -1.190702 angstrom
           Maximum rank =  0   Radius =  0.325 angstrom
                   Q00  =   0.079533

H          x =  1.381400  y =  0.458536  z = -1.776702 angstrom
           Maximum rank =  0   Radius =  0.325 angstrom
                   Q00  =   0.078808

H          x =  2.893400  y = -0.899464  z = -0.497702 angstrom
           Maximum rank =  0   Radius =  0.325 angstrom
                   Q00  =   0.068466

H          x =  3.344650  y = -1.234928  z = -2.192379 angstrom
           Maximum rank =  0   Radius =  0.325 angstrom
                   Q00  =   0.082881

H          x =  2.306480  y = -2.392404  z = -1.267416 angstrom
           Maximum rank =  0   Radius =  0.325 angstrom
                   Q00  =   0.070834

Total multipoles referred to origin at
           x =   0.000000,  y =    0.000000,  z =    0.000000 angstrom
                   Q00  =   0.000000

Finished at 11:48:36 on 28 Apr 2020

  DMA results are available in the Python driver through the
	  variable('DMA DISTRIBUTED MULTIPOLES')
  and
	  variable('DMA TOTAL MULTIPOLES')
  commands.

    Psi4 stopped on: Tuesday, 28 April 2020 11:48AM
    Psi4 wall time for execution: 0:00:31.03

*** Psi4 exiting successfully. Buy a developer a beer!
