                               Psi4 1.3.2 release

  ==> Input File <==

--------------------------------------------------------------------------
import numpy as np
set {scf_type pk
basis cc-pvdz
d_convergence 10
gdma_switch   0
gdma_limit    0
gdma_origin   [ 0.0,  0.0,  0.0 ]
}
molecule test {
    units Angstrom
    0 1
    --
    0 1
    C                0.135190399469072     0.126529729041671     1.654830187569870
    C               -1.220809600530928    -0.597470270958329     1.470830187569870
    C               -0.108809600530928     1.313529729041671     2.585830187569869
    H                0.464190399469072     0.507529729041671     0.688830187569870
    H                0.890190399469072    -0.549470270958329     2.057830187569870
    H               -1.339809600530928    -0.917470270958329     0.435830187569870
    H               -1.289809600530928    -1.450470270958329     2.146830187569870
    H                0.512190399469072     2.170529729041671     2.317830187569870
    H                0.131190399469072     0.986529729041671     3.594830187569870
    H               -1.959730600530928     0.165379729041671     1.757270187569870
    H               -1.185476600530928     1.532619729041671     2.533050187569870
    C                0.429190399469072    -0.405470270958329    -2.069169812430130
    C                0.775190399469072    -0.433470270958329    -3.538169812430130
    H               -0.441809600530928    -1.025470270958329    -1.870169812430130
    H                1.262190399469072    -0.806470270958329    -1.492169812430130
    H                0.231190399469072     0.616529729041671    -1.742169812430130
    H                0.914190399469072    -1.462470270958329    -3.856169812430130
    H               -0.018762920530928     0.069149729041671    -4.110019812430131
    H                1.711569399469072     0.120109729041671    -3.701709812430130

}
e, wfn = energy('scf', return_wfn=True)
gdma(wfn)
dmavals = variable('DMA DISTRIBUTED MULTIPOLES')
charges = np.array(dmavals)
print(charges)
np.save('SSI-018PRO-139LEU-1-dimer.npy', np.array(charges))--------------------------------------------------------------------------

*** tstart() called on ds3
*** at Mon Apr 27 06:30:04 2020

   => Loading Basis Set <=

    Name: CC-PVDZ
    Role: ORBITAL
    Keyword: BASIS
    atoms 1-3, 12-13  entry C          line   138 file /theoryfs2/ds/metcalf/miniconda2/envs/tf2gpu/share/psi4/basis/cc-pvdz.gbs
    atoms 4-11, 14-19 entry H          line    22 file /theoryfs2/ds/metcalf/miniconda2/envs/tf2gpu/share/psi4/basis/cc-pvdz.gbs

         ---------------------------------------------------------
                                   SCF
               by Justin Turney, Rob Parrish, Andy Simmonett
                          and Daniel G. A. Smith
                              RHF Reference
                        1 Threads,    500 MiB Core
         ---------------------------------------------------------

  ==> Geometry <==

    Molecular point group: c1
    Full point group: C1

    Geometry (in Angstrom), charge = 0, multiplicity = 1:

       Center              X                  Y                   Z               Mass
    ------------   -----------------  -----------------  -----------------  -----------------
         C            0.135190399469     0.126529729042     1.654830187570    12.000000000000
         C           -1.220809600531    -0.597470270958     1.470830187570    12.000000000000
         C           -0.108809600531     1.313529729042     2.585830187570    12.000000000000
         H            0.464190399469     0.507529729042     0.688830187570     1.007825032230
         H            0.890190399469    -0.549470270958     2.057830187570     1.007825032230
         H           -1.339809600531    -0.917470270958     0.435830187570     1.007825032230
         H           -1.289809600531    -1.450470270958     2.146830187570     1.007825032230
         H            0.512190399469     2.170529729042     2.317830187570     1.007825032230
         H            0.131190399469     0.986529729042     3.594830187570     1.007825032230
         H           -1.959730600531     0.165379729042     1.757270187570     1.007825032230
         H           -1.185476600531     1.532619729042     2.533050187570     1.007825032230
         C            0.429190399469    -0.405470270958    -2.069169812430    12.000000000000
         C            0.775190399469    -0.433470270958    -3.538169812430    12.000000000000
         H           -0.441809600531    -1.025470270958    -1.870169812430     1.007825032230
         H            1.262190399469    -0.806470270958    -1.492169812430     1.007825032230
         H            0.231190399469     0.616529729042    -1.742169812430     1.007825032230
         H            0.914190399469    -1.462470270958    -3.856169812430     1.007825032230
         H           -0.018762920531     0.069149729042    -4.110019812430     1.007825032230
         H            1.711569399469     0.120109729042    -3.701709812430     1.007825032230

  Running in c1 symmetry.

  Rotational constants: A =      0.28926  B =      0.03544  C =      0.03310 [cm^-1]
  Rotational constants: A =   8671.91367  B =   1062.47561  C =    992.24041 [MHz]
  Nuclear repulsion =  177.284674075065851

  Charge       = 0
  Multiplicity = 1
  Electrons    = 44
  Nalpha       = 22
  Nbeta        = 22

  ==> Algorithm <==

  SCF Algorithm Type is PK.
  DIIS enabled.
  MOM disabled.
  Fractional occupation disabled.
  Guess Type is SAD.
  Energy threshold   = 1.00e-06
  Density threshold  = 1.00e-10
  Integral threshold = 0.00e+00

  ==> Primary Basis <==

  Basis Set: CC-PVDZ
    Blend: CC-PVDZ
    Number of shells: 72
    Number of basis function: 140
    Number of Cartesian functions: 145
    Spherical Harmonics?: true
    Max angular momentum: 2

  ==> Pre-Iterations <==

   -------------------------------------------------------
    Irrep   Nso     Nmo     Nalpha   Nbeta   Ndocc  Nsocc
   -------------------------------------------------------
     A        140     140       0       0       0       0
   -------------------------------------------------------
    Total     140     140      22      22      22       0
   -------------------------------------------------------

  ==> Integral Setup <==

  Using integral reordering PK algorithm.
  Sizing the integral batches needed.
  Building batch lookup table.
   Calculation information:
      Number of atoms:                  19
      Number of AO shells:              72
      Number of primitives:            180
      Number of atomic orbitals:       145
      Number of basis functions:       140

      Integral cutoff                 1.00e-12
      Number of threads:                 1

	Batch   1 pq = [       0,    9405] index = [             0,44231715] size =     44231715
	Batch   2 pq = [    9405,    9870] index = [      44231715,48713385] size =      4481670
  Task number: 5
  Buffer size: 11059200
  Buffer per thread: 2
  We computed 2750555 shell quartets total.
  Whereas there are 3454506 unique shell quartets.

  ==> DiskJK: Disk-Based J/K Matrices <==

    J tasked:                  Yes
    K tasked:                  Yes
    wK tasked:                  No
    Memory [MiB]:              375
    Schwarz Cutoff:          1E-12

    OpenMP threads:              1

  Minimum eigenvalue in the overlap matrix is 5.0048920843E-03.
  Using Symmetric Orthogonalization.

  SCF Guess: Superposition of Atomic Densities via on-the-fly atomic UHF.

  ==> Iterations <==

                        Total Energy        Delta E     RMS |[F,P]|

   @RHF iter SAD:  -196.44985697576828   -1.96450e+02   0.00000e+00
   @RHF iter   1:  -197.29422563996988   -8.44369e-01   3.83057e-03 DIIS
   @RHF iter   2:  -197.45510320165874   -1.60878e-01   1.64909e-03 DIIS
   @RHF iter   3:  -197.48378321351277   -2.86800e-02   3.25996e-04 DIIS
   @RHF iter   4:  -197.48597874608507   -2.19553e-03   4.83981e-05 DIIS
   @RHF iter   5:  -197.48601794672118   -3.92006e-05   1.49416e-05 DIIS
   @RHF iter   6:  -197.48602139740183   -3.45068e-06   2.57342e-06 DIIS
   @RHF iter   7:  -197.48602151766877   -1.20267e-07   4.89882e-07 DIIS
   @RHF iter   8:  -197.48602152271053   -5.04176e-09   1.19958e-07 DIIS
   @RHF iter   9:  -197.48602152300671   -2.96183e-10   3.90841e-08 DIIS
   @RHF iter  10:  -197.48602152304198   -3.52713e-11   8.52021e-09 DIIS
   @RHF iter  11:  -197.48602152304332   -1.33582e-12   1.60937e-09 DIIS
   @RHF iter  12:  -197.48602152304278    5.40012e-13   3.11111e-10 DIIS
   @RHF iter  13:  -197.48602152304275    2.84217e-14   6.65758e-11 DIIS
  Energy and wave function converged.

  ==> Post-Iterations <==

    Orbital Energies [Eh]
    ---------------------

    Doubly Occupied:

       1A    -11.218209     2A    -11.215921     3A    -11.214961
       4A    -11.213172     5A    -11.212432     6A     -1.054639
       7A     -1.024555     8A     -0.915272     9A     -0.836240
      10A     -0.796334    11A     -0.626987    12A     -0.610522
      13A     -0.605234    14A     -0.598567    15A     -0.541830
      16A     -0.516972    17A     -0.503955    18A     -0.489551
      19A     -0.482823    20A     -0.477023    21A     -0.461401
      22A     -0.456961

    Virtual:

      23A      0.176159    24A      0.194021    25A      0.220271
      26A      0.225979    27A      0.226589    28A      0.245588
      29A      0.251474    30A      0.269723    31A      0.278817
      32A      0.282089    33A      0.298856    34A      0.319170
      35A      0.339822    36A      0.358621    37A      0.387603
      38A      0.409598    39A      0.449177    40A      0.557646
      41A      0.586312    42A      0.596519    43A      0.606339
      44A      0.612238    45A      0.635917    46A      0.677860
      47A      0.687099    48A      0.707773    49A      0.732413
      50A      0.778006    51A      0.790775    52A      0.842024
      53A      0.849886    54A      0.880412    55A      0.890118
      56A      0.892667    57A      0.898321    58A      0.901035
      59A      0.903714    60A      0.909958    61A      0.917874
      62A      0.927191    63A      0.936355    64A      0.941148
      65A      0.950752    66A      0.966109    67A      0.982473
      68A      1.008347    69A      1.068014    70A      1.088648
      71A      1.124407    72A      1.160812    73A      1.215438
      74A      1.238906    75A      1.421970    76A      1.474917
      77A      1.484056    78A      1.490068    79A      1.502741
      80A      1.581457    81A      1.599725    82A      1.619560
      83A      1.643513    84A      1.676938    85A      1.693354
      86A      1.713583    87A      1.716600    88A      1.794747
      89A      1.850666    90A      1.859636    91A      1.874349
      92A      1.878562    93A      1.911550    94A      1.927106
      95A      1.934406    96A      1.939285    97A      1.941188
      98A      1.951121    99A      1.952404   100A      1.961221
     101A      1.963013   102A      1.978704   103A      1.986838
     104A      1.997803   105A      2.024244   106A      2.054971
     107A      2.091401   108A      2.107587   109A      2.117400
     110A      2.159658   111A      2.226899   112A      2.280862
     113A      2.304158   114A      2.313740   115A      2.349377
     116A      2.369855   117A      2.423255   118A      2.429597
     119A      2.459381   120A      2.470177   121A      2.479335
     122A      2.558559   123A      2.569734   124A      2.574882
     125A      2.642134   126A      2.708216   127A      2.758840
     128A      2.775086   129A      2.789580   130A      2.792702
     131A      2.797044   132A      2.835133   133A      2.840087
     134A      2.850002   135A      2.870172   136A      2.884989
     137A      2.933450   138A      2.952375   139A      2.964557
     140A      3.048373

    Final Occupation by Irrep:
              A
    DOCC [    22 ]

  @RHF Final Energy:  -197.48602152304275

   => Energetics <=

    Nuclear Repulsion Energy =            177.2846740750658512
    One-Electron Energy =                -615.3942679199919894
    Two-Electron Energy =                 240.6235723218834153
    Total Energy =                       -197.4860215230427514

Computation Completed

Properties will be evaluated at   0.000000,   0.000000,   0.000000 [a0]

Properties computed using the SCF density matrix

  Nuclear Dipole Moment: [e a0]
     X:    -0.1111      Y:    -0.0407      Z:    -1.1626

  Electronic Dipole Moment: [e a0]
     X:     0.1583      Y:     0.0182      Z:     1.1302

  Dipole Moment: [e a0]
     X:     0.0472      Y:    -0.0225      Z:    -0.0324     Total:     0.0615

  Dipole Moment: [D]
     X:     0.1199      Y:    -0.0573      Z:    -0.0823     Total:     0.1563

*** tstop() called on ds3 at Mon Apr 27 06:30:48 2020
Module time:
	user time   =      13.88 seconds =       0.23 minutes
	system time =       5.51 seconds =       0.09 minutes
	total time  =         44 seconds =       0.73 minutes
Total time:
	user time   =      13.88 seconds =       0.23 minutes
	system time =       5.51 seconds =       0.09 minutes
	total time  =         44 seconds =       0.73 minutes
                                     G D M A

                                 by Anthony Stone

                           version 2.2.06, 22 June 2011

               Distributed Multipoles from Gaussian wavefunctions

Starting at 6:30:48 on 27 Apr 2020

Using SCF density matrix from file ./SSI/SSI-018PRO-139LEU-1-dimer.test.4470.fchk

                         Distributed Multipole Analysis

Standard DMA

Positions and radii in angstrom
Multipole moments in atomic units, ea_0^k for rank k

C          x =  0.135190  y =  0.126530  z =  1.654830 angstrom
           Maximum rank =  0   Radius =  0.650 angstrom
                   Q00  =  -0.128697

C          x = -1.220810  y = -0.597470  z =  1.470830 angstrom
           Maximum rank =  0   Radius =  0.650 angstrom
                   Q00  =  -0.236204

C          x = -0.108810  y =  1.313530  z =  2.585830 angstrom
           Maximum rank =  0   Radius =  0.650 angstrom
                   Q00  =  -0.218033

H          x =  0.464190  y =  0.507530  z =  0.688830 angstrom
           Maximum rank =  0   Radius =  0.325 angstrom
                   Q00  =   0.061050

H          x =  0.890190  y = -0.549470  z =  2.057830 angstrom
           Maximum rank =  0   Radius =  0.325 angstrom
                   Q00  =   0.058634

H          x = -1.339810  y = -0.917470  z =  0.435830 angstrom
           Maximum rank =  0   Radius =  0.325 angstrom
                   Q00  =   0.093811

H          x = -1.289810  y = -1.450470  z =  2.146830 angstrom
           Maximum rank =  0   Radius =  0.325 angstrom
                   Q00  =   0.080962

H          x =  0.512190  y =  2.170530  z =  2.317830 angstrom
           Maximum rank =  0   Radius =  0.325 angstrom
                   Q00  =   0.082834

H          x =  0.131190  y =  0.986530  z =  3.594830 angstrom
           Maximum rank =  0   Radius =  0.325 angstrom
                   Q00  =   0.081349

H          x = -1.959731  y =  0.165380  z =  1.757270 angstrom
           Maximum rank =  0   Radius =  0.325 angstrom
                   Q00  =   0.064460

H          x = -1.185477  y =  1.532620  z =  2.533050 angstrom
           Maximum rank =  0   Radius =  0.325 angstrom
                   Q00  =   0.058795

C          x =  0.429190  y = -0.405470  z = -2.069170 angstrom
           Maximum rank =  0   Radius =  0.650 angstrom
                   Q00  =  -0.235994

C          x =  0.775190  y = -0.433470  z = -3.538170 angstrom
           Maximum rank =  0   Radius =  0.650 angstrom
                   Q00  =  -0.228995

H          x = -0.441810  y = -1.025470  z = -1.870170 angstrom
           Maximum rank =  0   Radius =  0.325 angstrom
                   Q00  =   0.078905

H          x =  1.262190  y = -0.806470  z = -1.492170 angstrom
           Maximum rank =  0   Radius =  0.325 angstrom
                   Q00  =   0.076508

H          x =  0.231190  y =  0.616530  z = -1.742170 angstrom
           Maximum rank =  0   Radius =  0.325 angstrom
                   Q00  =   0.075893

H          x =  0.914190  y = -1.462470  z = -3.856170 angstrom
           Maximum rank =  0   Radius =  0.325 angstrom
                   Q00  =   0.081929

H          x = -0.018763  y =  0.069150  z = -4.110020 angstrom
           Maximum rank =  0   Radius =  0.325 angstrom
                   Q00  =   0.077396

H          x =  1.711569  y =  0.120110  z = -3.701710 angstrom
           Maximum rank =  0   Radius =  0.325 angstrom
                   Q00  =   0.075399

Total multipoles referred to origin at
           x =   0.000000,  y =    0.000000,  z =    0.000000 angstrom
                   Q00  =  -0.000000

Finished at 6:30:48 on 27 Apr 2020

  DMA results are available in the Python driver through the
	  variable('DMA DISTRIBUTED MULTIPOLES')
  and
	  variable('DMA TOTAL MULTIPOLES')
  commands.

    Psi4 stopped on: Monday, 27 April 2020 06:30AM
    Psi4 wall time for execution: 0:00:44.64

*** Psi4 exiting successfully. Buy a developer a beer!
