                               Psi4 1.3.2 release

  ==> Input File <==

--------------------------------------------------------------------------
import numpy as np
set {scf_type pk
basis cc-pvdz
d_convergence 10
gdma_switch   0
gdma_limit    0
gdma_origin   [ 0.0,  0.0,  0.0 ]
}
molecule test {
    units Angstrom
    0 1
    --
    0 1
    C               -0.017233430549458     1.079556286993964     1.923602184957164
    C                0.085766569450542     0.919556286993964     3.435602184957163
    H               -1.043233430549458     1.294556286993964     1.628602184957164
    H                0.623766569450542     1.898556286993964     1.596602184957164
    H                0.331766569450542     0.165556286993964     1.448602184957164
    H                1.092766569450542     0.572556286993964     3.668602184957163
    H               -0.645583430549458     0.191776286993964     3.816992184957164
    H               -0.062833430549458     1.891636286993964     3.928532184957163
    C                0.241766569450542    -0.207443713006036    -1.646397815042836
    C               -1.176233430549458    -0.191443713006036    -2.259397815042837
    C                0.875766569450542    -1.614443713006036    -1.560397815042836
    H                0.888766569450542     0.396556286993964    -2.280397815042837
    H                0.206766569450542     0.244556286993964    -0.662397815042836
    H               -1.806233430549458    -0.891443713006036    -1.706397815042836
    H               -1.114233430549458    -0.538443713006036    -3.292397815042837
    H                0.291766569450542    -2.234443713006036    -0.877397815042836
    H                0.858766569450542    -2.072443713006036    -2.551397815042836
    H               -1.655173430549458     0.798516286993964    -2.235167815042837
    H                1.915846569450542    -1.548193713006036    -1.208477815042836

}
e, wfn = energy('scf', return_wfn=True)
gdma(wfn)
dmavals = variable('DMA DISTRIBUTED MULTIPOLES')
charges = np.array(dmavals)
print(charges)
np.save('SSI-079VAL-087LYS-1-dimer.npy', np.array(charges))--------------------------------------------------------------------------

*** tstart() called on ds3
*** at Sun Apr 26 21:05:19 2020

   => Loading Basis Set <=

    Name: CC-PVDZ
    Role: ORBITAL
    Keyword: BASIS
    atoms 1-2, 9-11  entry C          line   138 file /theoryfs2/ds/metcalf/miniconda2/envs/tf2gpu/share/psi4/basis/cc-pvdz.gbs
    atoms 3-8, 12-19 entry H          line    22 file /theoryfs2/ds/metcalf/miniconda2/envs/tf2gpu/share/psi4/basis/cc-pvdz.gbs

         ---------------------------------------------------------
                                   SCF
               by Justin Turney, Rob Parrish, Andy Simmonett
                          and Daniel G. A. Smith
                              RHF Reference
                        1 Threads,    500 MiB Core
         ---------------------------------------------------------

  ==> Geometry <==

    Molecular point group: c1
    Full point group: C1

    Geometry (in Angstrom), charge = 0, multiplicity = 1:

       Center              X                  Y                   Z               Mass
    ------------   -----------------  -----------------  -----------------  -----------------
         C           -0.017233430549     1.079556286994     1.923602184957    12.000000000000
         C            0.085766569451     0.919556286994     3.435602184957    12.000000000000
         H           -1.043233430549     1.294556286994     1.628602184957     1.007825032230
         H            0.623766569451     1.898556286994     1.596602184957     1.007825032230
         H            0.331766569451     0.165556286994     1.448602184957     1.007825032230
         H            1.092766569451     0.572556286994     3.668602184957     1.007825032230
         H           -0.645583430549     0.191776286994     3.816992184957     1.007825032230
         H           -0.062833430549     1.891636286994     3.928532184957     1.007825032230
         C            0.241766569451    -0.207443713006    -1.646397815043    12.000000000000
         C           -1.176233430549    -0.191443713006    -2.259397815043    12.000000000000
         C            0.875766569451    -1.614443713006    -1.560397815043    12.000000000000
         H            0.888766569451     0.396556286994    -2.280397815043     1.007825032230
         H            0.206766569451     0.244556286994    -0.662397815043     1.007825032230
         H           -1.806233430549    -0.891443713006    -1.706397815043     1.007825032230
         H           -1.114233430549    -0.538443713006    -3.292397815043     1.007825032230
         H            0.291766569451    -2.234443713006    -0.877397815043     1.007825032230
         H            0.858766569451    -2.072443713006    -2.551397815043     1.007825032230
         H           -1.655173430549     0.798516286994    -2.235167815043     1.007825032230
         H            1.915846569451    -1.548193713006    -1.208477815043     1.007825032230

  Running in c1 symmetry.

  Rotational constants: A =      0.22124  B =      0.03714  C =      0.03365 [cm^-1]
  Rotational constants: A =   6632.67777  B =   1113.40624  C =   1008.91830 [MHz]
  Nuclear repulsion =  175.594116219738055

  Charge       = 0
  Multiplicity = 1
  Electrons    = 44
  Nalpha       = 22
  Nbeta        = 22

  ==> Algorithm <==

  SCF Algorithm Type is PK.
  DIIS enabled.
  MOM disabled.
  Fractional occupation disabled.
  Guess Type is SAD.
  Energy threshold   = 1.00e-06
  Density threshold  = 1.00e-10
  Integral threshold = 0.00e+00

  ==> Primary Basis <==

  Basis Set: CC-PVDZ
    Blend: CC-PVDZ
    Number of shells: 72
    Number of basis function: 140
    Number of Cartesian functions: 145
    Spherical Harmonics?: true
    Max angular momentum: 2

  ==> Pre-Iterations <==

   -------------------------------------------------------
    Irrep   Nso     Nmo     Nalpha   Nbeta   Ndocc  Nsocc
   -------------------------------------------------------
     A        140     140       0       0       0       0
   -------------------------------------------------------
    Total     140     140      22      22      22       0
   -------------------------------------------------------

  ==> Integral Setup <==

  Using integral reordering PK algorithm.
  Sizing the integral batches needed.
  Building batch lookup table.
   Calculation information:
      Number of atoms:                  19
      Number of AO shells:              72
      Number of primitives:            180
      Number of atomic orbitals:       145
      Number of basis functions:       140

      Integral cutoff                 1.00e-12
      Number of threads:                 1

	Batch   1 pq = [       0,    9405] index = [             0,44231715] size =     44231715
	Batch   2 pq = [    9405,    9870] index = [      44231715,48713385] size =      4481670
  Task number: 5
  Buffer size: 11059200
  Buffer per thread: 2
  We computed 2776823 shell quartets total.
  Whereas there are 3454506 unique shell quartets.

  ==> DiskJK: Disk-Based J/K Matrices <==

    J tasked:                  Yes
    K tasked:                  Yes
    wK tasked:                  No
    Memory [MiB]:              375
    Schwarz Cutoff:          1E-12

    OpenMP threads:              1

  Minimum eigenvalue in the overlap matrix is 5.3612614949E-03.
  Using Symmetric Orthogonalization.

  SCF Guess: Superposition of Atomic Densities via on-the-fly atomic UHF.

  ==> Iterations <==

                        Total Energy        Delta E     RMS |[F,P]|

   @RHF iter SAD:  -196.32347422237103   -1.96323e+02   0.00000e+00
   @RHF iter   1:  -197.31443914209044   -9.90965e-01   3.76439e-03 DIIS
   @RHF iter   2:  -197.47239046699306   -1.57951e-01   1.60479e-03 DIIS
   @RHF iter   3:  -197.49970594531391   -2.73155e-02   3.23386e-04 DIIS
   @RHF iter   4:  -197.50190792950519   -2.20198e-03   4.71086e-05 DIIS
   @RHF iter   5:  -197.50194588648827   -3.79570e-05   1.45364e-05 DIIS
   @RHF iter   6:  -197.50194916003724   -3.27355e-06   2.51478e-06 DIIS
   @RHF iter   7:  -197.50194927492271   -1.14885e-07   4.84933e-07 DIIS
   @RHF iter   8:  -197.50194928016845   -5.24574e-09   1.29016e-07 DIIS
   @RHF iter   9:  -197.50194928051326   -3.44812e-10   4.17313e-08 DIIS
   @RHF iter  10:  -197.50194928055379   -4.05294e-11   8.77622e-09 DIIS
   @RHF iter  11:  -197.50194928055518   -1.39266e-12   1.60055e-09 DIIS
   @RHF iter  12:  -197.50194928055510    8.52651e-14   2.79536e-10 DIIS
   @RHF iter  13:  -197.50194928055646   -1.36424e-12   4.94610e-11 DIIS
  Energy and wave function converged.

  ==> Post-Iterations <==

    Orbital Energies [Eh]
    ---------------------

    Doubly Occupied:

       1A    -11.219403     2A    -11.218687     3A    -11.218138
       4A    -11.217189     5A    -11.216916     6A     -1.046591
       7A     -1.020753     8A     -0.922466     9A     -0.837773
      10A     -0.796805    11A     -0.624888    12A     -0.601186
      13A     -0.598392    14A     -0.591665    15A     -0.544233
      16A     -0.531419    17A     -0.504043    18A     -0.488005
      19A     -0.486782    20A     -0.473549    21A     -0.465296
      22A     -0.462111

    Virtual:

      23A      0.170942    24A      0.194635    25A      0.214947
      26A      0.230425    27A      0.235068    28A      0.253920
      29A      0.259252    30A      0.262446    31A      0.269889
      32A      0.288230    33A      0.291330    34A      0.304359
      35A      0.306389    36A      0.327408    37A      0.369893
      38A      0.420220    39A      0.428532    40A      0.572469
      41A      0.589766    42A      0.598994    43A      0.613597
      44A      0.616291    45A      0.625167    46A      0.635366
      47A      0.669060    48A      0.694856    49A      0.720034
      50A      0.792653    51A      0.810937    52A      0.841389
      53A      0.866675    54A      0.880376    55A      0.887436
      56A      0.892454    57A      0.893846    58A      0.896985
      59A      0.902169    60A      0.904886    61A      0.911828
      62A      0.913779    63A      0.925230    64A      0.933560
      65A      0.941316    66A      0.973347    67A      1.004175
      68A      1.051668    69A      1.117641    70A      1.124330
      71A      1.127084    72A      1.142590    73A      1.220239
      74A      1.314278    75A      1.359409    76A      1.468929
      77A      1.471558    78A      1.484260    79A      1.494258
      80A      1.521731    81A      1.583298    82A      1.637151
      83A      1.671240    84A      1.680379    85A      1.685871
      86A      1.691768    87A      1.700256    88A      1.835035
      89A      1.856966    90A      1.867524    91A      1.869663
      92A      1.889234    93A      1.911737    94A      1.926070
      95A      1.931501    96A      1.940964    97A      1.943103
      98A      1.945733    99A      1.952181   100A      1.961842
     101A      1.964283   102A      1.969889   103A      1.989716
     104A      1.991301   105A      2.008552   106A      2.017929
     107A      2.067319   108A      2.112585   109A      2.116724
     110A      2.126575   111A      2.169997   112A      2.285452
     113A      2.294232   114A      2.302736   115A      2.317633
     116A      2.322918   117A      2.347642   118A      2.450628
     119A      2.462658   120A      2.493346   121A      2.535735
     122A      2.565962   123A      2.581240   124A      2.586389
     125A      2.609038   126A      2.630628   127A      2.752446
     128A      2.759839   129A      2.765138   130A      2.786599
     131A      2.796839   132A      2.803658   133A      2.848962
     134A      2.851182   135A      2.919222   136A      2.946891
     137A      2.949730   138A      2.961330   139A      2.976599
     140A      3.087236

    Final Occupation by Irrep:
              A
    DOCC [    22 ]

  @RHF Final Energy:  -197.50194928055646

   => Energetics <=

    Nuclear Repulsion Energy =            175.5941162197380550
    One-Electron Energy =                -612.0195539883329729
    Two-Electron Energy =                 238.9234884880384584
    Total Energy =                       -197.5019492805564596

Computation Completed

Properties will be evaluated at   0.000000,   0.000000,   0.000000 [a0]

Properties computed using the SCF density matrix

  Nuclear Dipole Moment: [e a0]
     X:    -0.1098      Y:     0.1587      Z:     1.1942

  Electronic Dipole Moment: [e a0]
     X:     0.1347      Y:    -0.1271      Z:    -1.1684

  Dipole Moment: [e a0]
     X:     0.0249      Y:     0.0316      Z:     0.0258     Total:     0.0478

  Dipole Moment: [D]
     X:     0.0634      Y:     0.0803      Z:     0.0656     Total:     0.1216

*** tstop() called on ds3 at Sun Apr 26 21:05:43 2020
Module time:
	user time   =      14.87 seconds =       0.25 minutes
	system time =       6.23 seconds =       0.10 minutes
	total time  =         24 seconds =       0.40 minutes
Total time:
	user time   =      14.87 seconds =       0.25 minutes
	system time =       6.23 seconds =       0.10 minutes
	total time  =         24 seconds =       0.40 minutes
                                     G D M A

                                 by Anthony Stone

                           version 2.2.06, 22 June 2011

               Distributed Multipoles from Gaussian wavefunctions

Starting at 21:5:43 on 26 Apr 2020

Using SCF density matrix from file ./SSI/SSI-079VAL-087LYS-1-dimer.test.10944.fchk

                         Distributed Multipole Analysis

Standard DMA

Positions and radii in angstrom
Multipole moments in atomic units, ea_0^k for rank k

C          x = -0.017233  y =  1.079556  z =  1.923602 angstrom
           Maximum rank =  0   Radius =  0.650 angstrom
                   Q00  =  -0.238976

C          x =  0.085767  y =  0.919556  z =  3.435602 angstrom
           Maximum rank =  0   Radius =  0.650 angstrom
                   Q00  =  -0.231477

H          x = -1.043233  y =  1.294556  z =  1.628602 angstrom
           Maximum rank =  0   Radius =  0.325 angstrom
                   Q00  =   0.080080

H          x =  0.623767  y =  1.898556  z =  1.596602 angstrom
           Maximum rank =  0   Radius =  0.325 angstrom
                   Q00  =   0.079190

H          x =  0.331767  y =  0.165556  z =  1.448602 angstrom
           Maximum rank =  0   Radius =  0.325 angstrom
                   Q00  =   0.076261

H          x =  1.092767  y =  0.572556  z =  3.668602 angstrom
           Maximum rank =  0   Radius =  0.325 angstrom
                   Q00  =   0.078228

H          x = -0.645583  y =  0.191776  z =  3.816992 angstrom
           Maximum rank =  0   Radius =  0.325 angstrom
                   Q00  =   0.081278

H          x = -0.062833  y =  1.891636  z =  3.928532 angstrom
           Maximum rank =  0   Radius =  0.325 angstrom
                   Q00  =   0.078452

C          x =  0.241767  y = -0.207444  z = -1.646398 angstrom
           Maximum rank =  0   Radius =  0.650 angstrom
                   Q00  =  -0.092244

C          x = -1.176233  y = -0.191444  z = -2.259398 angstrom
           Maximum rank =  0   Radius =  0.650 angstrom
                   Q00  =  -0.248819

C          x =  0.875767  y = -1.614444  z = -1.560398 angstrom
           Maximum rank =  0   Radius =  0.650 angstrom
                   Q00  =  -0.246793

H          x =  0.888767  y =  0.396556  z = -2.280398 angstrom
           Maximum rank =  0   Radius =  0.325 angstrom
                   Q00  =   0.043941

H          x =  0.206767  y =  0.244556  z = -0.662398 angstrom
           Maximum rank =  0   Radius =  0.325 angstrom
                   Q00  =   0.060129

H          x = -1.806233  y = -0.891444  z = -1.706398 angstrom
           Maximum rank =  0   Radius =  0.325 angstrom
                   Q00  =   0.073509

H          x = -1.114233  y = -0.538444  z = -3.292398 angstrom
           Maximum rank =  0   Radius =  0.325 angstrom
                   Q00  =   0.077561

H          x =  0.291767  y = -2.234444  z = -0.877398 angstrom
           Maximum rank =  0   Radius =  0.325 angstrom
                   Q00  =   0.076381

H          x =  0.858767  y = -2.072444  z = -2.551398 angstrom
           Maximum rank =  0   Radius =  0.325 angstrom
                   Q00  =   0.079275

H          x = -1.655173  y =  0.798516  z = -2.235168 angstrom
           Maximum rank =  0   Radius =  0.325 angstrom
                   Q00  =   0.088038

H          x =  1.915847  y = -1.548194  z = -1.208478 angstrom
           Maximum rank =  0   Radius =  0.325 angstrom
                   Q00  =   0.085987

Total multipoles referred to origin at
           x =   0.000000,  y =    0.000000,  z =    0.000000 angstrom
                   Q00  =  -0.000000

Finished at 21:5:43 on 26 Apr 2020

  DMA results are available in the Python driver through the
	  variable('DMA DISTRIBUTED MULTIPOLES')
  and
	  variable('DMA TOTAL MULTIPOLES')
  commands.

    Psi4 stopped on: Sunday, 26 April 2020 09:05PM
    Psi4 wall time for execution: 0:00:24.20

*** Psi4 exiting successfully. Buy a developer a beer!
