                               Psi4 1.3.2 release

  ==> Input File <==

--------------------------------------------------------------------------
import numpy as np
set {scf_type pk
basis cc-pvdz
d_convergence 10
gdma_switch   0
gdma_limit    0
gdma_origin   [ 0.0,  0.0,  0.0 ]
}
molecule test {
    units Angstrom
    -1 1
    --
    -1 1
    C               -0.619304506684949    -0.160031846509405    -2.740994077663586
    O                0.061695493315051     0.903968153490594    -2.083994077663587
    H                0.120695493315051     0.706968153490594    -1.122994077663587
    H               -1.048304506684949     0.212968153490595    -3.672994077663587
    H               -1.431304506684949    -0.517031846509405    -2.105994077663587
    H                0.058735493315051    -0.994371846509405    -2.973667977663587
    C                0.358695493315051    -0.305031846509405     2.705005922336413
    C                0.127695493315051    -0.201031846509405     1.216005922336413
    O                0.440695493315051     0.873968153490595     0.657005922336413
    O               -0.340304506684949    -1.179031846509405     0.581005922336413
    H                0.622695493315051     0.672968153490594     3.114005922336414
    H                1.203695493315051    -0.967031846509405     2.887005922336414
    H               -0.516064506684949    -0.688431846509405     3.250720922336414

}
e, wfn = energy('scf', return_wfn=True)
gdma(wfn)
dmavals = variable('DMA DISTRIBUTED MULTIPOLES')
charges = np.array(dmavals)
print(charges)
np.save('SSI-011SER-223GLU-1-dimer.npy', np.array(charges))--------------------------------------------------------------------------

*** tstart() called on ds3
*** at Tue Apr 28 13:54:34 2020

   => Loading Basis Set <=

    Name: CC-PVDZ
    Role: ORBITAL
    Keyword: BASIS
    atoms 1, 7-8     entry C          line   138 file /theoryfs2/ds/metcalf/miniconda2/envs/tf2gpu/share/psi4/basis/cc-pvdz.gbs
    atoms 2, 9-10    entry O          line   198 file /theoryfs2/ds/metcalf/miniconda2/envs/tf2gpu/share/psi4/basis/cc-pvdz.gbs
    atoms 3-6, 11-13 entry H          line    22 file /theoryfs2/ds/metcalf/miniconda2/envs/tf2gpu/share/psi4/basis/cc-pvdz.gbs

         ---------------------------------------------------------
                                   SCF
               by Justin Turney, Rob Parrish, Andy Simmonett
                          and Daniel G. A. Smith
                              RHF Reference
                        1 Threads,    500 MiB Core
         ---------------------------------------------------------

  ==> Geometry <==

    Molecular point group: c1
    Full point group: C1

    Geometry (in Angstrom), charge = -1, multiplicity = 1:

       Center              X                  Y                   Z               Mass
    ------------   -----------------  -----------------  -----------------  -----------------
         C           -0.619304506685    -0.160031846509    -2.740994077664    12.000000000000
         O            0.061695493315     0.903968153491    -2.083994077664    15.994914619570
         H            0.120695493315     0.706968153491    -1.122994077664     1.007825032230
         H           -1.048304506685     0.212968153491    -3.672994077664     1.007825032230
         H           -1.431304506685    -0.517031846509    -2.105994077664     1.007825032230
         H            0.058735493315    -0.994371846509    -2.973667977664     1.007825032230
         C            0.358695493315    -0.305031846509     2.705005922336    12.000000000000
         C            0.127695493315    -0.201031846509     1.216005922336    12.000000000000
         O            0.440695493315     0.873968153491     0.657005922336    15.994914619570
         O           -0.340304506685    -1.179031846509     0.581005922336    15.994914619570
         H            0.622695493315     0.672968153491     3.114005922336     1.007825032230
         H            1.203695493315    -0.967031846509     2.887005922336     1.007825032230
         H           -0.516064506685    -0.688431846509     3.250720922336     1.007825032230

  Running in c1 symmetry.

  Rotational constants: A =      0.28575  B =      0.04835  C =      0.04204 [cm^-1]
  Rotational constants: A =   8566.54800  B =   1449.38088  C =   1260.28567 [MHz]
  Nuclear repulsion =  231.385809526667543

  Charge       = -1
  Multiplicity = 1
  Electrons    = 50
  Nalpha       = 25
  Nbeta        = 25

  ==> Algorithm <==

  SCF Algorithm Type is PK.
  DIIS enabled.
  MOM disabled.
  Fractional occupation disabled.
  Guess Type is SAD.
  Energy threshold   = 1.00e-06
  Density threshold  = 1.00e-10
  Integral threshold = 0.00e+00

  ==> Primary Basis <==

  Basis Set: CC-PVDZ
    Blend: CC-PVDZ
    Number of shells: 57
    Number of basis function: 119
    Number of Cartesian functions: 125
    Spherical Harmonics?: true
    Max angular momentum: 2

  ==> Pre-Iterations <==

   -------------------------------------------------------
    Irrep   Nso     Nmo     Nalpha   Nbeta   Ndocc  Nsocc
   -------------------------------------------------------
     A        119     119       0       0       0       0
   -------------------------------------------------------
    Total     119     119      25      25      25       0
   -------------------------------------------------------

  ==> Integral Setup <==

  Using integral reordering PK algorithm.
  Sizing the integral batches needed.
  Building batch lookup table.
   Calculation information:
      Number of atoms:                  13
      Number of AO shells:              57
      Number of primitives:            167
      Number of atomic orbitals:       125
      Number of basis functions:       119

      Integral cutoff                 1.00e-12
      Number of threads:                 1

	Batch   1 pq = [       0,    7140] index = [             0,25493370] size =     25493370
  Task number: 3
  Buffer size: 11059200
  Buffer per thread: 2
  We computed 1133368 shell quartets total.
  Whereas there are 1367031 unique shell quartets.

  ==> DiskJK: Disk-Based J/K Matrices <==

    J tasked:                  Yes
    K tasked:                  Yes
    wK tasked:                  No
    Memory [MiB]:              375
    Schwarz Cutoff:          1E-12

    OpenMP threads:              1

  Minimum eigenvalue in the overlap matrix is 4.9376181939E-03.
  Using Symmetric Orthogonalization.

  SCF Guess: Superposition of Atomic Densities via on-the-fly atomic UHF.

  ==> Iterations <==

                        Total Energy        Delta E     RMS |[F,P]|

   @RHF iter SAD:  -340.63524709746849   -3.40635e+02   0.00000e+00
   @RHF iter   1:  -342.08302968566665   -1.44778e+00   5.97279e-03 DIIS
   @RHF iter   2:  -342.25560797180117   -1.72578e-01   3.42637e-03 DIIS
   @RHF iter   3:  -342.31342367373099   -5.78157e-02   4.71555e-04 DIIS
   @RHF iter   4:  -342.31552924638737   -2.10557e-03   1.67168e-04 DIIS
   @RHF iter   5:  -342.31581201172503   -2.82765e-04   3.50143e-05 DIIS
   @RHF iter   6:  -342.31582333624175   -1.13245e-05   1.36187e-05 DIIS
   @RHF iter   7:  -342.31582478892028   -1.45268e-06   3.56333e-06 DIIS
   @RHF iter   8:  -342.31582491772258   -1.28802e-07   1.09633e-06 DIIS
   @RHF iter   9:  -342.31582492811043   -1.03879e-08   3.68948e-07 DIIS
   @RHF iter  10:  -342.31582492983551   -1.72508e-09   7.30268e-08 DIIS
   @RHF iter  11:  -342.31582492993840   -1.02887e-10   1.98879e-08 DIIS
   @RHF iter  12:  -342.31582492994687   -8.46967e-12   7.81740e-09 DIIS
   @RHF iter  13:  -342.31582492994721   -3.41061e-13   2.64352e-09 DIIS
   @RHF iter  14:  -342.31582492994886   -1.64846e-12   1.01808e-09 DIIS
   @RHF iter  15:  -342.31582492995142   -2.55795e-12   3.73511e-10 DIIS
   @RHF iter  16:  -342.31582492994943    1.98952e-12   1.02102e-10 DIIS
   @RHF iter  17:  -342.31582492995028   -8.52651e-13   3.58144e-11 DIIS
  Energy and wave function converged.

  ==> Post-Iterations <==

    Orbital Energies [Eh]
    ---------------------

    Doubly Occupied:

       1A    -20.349166     2A    -20.286905     3A    -20.278419
       4A    -11.136820     5A    -11.111375     6A    -11.065297
       7A     -1.173899     8A     -1.148098     9A     -1.056739
      10A     -0.814615    11A     -0.750452    12A     -0.529413
      13A     -0.488740    14A     -0.442560    15A     -0.427854
      16A     -0.427419    17A     -0.425570    18A     -0.408631
      19A     -0.358072    20A     -0.324476    21A     -0.312833
      22A     -0.256941    23A     -0.207336    24A     -0.193005
      25A     -0.183803

    Virtual:

      26A      0.341678    27A      0.346897    28A      0.381004
      29A      0.405082    30A      0.407381    31A      0.427446
      32A      0.467440    33A      0.476370    34A      0.557861
      35A      0.602613    36A      0.681372    37A      0.736123
      38A      0.795232    39A      0.810172    40A      0.814344
      41A      0.864007    42A      0.896362    43A      0.930376
      44A      0.958135    45A      0.974678    46A      1.017119
      47A      1.021479    48A      1.023517    49A      1.048568
      50A      1.055468    51A      1.065918    52A      1.105951
      53A      1.119523    54A      1.203613    55A      1.296815
      56A      1.315725    57A      1.319920    58A      1.330747
      59A      1.347675    60A      1.425961    61A      1.465124
      62A      1.530644    63A      1.544675    64A      1.579697
      65A      1.603029    66A      1.607696    67A      1.631967
      68A      1.707274    69A      1.713163    70A      1.784659
      71A      1.822927    72A      1.831335    73A      1.834634
      74A      1.853011    75A      1.904485    76A      2.020130
      77A      2.040486    78A      2.055963    79A      2.070077
      80A      2.094763    81A      2.102310    82A      2.116331
      83A      2.135678    84A      2.200412    85A      2.247271
      86A      2.260607    87A      2.284483    88A      2.333345
      89A      2.373852    90A      2.431820    91A      2.483210
      92A      2.539683    93A      2.557602    94A      2.585722
      95A      2.638215    96A      2.660042    97A      2.768238
      98A      2.861179    99A      2.900691   100A      2.920275
     101A      2.927246   102A      2.944236   103A      2.954903
     104A      2.979941   105A      3.216945   106A      3.271348
     107A      3.293622   108A      3.399239   109A      3.489540
     110A      3.575629   111A      3.619235   112A      3.628128
     113A      3.760654   114A      3.798765   115A      3.805347
     116A      4.039654   117A      4.059365   118A      4.197350
     119A      4.327915

    Final Occupation by Irrep:
              A
    DOCC [    25 ]

  @RHF Final Energy:  -342.31582492995028

   => Energetics <=

    Nuclear Repulsion Energy =            231.3858095266675434
    One-Electron Energy =                -939.0863892177868593
    Two-Electron Energy =                 365.3847547611690061
    Total Energy =                       -342.3158249299502813

Computation Completed

Properties will be evaluated at   0.000000,   0.000000,   0.000000 [a0]

Properties computed using the SCF density matrix

  Nuclear Dipole Moment: [e a0]
     X:    -0.9272      Y:    -1.4727      Z:    -0.5890

  Electronic Dipole Moment: [e a0]
     X:     0.7400      Y:     1.1049      Z:     0.8569

  Dipole Moment: [e a0]
     X:    -0.1871      Y:    -0.3678      Z:     0.2679     Total:     0.4920

  Dipole Moment: [D]
     X:    -0.4757      Y:    -0.9349      Z:     0.6810     Total:     1.2506

*** tstop() called on ds3 at Tue Apr 28 13:54:57 2020
Module time:
	user time   =       9.72 seconds =       0.16 minutes
	system time =       3.82 seconds =       0.06 minutes
	total time  =         23 seconds =       0.38 minutes
Total time:
	user time   =       9.72 seconds =       0.16 minutes
	system time =       3.82 seconds =       0.06 minutes
	total time  =         23 seconds =       0.38 minutes
                                     G D M A

                                 by Anthony Stone

                           version 2.2.06, 22 June 2011

               Distributed Multipoles from Gaussian wavefunctions

Starting at 13:54:57 on 28 Apr 2020

Using SCF density matrix from file ./SSI/SSI-011SER-223GLU-1-dimer.test.29570.fchk

                         Distributed Multipole Analysis

Standard DMA

Positions and radii in angstrom
Multipole moments in atomic units, ea_0^k for rank k

C          x = -0.619305  y = -0.160032  z = -2.740994 angstrom
           Maximum rank =  0   Radius =  0.650 angstrom
                   Q00  =   0.004021

O          x =  0.061695  y =  0.903968  z = -2.083994 angstrom
           Maximum rank =  0   Radius =  0.650 angstrom
                   Q00  =  -0.686574

H          x =  0.120695  y =  0.706968  z = -1.122994 angstrom
           Maximum rank =  0   Radius =  0.325 angstrom
                   Q00  =   0.517807

H          x = -1.048305  y =  0.212968  z = -3.672994 angstrom
           Maximum rank =  0   Radius =  0.325 angstrom
                   Q00  =   0.035548

H          x = -1.431305  y = -0.517032  z = -2.105994 angstrom
           Maximum rank =  0   Radius =  0.325 angstrom
                   Q00  =   0.070389

H          x =  0.058735  y = -0.994372  z = -2.973668 angstrom
           Maximum rank =  0   Radius =  0.325 angstrom
                   Q00  =   0.036474

C          x =  0.358695  y = -0.305032  z =  2.705006 angstrom
           Maximum rank =  0   Radius =  0.650 angstrom
                   Q00  =  -0.256199

C          x =  0.127695  y = -0.201032  z =  1.216006 angstrom
           Maximum rank =  0   Radius =  0.650 angstrom
                   Q00  =   0.910706

O          x =  0.440695  y =  0.873968  z =  0.657006 angstrom
           Maximum rank =  0   Radius =  0.650 angstrom
                   Q00  =  -0.921515

O          x = -0.340305  y = -1.179032  z =  0.581006 angstrom
           Maximum rank =  0   Radius =  0.650 angstrom
                   Q00  =  -0.917775

H          x =  0.622695  y =  0.672968  z =  3.114006 angstrom
           Maximum rank =  0   Radius =  0.325 angstrom
                   Q00  =   0.061324

H          x =  1.203695  y = -0.967032  z =  2.887006 angstrom
           Maximum rank =  0   Radius =  0.325 angstrom
                   Q00  =   0.080768

H          x = -0.516065  y = -0.688432  z =  3.250721 angstrom
           Maximum rank =  0   Radius =  0.325 angstrom
                   Q00  =   0.065025

Total multipoles referred to origin at
           x =   0.000000,  y =    0.000000,  z =    0.000000 angstrom
                   Q00  =  -1.000000

Finished at 13:54:57 on 28 Apr 2020

  DMA results are available in the Python driver through the
	  variable('DMA DISTRIBUTED MULTIPOLES')
  and
	  variable('DMA TOTAL MULTIPOLES')
  commands.

    Psi4 stopped on: Tuesday, 28 April 2020 01:54PM
    Psi4 wall time for execution: 0:00:22.26

*** Psi4 exiting successfully. Buy a developer a beer!
