                               Psi4 1.3.2 release

  ==> Input File <==

--------------------------------------------------------------------------
import numpy as np
set {scf_type pk
basis cc-pvdz
d_convergence 10
gdma_switch   0
gdma_limit    0
gdma_origin   [ 0.0,  0.0,  0.0 ]
}
molecule test {
    units Angstrom
    0 1
    --
    0 1
    C               -1.655915031445185    -0.163684973301800    -2.747188779635149
    C               -1.307915031445185     0.093315026698200    -4.212188779635148
    H               -0.889915031445185    -0.777684973301800    -2.271188779635149
    H               -1.728915031445185     0.786315026698200    -2.217188779635149
    H               -2.614915031445185    -0.677684973301800    -2.679188779635149
    H               -2.058915031445185     0.763315026698200    -4.636188779635149
    H               -1.330705031445185    -0.862480973301800    -4.756186779635149
    H               -0.324855031445185     0.577971026698200    -4.305502779635148
    C                2.745084968554815    -1.378684973301800    -0.257188779635149
    C                0.665084968554815     0.053315026698200     0.486811220364851
    C                1.534084968554815    -1.073684973301800     0.584811220364851
    C               -0.355915031445185    -0.120684973301800     1.456811220364851
    C                1.033084968554815    -1.848684973301800     1.563811220364851
    C               -0.329915031445185     2.133315026698200    -0.116188779635149
    C               -1.343915031445185     1.941315026698200     0.822811220364851
    C                0.651084968554815     1.184315026698200    -0.328188779635149
    C               -1.356915031445185     0.811315026698200     1.655811220364851
    N               -0.083915031445185    -1.293684973301800     2.088811220364851
    H               -0.357915031445185     3.006315026698200    -0.741188779635149
    H               -2.119915031445185     2.688315026698200     0.928811220364851
    H                1.398084968554815     1.324315026698200    -1.095188779635149
    H               -2.121915031445185     0.661315026698200     2.403811220364851
    H                2.511084968554815    -1.089684973301800    -1.276188779635149
    H                2.896084968554816    -2.457684973301800    -0.260188779635149
    H                1.472084968554815    -2.782684973301800     1.895811220364851
    H               -0.563915031445185    -1.691684973301800     2.901811220364851
    H                3.691164968554816    -0.918935973301800     0.064635220364851

}
e, wfn = energy('scf', return_wfn=True)
gdma(wfn)
dmavals = variable('DMA DISTRIBUTED MULTIPOLES')
charges = np.array(dmavals)
print(charges)
np.save('SSI-066ALA-136TRP-1-dimer.npy', np.array(charges))--------------------------------------------------------------------------

*** tstart() called on ds3
*** at Mon Apr 27 12:50:49 2020

   => Loading Basis Set <=

    Name: CC-PVDZ
    Role: ORBITAL
    Keyword: BASIS
    atoms 1-2, 9-17  entry C          line   138 file /theoryfs2/ds/metcalf/miniconda2/envs/tf2gpu/share/psi4/basis/cc-pvdz.gbs
    atoms 3-8, 19-27 entry H          line    22 file /theoryfs2/ds/metcalf/miniconda2/envs/tf2gpu/share/psi4/basis/cc-pvdz.gbs
    atoms 18         entry N          line   168 file /theoryfs2/ds/metcalf/miniconda2/envs/tf2gpu/share/psi4/basis/cc-pvdz.gbs

         ---------------------------------------------------------
                                   SCF
               by Justin Turney, Rob Parrish, Andy Simmonett
                          and Daniel G. A. Smith
                              RHF Reference
                        1 Threads,    500 MiB Core
         ---------------------------------------------------------

  ==> Geometry <==

    Molecular point group: c1
    Full point group: C1

    Geometry (in Angstrom), charge = 0, multiplicity = 1:

       Center              X                  Y                   Z               Mass
    ------------   -----------------  -----------------  -----------------  -----------------
         C           -1.655915031445    -0.163684973302    -2.747188779635    12.000000000000
         C           -1.307915031445     0.093315026698    -4.212188779635    12.000000000000
         H           -0.889915031445    -0.777684973302    -2.271188779635     1.007825032230
         H           -1.728915031445     0.786315026698    -2.217188779635     1.007825032230
         H           -2.614915031445    -0.677684973302    -2.679188779635     1.007825032230
         H           -2.058915031445     0.763315026698    -4.636188779635     1.007825032230
         H           -1.330705031445    -0.862480973302    -4.756186779635     1.007825032230
         H           -0.324855031445     0.577971026698    -4.305502779635     1.007825032230
         C            2.745084968555    -1.378684973302    -0.257188779635    12.000000000000
         C            0.665084968555     0.053315026698     0.486811220365    12.000000000000
         C            1.534084968555    -1.073684973302     0.584811220365    12.000000000000
         C           -0.355915031445    -0.120684973302     1.456811220365    12.000000000000
         C            1.033084968555    -1.848684973302     1.563811220365    12.000000000000
         C           -0.329915031445     2.133315026698    -0.116188779635    12.000000000000
         C           -1.343915031445     1.941315026698     0.822811220365    12.000000000000
         C            0.651084968555     1.184315026698    -0.328188779635    12.000000000000
         C           -1.356915031445     0.811315026698     1.655811220365    12.000000000000
         N           -0.083915031445    -1.293684973302     2.088811220365    14.003074004430
         H           -0.357915031445     3.006315026698    -0.741188779635     1.007825032230
         H           -2.119915031445     2.688315026698     0.928811220365     1.007825032230
         H            1.398084968555     1.324315026698    -1.095188779635     1.007825032230
         H           -2.121915031445     0.661315026698     2.403811220365     1.007825032230
         H            2.511084968555    -1.089684973302    -1.276188779635     1.007825032230
         H            2.896084968555    -2.457684973302    -0.260188779635     1.007825032230
         H            1.472084968555    -2.782684973302     1.895811220365     1.007825032230
         H           -0.563915031445    -1.691684973302     2.901811220365     1.007825032230
         H            3.691164968555    -0.918935973302     0.064635220365     1.007825032230

  Running in c1 symmetry.

  Rotational constants: A =      0.03414  B =      0.02169  C =      0.01669 [cm^-1]
  Rotational constants: A =   1023.48310  B =    650.37809  C =    500.22627 [MHz]
  Nuclear repulsion =  663.466332415708393

  Charge       = 0
  Multiplicity = 1
  Electrons    = 88
  Nalpha       = 44
  Nbeta        = 44

  ==> Algorithm <==

  SCF Algorithm Type is PK.
  DIIS enabled.
  MOM disabled.
  Fractional occupation disabled.
  Guess Type is SAD.
  Energy threshold   = 1.00e-06
  Density threshold  = 1.00e-10
  Integral threshold = 0.00e+00

  ==> Primary Basis <==

  Basis Set: CC-PVDZ
    Blend: CC-PVDZ
    Number of shells: 117
    Number of basis function: 243
    Number of Cartesian functions: 255
    Spherical Harmonics?: true
    Max angular momentum: 2

  ==> Pre-Iterations <==

   -------------------------------------------------------
    Irrep   Nso     Nmo     Nalpha   Nbeta   Ndocc  Nsocc
   -------------------------------------------------------
     A        243     243       0       0       0       0
   -------------------------------------------------------
    Total     243     243      44      44      44       0
   -------------------------------------------------------

  ==> Integral Setup <==

  Using integral reordering PK algorithm.
  Sizing the integral batches needed.
  Building batch lookup table.
   Calculation information:
      Number of atoms:                  27
      Number of AO shells:             117
      Number of primitives:            339
      Number of atomic orbitals:       255
      Number of basis functions:       243

      Integral cutoff                 1.00e-12
      Number of threads:                 1

	Batch   1 pq = [       0,    9405] index = [             0,44231715] size =     44231715
	Batch   2 pq = [    9405,   13301] index = [      44231715,88464951] size =     44233236
	Batch   3 pq = [   13301,   16290] index = [      88464951,132690195] size =     44225244
	Batch   4 pq = [   16290,   18810] index = [     132690195,176917455] size =     44227260
	Batch   5 pq = [   18810,   21030] index = [     176917455,221140965] size =     44223510
	Batch   6 pq = [   21030,   23037] index = [     221140965,265363203] size =     44222238
	Batch   7 pq = [   23037,   24883] index = [     265363203,309594286] size =     44231083
	Batch   8 pq = [   24883,   26601] index = [     309594286,353819901] size =     44225615
	Batch   9 pq = [   26601,   28214] index = [     353819901,398029005] size =     44209104
	Batch  10 pq = [   28214,   29646] index = [     398029005,439457481] size =     41428476
  Task number: 40
  Buffer size: 11059200
  Buffer per thread: 2
  We computed 24323065 shell quartets total.
  Whereas there are 23829156 unique shell quartets.
     2.07 percent of shell quartets recomputed by reordering.

  ==> DiskJK: Disk-Based J/K Matrices <==

    J tasked:                  Yes
    K tasked:                  Yes
    wK tasked:                  No
    Memory [MiB]:              375
    Schwarz Cutoff:          1E-12

    OpenMP threads:              1

  Minimum eigenvalue in the overlap matrix is 2.3886369176E-04.
  Using Symmetric Orthogonalization.

  SCF Guess: Superposition of Atomic Densities via on-the-fly atomic UHF.

  ==> Iterations <==

                        Total Energy        Delta E     RMS |[F,P]|

   @RHF iter SAD:  -479.16443118025950   -4.79164e+02   0.00000e+00
   @RHF iter   1:  -479.48300848377067   -3.18577e-01   2.62636e-03 DIIS
   @RHF iter   2:  -479.71751869118100   -2.34510e-01   1.17202e-03 DIIS
   @RHF iter   3:  -479.76024812680049   -4.27294e-02   3.06335e-04 DIIS
   @RHF iter   4:  -479.76406527829084   -3.81715e-03   1.41813e-04 DIIS
   @RHF iter   5:  -479.76474185990060   -6.76582e-04   1.97741e-05 DIIS
   @RHF iter   6:  -479.76476975594704   -2.78960e-05   8.82764e-06 DIIS
   @RHF iter   7:  -479.76477513997747   -5.38403e-06   3.58718e-06 DIIS
   @RHF iter   8:  -479.76477660099727   -1.46102e-06   1.39433e-06 DIIS
   @RHF iter   9:  -479.76477689006026   -2.89063e-07   6.11275e-07 DIIS
   @RHF iter  10:  -479.76477694616841   -5.61081e-08   2.81640e-07 DIIS
   @RHF iter  11:  -479.76477696025626   -1.40878e-08   1.09279e-07 DIIS
   @RHF iter  12:  -479.76477696229284   -2.03659e-09   3.68064e-08 DIIS
   @RHF iter  13:  -479.76477696245416   -1.61322e-10   1.12966e-08 DIIS
   @RHF iter  14:  -479.76477696246184   -7.67386e-12   5.48047e-09 DIIS
   @RHF iter  15:  -479.76477696247292   -1.10845e-11   2.33701e-09 DIIS
   @RHF iter  16:  -479.76477696246337    9.54969e-12   1.08108e-09 DIIS
   @RHF iter  17:  -479.76477696246644   -3.06954e-12   4.38037e-10 DIIS
   @RHF iter  18:  -479.76477696246297    3.46745e-12   1.61993e-10 DIIS
   @RHF iter  19:  -479.76477696246377   -7.95808e-13   5.60124e-11 DIIS
  Energy and wave function converged.

  ==> Post-Iterations <==

    Orbital Energies [Eh]
    ---------------------

    Doubly Occupied:

       1A    -15.601673     2A    -11.262383     3A    -11.259282
       4A    -11.231607     5A    -11.229570     6A    -11.227226
       7A    -11.225800     8A    -11.218429     9A    -11.217659
      10A    -11.212434    11A    -11.209841    12A    -11.200623
      13A     -1.305653    14A     -1.130113    15A     -1.074573
      16A     -1.006268    17A     -1.000171    18A     -0.987630
      19A     -0.931640    20A     -0.843208    21A     -0.823147
      22A     -0.804441    23A     -0.754795    24A     -0.720455
      25A     -0.666201    26A     -0.641305    27A     -0.604146
      28A     -0.596828    29A     -0.592665    30A     -0.587253
      31A     -0.584628    32A     -0.566555    33A     -0.553126
      34A     -0.536273    35A     -0.525710    36A     -0.493653
      37A     -0.488187    38A     -0.478727    39A     -0.473398
      40A     -0.472266    41A     -0.456834    42A     -0.374116
      43A     -0.296999    44A     -0.273497

    Virtual:

      45A      0.125238    46A      0.169098    47A      0.175479
      48A      0.178885    49A      0.199487    50A      0.208044
      51A      0.223569    52A      0.230243    53A      0.231284
      54A      0.250245    55A      0.260561    56A      0.265639
      57A      0.271986    58A      0.277816    59A      0.292370
      60A      0.295462    61A      0.315231    62A      0.326569
      63A      0.375787    64A      0.385653    65A      0.405620
      66A      0.408503    67A      0.421530    68A      0.450513
      69A      0.473601    70A      0.483089    71A      0.498157
      72A      0.513524    73A      0.586774    74A      0.593010
      75A      0.607216    76A      0.615013    77A      0.622866
      78A      0.640532    79A      0.643623    80A      0.657907
      81A      0.667560    82A      0.684671    83A      0.695960
      84A      0.711226    85A      0.722840    86A      0.733901
      87A      0.736989    88A      0.744377    89A      0.751519
      90A      0.758008    91A      0.774833    92A      0.792438
      93A      0.793906    94A      0.799446    95A      0.832776
      96A      0.849766    97A      0.862102    98A      0.865067
      99A      0.876083   100A      0.889940   101A      0.893129
     102A      0.894397   103A      0.902325   104A      0.904947
     105A      0.906920   106A      0.918652   107A      0.929499
     108A      0.942328   109A      0.948539   110A      0.953740
     111A      0.958896   112A      0.974182   113A      0.987337
     114A      1.012863   115A      1.016180   116A      1.027302
     117A      1.058173   118A      1.068494   119A      1.098123
     120A      1.126048   121A      1.133204   122A      1.134877
     123A      1.142963   124A      1.146905   125A      1.169568
     126A      1.190804   127A      1.215150   128A      1.230925
     129A      1.239301   130A      1.240155   131A      1.251971
     132A      1.272356   133A      1.279822   134A      1.296025
     135A      1.304433   136A      1.331198   137A      1.339255
     138A      1.364879   139A      1.376686   140A      1.417393
     141A      1.441742   142A      1.495772   143A      1.498054
     144A      1.519309   145A      1.542261   146A      1.574710
     147A      1.584938   148A      1.603611   149A      1.630769
     150A      1.643701   151A      1.656470   152A      1.687236
     153A      1.698268   154A      1.703104   155A      1.711825
     156A      1.745134   157A      1.769329   158A      1.775713
     159A      1.795404   160A      1.809661   161A      1.825077
     162A      1.834897   163A      1.868348   164A      1.877430
     165A      1.889239   166A      1.895677   167A      1.900465
     168A      1.912171   169A      1.919237   170A      1.928616
     171A      1.935026   172A      1.945812   173A      1.951935
     174A      1.959187   175A      1.966617   176A      1.968282
     177A      1.973730   178A      1.976587   179A      1.991842
     180A      2.013416   181A      2.014122   182A      2.019553
     183A      2.061445   184A      2.081317   185A      2.086450
     186A      2.094293   187A      2.106779   188A      2.112261
     189A      2.124259   190A      2.126811   191A      2.137691
     192A      2.157921   193A      2.160612   194A      2.176287
     195A      2.185883   196A      2.233078   197A      2.261793
     198A      2.290457   199A      2.301299   200A      2.305513
     201A      2.322597   202A      2.326920   203A      2.341643
     204A      2.357465   205A      2.405129   206A      2.418993
     207A      2.458968   208A      2.464747   209A      2.466355
     210A      2.483119   211A      2.543678   212A      2.575501
     213A      2.584564   214A      2.592142   215A      2.610408
     216A      2.641925   217A      2.661566   218A      2.690466
     219A      2.717903   220A      2.769612   221A      2.775814
     222A      2.782385   223A      2.790081   224A      2.800578
     225A      2.816738   226A      2.846662   227A      2.859204
     228A      2.868154   229A      2.880823   230A      2.891507
     231A      2.926059   232A      2.964874   233A      2.973718
     234A      2.990046   235A      3.025052   236A      3.078103
     237A      3.080383   238A      3.138879   239A      3.213561
     240A      3.321770   241A      3.395890   242A      3.748327
     243A      3.961441

    Final Occupation by Irrep:
              A
    DOCC [    44 ]

  @RHF Final Energy:  -479.76477696246377

   => Energetics <=

    Nuclear Repulsion Energy =            663.4663324157083935
    One-Electron Energy =               -1964.9802421300112201
    Two-Electron Energy =                 821.7491327518390563
    Total Energy =                       -479.7647769624637704

Computation Completed

Properties will be evaluated at   0.000000,   0.000000,   0.000000 [a0]

Properties computed using the SCF density matrix

  Nuclear Dipole Moment: [e a0]
     X:    -2.0091      Y:    -1.3562      Z:   -15.0462

  Electronic Dipole Moment: [e a0]
     X:     1.9412      Y:     0.7404      Z:    15.7193

  Dipole Moment: [e a0]
     X:    -0.0679      Y:    -0.6158      Z:     0.6732     Total:     0.9148

  Dipole Moment: [D]
     X:    -0.1725      Y:    -1.5652      Z:     1.7110     Total:     2.3253

*** tstop() called on ds3 at Mon Apr 27 12:55:25 2020
Module time:
	user time   =     201.08 seconds =       3.35 minutes
	system time =      85.96 seconds =       1.43 minutes
	total time  =        276 seconds =       4.60 minutes
Total time:
	user time   =     201.08 seconds =       3.35 minutes
	system time =      85.96 seconds =       1.43 minutes
	total time  =        276 seconds =       4.60 minutes
                                     G D M A

                                 by Anthony Stone

                           version 2.2.06, 22 June 2011

               Distributed Multipoles from Gaussian wavefunctions

Starting at 12:55:25 on 27 Apr 2020

Using SCF density matrix from file ./SSI/SSI-066ALA-136TRP-1-dimer.test.4352.fchk

                         Distributed Multipole Analysis

Standard DMA

Positions and radii in angstrom
Multipole moments in atomic units, ea_0^k for rank k

C          x = -1.655915  y = -0.163685  z = -2.747189 angstrom
           Maximum rank =  0   Radius =  0.650 angstrom
                   Q00  =  -0.226456

C          x = -1.307915  y =  0.093315  z = -4.212189 angstrom
           Maximum rank =  0   Radius =  0.650 angstrom
                   Q00  =  -0.238869

H          x = -0.889915  y = -0.777685  z = -2.271189 angstrom
           Maximum rank =  0   Radius =  0.325 angstrom
                   Q00  =   0.081957

H          x = -1.728915  y =  0.786315  z = -2.217189 angstrom
           Maximum rank =  0   Radius =  0.325 angstrom
                   Q00  =   0.087241

H          x = -2.614915  y = -0.677685  z = -2.679189 angstrom
           Maximum rank =  0   Radius =  0.325 angstrom
                   Q00  =   0.070930

H          x = -2.058915  y =  0.763315  z = -4.636189 angstrom
           Maximum rank =  0   Radius =  0.325 angstrom
                   Q00  =   0.073944

H          x = -1.330705  y = -0.862481  z = -4.756187 angstrom
           Maximum rank =  0   Radius =  0.325 angstrom
                   Q00  =   0.073440

H          x = -0.324855  y =  0.577971  z = -4.305503 angstrom
           Maximum rank =  0   Radius =  0.325 angstrom
                   Q00  =   0.074314

C          x =  2.745085  y = -1.378685  z = -0.257189 angstrom
           Maximum rank =  0   Radius =  0.650 angstrom
                   Q00  =  -0.213610

C          x =  0.665085  y =  0.053315  z =  0.486811 angstrom
           Maximum rank =  0   Radius =  0.650 angstrom
                   Q00  =  -0.040716

C          x =  1.534085  y = -1.073685  z =  0.584811 angstrom
           Maximum rank =  0   Radius =  0.650 angstrom
                   Q00  =  -0.131891

C          x = -0.355915  y = -0.120685  z =  1.456811 angstrom
           Maximum rank =  0   Radius =  0.650 angstrom
                   Q00  =   0.256039

C          x =  1.033085  y = -1.848685  z =  1.563811 angstrom
           Maximum rank =  0   Radius =  0.650 angstrom
                   Q00  =   0.080191

C          x = -0.329915  y =  2.133315  z = -0.116189 angstrom
           Maximum rank =  0   Radius =  0.650 angstrom
                   Q00  =  -0.052417

C          x = -1.343915  y =  1.941315  z =  0.822811 angstrom
           Maximum rank =  0   Radius =  0.650 angstrom
                   Q00  =  -0.073706

C          x =  0.651085  y =  1.184315  z = -0.328189 angstrom
           Maximum rank =  0   Radius =  0.650 angstrom
                   Q00  =  -0.092766

C          x = -1.356915  y =  0.811315  z =  1.655811 angstrom
           Maximum rank =  0   Radius =  0.650 angstrom
                   Q00  =  -0.124519

N          x = -0.083915  y = -1.293685  z =  2.088811 angstrom
           Maximum rank =  0   Radius =  0.650 angstrom
                   Q00  =  -0.488845

H          x = -0.357915  y =  3.006315  z = -0.741189 angstrom
           Maximum rank =  0   Radius =  0.325 angstrom
                   Q00  =   0.056913

H          x = -2.119915  y =  2.688315  z =  0.928811 angstrom
           Maximum rank =  0   Radius =  0.325 angstrom
                   Q00  =   0.064903

H          x =  1.398085  y =  1.324315  z = -1.095189 angstrom
           Maximum rank =  0   Radius =  0.325 angstrom
                   Q00  =   0.069079

H          x = -2.121915  y =  0.661315  z =  2.403811 angstrom
           Maximum rank =  0   Radius =  0.325 angstrom
                   Q00  =   0.076820

H          x =  2.511085  y = -1.089685  z = -1.276189 angstrom
           Maximum rank =  0   Radius =  0.325 angstrom
                   Q00  =   0.102436

H          x =  2.896085  y = -2.457685  z = -0.260189 angstrom
           Maximum rank =  0   Radius =  0.325 angstrom
                   Q00  =   0.101053

H          x =  1.472085  y = -2.782685  z =  1.895811 angstrom
           Maximum rank =  0   Radius =  0.325 angstrom
                   Q00  =   0.097596

H          x = -0.563915  y = -1.691685  z =  2.901811 angstrom
           Maximum rank =  0   Radius =  0.325 angstrom
                   Q00  =   0.217564

H          x =  3.691165  y = -0.918936  z =  0.064635 angstrom
           Maximum rank =  0   Radius =  0.325 angstrom
                   Q00  =   0.099374

Total multipoles referred to origin at
           x =   0.000000,  y =    0.000000,  z =    0.000000 angstrom
                   Q00  =  -0.000000

Finished at 12:55:26 on 27 Apr 2020

  DMA results are available in the Python driver through the
	  variable('DMA DISTRIBUTED MULTIPOLES')
  and
	  variable('DMA TOTAL MULTIPOLES')
  commands.

    Psi4 stopped on: Monday, 27 April 2020 12:55PM
    Psi4 wall time for execution: 0:04:36.47

*** Psi4 exiting successfully. Buy a developer a beer!
