                               Psi4 1.3.2 release

  ==> Input File <==

--------------------------------------------------------------------------
import numpy as np
set {scf_type pk
basis cc-pvdz
d_convergence 10
gdma_switch   0
gdma_limit    0
gdma_origin   [ 0.0,  0.0,  0.0 ]
}
molecule test {
    units Angstrom
    -1 1
    --
    -1 1
    C                1.452688619795830    -1.690859119271954    -2.604339370884674
    C                0.776688619795830    -1.232859119271954    -1.323339370884675
    O               -0.410311380204170    -1.443859119271954    -1.137339370884675
    O                1.462688619795830    -0.547859119271954    -0.532339370884674
    H                2.172688619795830    -2.472859119271953    -2.359339370884675
    H                2.022688619795830    -0.856859119271954    -3.018339370884675
    H                0.763478619795830    -2.058729119271954    -3.378719370884674
    C               -0.797311380204170     1.226140880728046     1.009660629115326
    C               -2.199311380204170     0.763140880728046     1.315660629115325
    C               -0.493311380204170     2.612140880728047     1.609660629115325
    O                0.139688619795830     0.316140880728046     1.577660629115325
    H               -0.642311380204170     1.261140880728046    -0.069339370884675
    H               -2.341311380204170     0.727140880728046     2.395660629115326
    H               -0.709311380204170     2.617140880728047     2.678660629115326
    H                0.560688619795830     2.850140880728046     1.457660629115325
    H               -1.086311380204170     3.380140880728046     1.114660629115325
    H                0.595688619795830    -0.073859119271954     0.794660629115325
    H               -2.344331380204169    -0.239949119271954     0.888130629115325
    H               -2.901371380204170     1.483040880728046     0.869740629115326

}
e, wfn = energy('scf', return_wfn=True)
gdma(wfn)
dmavals = variable('DMA DISTRIBUTED MULTIPOLES')
charges = np.array(dmavals)
print(charges)
np.save('SSI-093ASP-097THR-1-dimer.npy', np.array(charges))--------------------------------------------------------------------------

*** tstart() called on ds3
*** at Tue Apr 28 09:29:53 2020

   => Loading Basis Set <=

    Name: CC-PVDZ
    Role: ORBITAL
    Keyword: BASIS
    atoms 1-2, 8-10  entry C          line   138 file /theoryfs2/ds/metcalf/miniconda2/envs/tf2gpu/share/psi4/basis/cc-pvdz.gbs
    atoms 3-4, 11    entry O          line   198 file /theoryfs2/ds/metcalf/miniconda2/envs/tf2gpu/share/psi4/basis/cc-pvdz.gbs
    atoms 5-7, 12-19 entry H          line    22 file /theoryfs2/ds/metcalf/miniconda2/envs/tf2gpu/share/psi4/basis/cc-pvdz.gbs

         ---------------------------------------------------------
                                   SCF
               by Justin Turney, Rob Parrish, Andy Simmonett
                          and Daniel G. A. Smith
                              RHF Reference
                        1 Threads,    500 MiB Core
         ---------------------------------------------------------

  ==> Geometry <==

    Molecular point group: c1
    Full point group: C1

    Geometry (in Angstrom), charge = -1, multiplicity = 1:

       Center              X                  Y                   Z               Mass
    ------------   -----------------  -----------------  -----------------  -----------------
         C            1.452688619796    -1.690859119272    -2.604339370885    12.000000000000
         C            0.776688619796    -1.232859119272    -1.323339370885    12.000000000000
         O           -0.410311380204    -1.443859119272    -1.137339370885    15.994914619570
         O            1.462688619796    -0.547859119272    -0.532339370885    15.994914619570
         H            2.172688619796    -2.472859119272    -2.359339370885     1.007825032230
         H            2.022688619796    -0.856859119272    -3.018339370885     1.007825032230
         H            0.763478619796    -2.058729119272    -3.378719370885     1.007825032230
         C           -0.797311380204     1.226140880728     1.009660629115    12.000000000000
         C           -2.199311380204     0.763140880728     1.315660629115    12.000000000000
         C           -0.493311380204     2.612140880728     1.609660629115    12.000000000000
         O            0.139688619796     0.316140880728     1.577660629115    15.994914619570
         H           -0.642311380204     1.261140880728    -0.069339370885     1.007825032230
         H           -2.341311380204     0.727140880728     2.395660629115     1.007825032230
         H           -0.709311380204     2.617140880728     2.678660629115     1.007825032230
         H            0.560688619796     2.850140880728     1.457660629115     1.007825032230
         H           -1.086311380204     3.380140880728     1.114660629115     1.007825032230
         H            0.595688619796    -0.073859119272     0.794660629115     1.007825032230
         H           -2.344331380204    -0.239949119272     0.888130629115     1.007825032230
         H           -2.901371380204     1.483040880728     0.869740629115     1.007825032230

  Running in c1 symmetry.

  Rotational constants: A =      0.13325  B =      0.02833  C =      0.02576 [cm^-1]
  Rotational constants: A =   3994.60972  B =    849.34658  C =    772.15693 [MHz]
  Nuclear repulsion =  384.593360507485784

  Charge       = -1
  Multiplicity = 1
  Electrons    = 66
  Nalpha       = 33
  Nbeta        = 33

  ==> Algorithm <==

  SCF Algorithm Type is PK.
  DIIS enabled.
  MOM disabled.
  Fractional occupation disabled.
  Guess Type is SAD.
  Energy threshold   = 1.00e-06
  Density threshold  = 1.00e-10
  Integral threshold = 0.00e+00

  ==> Primary Basis <==

  Basis Set: CC-PVDZ
    Blend: CC-PVDZ
    Number of shells: 81
    Number of basis function: 167
    Number of Cartesian functions: 175
    Spherical Harmonics?: true
    Max angular momentum: 2

  ==> Pre-Iterations <==

   -------------------------------------------------------
    Irrep   Nso     Nmo     Nalpha   Nbeta   Ndocc  Nsocc
   -------------------------------------------------------
     A        167     167       0       0       0       0
   -------------------------------------------------------
    Total     167     167      33      33      33       0
   -------------------------------------------------------

  ==> Integral Setup <==

  Using integral reordering PK algorithm.
  Sizing the integral batches needed.
  Building batch lookup table.
   Calculation information:
      Number of atoms:                  19
      Number of AO shells:              81
      Number of primitives:            231
      Number of atomic orbitals:       175
      Number of basis functions:       167

      Integral cutoff                 1.00e-12
      Number of threads:                 1

	Batch   1 pq = [       0,    9405] index = [             0,44231715] size =     44231715
	Batch   2 pq = [    9405,   13301] index = [      44231715,88464951] size =     44233236
	Batch   3 pq = [   13301,   14028] index = [      88464951,98399406] size =      9934455
  Task number: 9
  Buffer size: 11059200
  Buffer per thread: 2
  We computed 4455451 shell quartets total.
  Whereas there are 5516181 unique shell quartets.

  ==> DiskJK: Disk-Based J/K Matrices <==

    J tasked:                  Yes
    K tasked:                  Yes
    wK tasked:                  No
    Memory [MiB]:              375
    Schwarz Cutoff:          1E-12

    OpenMP threads:              1

  Minimum eigenvalue in the overlap matrix is 4.3812111389E-03.
  Using Symmetric Orthogonalization.

  SCF Guess: Superposition of Atomic Densities via on-the-fly atomic UHF.

  ==> Iterations <==

                        Total Energy        Delta E     RMS |[F,P]|

   @RHF iter SAD:  -418.78539317902550   -4.18785e+02   0.00000e+00
   @RHF iter   1:  -420.09169450127803   -1.30630e+00   4.69238e-03 DIIS
   @RHF iter   2:  -420.33481502797974   -2.43121e-01   2.51400e-03 DIIS
   @RHF iter   3:  -420.39919468313241   -6.43797e-02   3.96216e-04 DIIS
   @RHF iter   4:  -420.40220207315326   -3.00739e-03   1.48467e-04 DIIS
   @RHF iter   5:  -420.40259968591255   -3.97613e-04   2.79777e-05 DIIS
   @RHF iter   6:  -420.40261471438998   -1.50285e-05   1.21603e-05 DIIS
   @RHF iter   7:  -420.40261690693342   -2.19254e-06   2.84019e-06 DIIS
   @RHF iter   8:  -420.40261714734510   -2.40412e-07   1.23301e-06 DIIS
   @RHF iter   9:  -420.40261719102546   -4.36804e-08   4.72272e-07 DIIS
   @RHF iter  10:  -420.40261719988763   -8.86217e-09   1.73177e-07 DIIS
   @RHF iter  11:  -420.40261720111670   -1.22907e-09   5.74913e-08 DIIS
   @RHF iter  12:  -420.40261720121703   -1.00329e-10   1.93315e-08 DIIS
   @RHF iter  13:  -420.40261720123078   -1.37561e-11   4.83120e-09 DIIS
   @RHF iter  14:  -420.40261720123152   -7.38964e-13   1.27288e-09 DIIS
   @RHF iter  15:  -420.40261720123192   -3.97904e-13   3.76525e-10 DIIS
   @RHF iter  16:  -420.40261720123107    8.52651e-13   1.50182e-10 DIIS
   @RHF iter  17:  -420.40261720123016    9.09495e-13   6.57471e-11 DIIS
  Energy and wave function converged.

  ==> Post-Iterations <==

    Orbital Energies [Eh]
    ---------------------

    Doubly Occupied:

       1A    -20.341183     2A    -20.290250     3A    -20.289353
       4A    -11.141703     5A    -11.113175     6A    -11.081030
       7A    -11.073403     8A    -11.069737     9A     -1.196581
      10A     -1.154358    11A     -1.074963    12A     -0.886005
      13A     -0.818053    14A     -0.792795    15A     -0.631012
      16A     -0.547397    17A     -0.513041    18A     -0.455051
      19A     -0.441152    20A     -0.438498    21A     -0.433834
      22A     -0.432315    23A     -0.405361    24A     -0.399535
      25A     -0.369410    26A     -0.356117    27A     -0.348566
      28A     -0.337013    29A     -0.300617    30A     -0.248066
      31A     -0.213463    32A     -0.203032    33A     -0.196532

    Virtual:

      34A      0.316625    35A      0.338581    36A      0.362506
      37A      0.368818    38A      0.379759    39A      0.391973
      40A      0.399494    41A      0.422900    42A      0.424993
      43A      0.432919    44A      0.465618    45A      0.501098
      46A      0.528592    47A      0.556176    48A      0.568031
      49A      0.625185    50A      0.678554    51A      0.700775
      52A      0.736581    53A      0.748780    54A      0.802196
      55A      0.821880    56A      0.828698    57A      0.862916
      58A      0.872838    59A      0.918559    60A      0.930639
      61A      0.942579    62A      0.959493    63A      0.994432
      64A      1.003148    65A      1.015201    66A      1.016103
      67A      1.021479    68A      1.026023    69A      1.034006
      70A      1.042650    71A      1.053658    72A      1.065184
      73A      1.082357    74A      1.085624    75A      1.091942
      76A      1.106547    77A      1.151594    78A      1.214576
      79A      1.285470    80A      1.289227    81A      1.303834
      82A      1.330295    83A      1.351071    84A      1.397722
      85A      1.473515    86A      1.486480    87A      1.516450
      88A      1.526124    89A      1.572788    90A      1.583599
      91A      1.614083    92A      1.623683    93A      1.666418
      94A      1.685072    95A      1.709401    96A      1.722400
      97A      1.741836    98A      1.803960    99A      1.810654
     100A      1.817752   101A      1.826400   102A      1.829937
     103A      1.855177   104A      1.857217   105A      1.931892
     106A      1.996088   107A      2.012733   108A      2.019278
     109A      2.029421   110A      2.054220   111A      2.062482
     112A      2.064594   113A      2.095168   114A      2.112870
     115A      2.132271   116A      2.135900   117A      2.147844
     118A      2.159615   119A      2.189384   120A      2.201497
     121A      2.214675   122A      2.238342   123A      2.245124
     124A      2.309389   125A      2.326240   126A      2.341595
     127A      2.390074   128A      2.401130   129A      2.420039
     130A      2.445590   131A      2.496768   132A      2.521487
     133A      2.529695   134A      2.622258   135A      2.669902
     136A      2.678856   137A      2.702938   138A      2.712860
     139A      2.718479   140A      2.775884   141A      2.810422
     142A      2.876635   143A      2.894767   144A      2.906088
     145A      2.914830   146A      2.939031   147A      2.949709
     148A      2.965204   149A      3.012442   150A      3.024484
     151A      3.039556   152A      3.167900   153A      3.211643
     154A      3.268448   155A      3.295427   156A      3.495485
     157A      3.528943   158A      3.602592   159A      3.627030
     160A      3.711439   161A      3.782169   162A      3.811703
     163A      3.840625   164A      4.066757   165A      4.085156
     166A      4.220893   167A      4.392775

    Final Occupation by Irrep:
              A
    DOCC [    33 ]

  @RHF Final Energy:  -420.40261720123016

   => Energetics <=

    Nuclear Repulsion Energy =            384.5933605074857837
    One-Electron Energy =               -1350.8067506533477626
    Two-Electron Energy =                 545.8107729446317080
    Total Energy =                       -420.4026172012302141

Computation Completed

Properties will be evaluated at   0.000000,   0.000000,   0.000000 [a0]

Properties computed using the SCF density matrix

  Nuclear Dipole Moment: [e a0]
     X:    -3.6595      Y:     6.1947      Z:     1.2871

  Electronic Dipole Moment: [e a0]
     X:     3.1841      Y:    -5.1633      Z:    -1.4274

  Dipole Moment: [e a0]
     X:    -0.4754      Y:     1.0314      Z:    -0.1403     Total:     1.1443

  Dipole Moment: [D]
     X:    -1.2083      Y:     2.6216      Z:    -0.3566     Total:     2.9086

*** tstop() called on ds3 at Tue Apr 28 09:30:52 2020
Module time:
	user time   =      33.12 seconds =       0.55 minutes
	system time =      14.55 seconds =       0.24 minutes
	total time  =         59 seconds =       0.98 minutes
Total time:
	user time   =      33.12 seconds =       0.55 minutes
	system time =      14.55 seconds =       0.24 minutes
	total time  =         59 seconds =       0.98 minutes
                                     G D M A

                                 by Anthony Stone

                           version 2.2.06, 22 June 2011

               Distributed Multipoles from Gaussian wavefunctions

Starting at 9:30:52 on 28 Apr 2020

Using SCF density matrix from file ./SSI/SSI-093ASP-097THR-1-dimer.test.10612.fchk

                         Distributed Multipole Analysis

Standard DMA

Positions and radii in angstrom
Multipole moments in atomic units, ea_0^k for rank k

C          x =  1.452689  y = -1.690859  z = -2.604339 angstrom
           Maximum rank =  0   Radius =  0.650 angstrom
                   Q00  =  -0.258439

C          x =  0.776689  y = -1.232859  z = -1.323339 angstrom
           Maximum rank =  0   Radius =  0.650 angstrom
                   Q00  =   0.909576

O          x = -0.410311  y = -1.443859  z = -1.137339 angstrom
           Maximum rank =  0   Radius =  0.650 angstrom
                   Q00  =  -0.872230

O          x =  1.462689  y = -0.547859  z = -0.532339 angstrom
           Maximum rank =  0   Radius =  0.650 angstrom
                   Q00  =  -0.954576

H          x =  2.172689  y = -2.472859  z = -2.359339 angstrom
           Maximum rank =  0   Radius =  0.325 angstrom
                   Q00  =   0.080740

H          x =  2.022689  y = -0.856859  z = -3.018339 angstrom
           Maximum rank =  0   Radius =  0.325 angstrom
                   Q00  =   0.073541

H          x =  0.763479  y = -2.058729  z = -3.378719 angstrom
           Maximum rank =  0   Radius =  0.325 angstrom
                   Q00  =   0.054794

C          x = -0.797311  y =  1.226141  z =  1.009661 angstrom
           Maximum rank =  0   Radius =  0.650 angstrom
                   Q00  =   0.167390

C          x = -2.199311  y =  0.763141  z =  1.315661 angstrom
           Maximum rank =  0   Radius =  0.650 angstrom
                   Q00  =  -0.227852

C          x = -0.493311  y =  2.612141  z =  1.609661 angstrom
           Maximum rank =  0   Radius =  0.650 angstrom
                   Q00  =  -0.253150

O          x =  0.139689  y =  0.316141  z =  1.577661 angstrom
           Maximum rank =  0   Radius =  0.650 angstrom
                   Q00  =  -0.669261

H          x = -0.642311  y =  1.261141  z = -0.069339 angstrom
           Maximum rank =  0   Radius =  0.325 angstrom
                   Q00  =   0.017593

H          x = -2.341311  y =  0.727141  z =  2.395661 angstrom
           Maximum rank =  0   Radius =  0.325 angstrom
                   Q00  =   0.057201

H          x = -0.709311  y =  2.617141  z =  2.678661 angstrom
           Maximum rank =  0   Radius =  0.325 angstrom
                   Q00  =   0.062626

H          x =  0.560689  y =  2.850141  z =  1.457661 angstrom
           Maximum rank =  0   Radius =  0.325 angstrom
                   Q00  =   0.083272

H          x = -1.086311  y =  3.380141  z =  1.114661 angstrom
           Maximum rank =  0   Radius =  0.325 angstrom
                   Q00  =   0.035286

H          x =  0.595689  y = -0.073859  z =  0.794661 angstrom
           Maximum rank =  0   Radius =  0.325 angstrom
                   Q00  =   0.555879

H          x = -2.344331  y = -0.239949  z =  0.888131 angstrom
           Maximum rank =  0   Radius =  0.325 angstrom
                   Q00  =   0.108072

H          x = -2.901371  y =  1.483041  z =  0.869741 angstrom
           Maximum rank =  0   Radius =  0.325 angstrom
                   Q00  =   0.029536

Total multipoles referred to origin at
           x =   0.000000,  y =    0.000000,  z =    0.000000 angstrom
                   Q00  =  -1.000000

Finished at 9:30:52 on 28 Apr 2020

  DMA results are available in the Python driver through the
	  variable('DMA DISTRIBUTED MULTIPOLES')
  and
	  variable('DMA TOTAL MULTIPOLES')
  commands.

    Psi4 stopped on: Tuesday, 28 April 2020 09:30AM
    Psi4 wall time for execution: 0:00:59.71

*** Psi4 exiting successfully. Buy a developer a beer!
