                               Psi4 1.3.2 release

  ==> Input File <==

--------------------------------------------------------------------------
import numpy as np
set {scf_type pk
basis cc-pvdz
d_convergence 10
gdma_switch   0
gdma_limit    0
gdma_origin   [ 0.0,  0.0,  0.0 ]
}
molecule test {
    units Angstrom
    0 1
    --
    0 1
    C               -1.112125445863766    -1.143420286779733    -0.571937044681483
    C               -2.339125445863766    -2.030420286779733    -0.563937044681483
    H               -1.176125445863766    -0.476420286779733     0.286062955318517
    H               -0.213125445863766    -1.754420286779733    -0.487937044681483
    H               -1.042125445863766    -0.567420286779733    -1.494937044681483
    H               -2.355125445863766    -2.604420286779733    -1.489937044681483
    H               -3.244215445863766    -1.408171286779733    -0.503789044681483
    H               -2.298505445863765    -2.735893686779733     0.279067955318517
    C                1.052874554136234     1.628579713220267     0.919062955318517
    C                2.397874554136234     1.549579713220267     0.222062955318517
    H                0.539874554136234     2.562579713220267     0.686062955318517
    H                0.439874554136234     0.805579713220267     0.583062955318517
    H                1.196874554136234     1.544579713220267     1.988062955318517
    H                2.221874554136234     1.605579713220267    -0.851937044681483
    H                3.042694554136234     2.388712713220267     0.522163955318517
    H                2.894004554136234     0.588290713220267     0.421520955318517

}
e, wfn = energy('scf', return_wfn=True)
gdma(wfn)
dmavals = variable('DMA DISTRIBUTED MULTIPOLES')
charges = np.array(dmavals)
print(charges)
np.save('SSI-019VAL-058VAL-1-dimer.npy', np.array(charges))--------------------------------------------------------------------------

*** tstart() called on ds3
*** at Tue Apr 28 13:39:41 2020

   => Loading Basis Set <=

    Name: CC-PVDZ
    Role: ORBITAL
    Keyword: BASIS
    atoms 1-2, 9-10  entry C          line   138 file /theoryfs2/ds/metcalf/miniconda2/envs/tf2gpu/share/psi4/basis/cc-pvdz.gbs
    atoms 3-8, 11-16 entry H          line    22 file /theoryfs2/ds/metcalf/miniconda2/envs/tf2gpu/share/psi4/basis/cc-pvdz.gbs

         ---------------------------------------------------------
                                   SCF
               by Justin Turney, Rob Parrish, Andy Simmonett
                          and Daniel G. A. Smith
                              RHF Reference
                        1 Threads,    500 MiB Core
         ---------------------------------------------------------

  ==> Geometry <==

    Molecular point group: c1
    Full point group: C1

    Geometry (in Angstrom), charge = 0, multiplicity = 1:

       Center              X                  Y                   Z               Mass
    ------------   -----------------  -----------------  -----------------  -----------------
         C           -1.112125445864    -1.143420286780    -0.571937044681    12.000000000000
         C           -2.339125445864    -2.030420286780    -0.563937044681    12.000000000000
         H           -1.176125445864    -0.476420286780     0.286062955319     1.007825032230
         H           -0.213125445864    -1.754420286780    -0.487937044681     1.007825032230
         H           -1.042125445864    -0.567420286780    -1.494937044681     1.007825032230
         H           -2.355125445864    -2.604420286780    -1.489937044681     1.007825032230
         H           -3.244215445864    -1.408171286780    -0.503789044681     1.007825032230
         H           -2.298505445864    -2.735893686780     0.279067955319     1.007825032230
         C            1.052874554136     1.628579713220     0.919062955319    12.000000000000
         C            2.397874554136     1.549579713220     0.222062955319    12.000000000000
         H            0.539874554136     2.562579713220     0.686062955319     1.007825032230
         H            0.439874554136     0.805579713220     0.583062955319     1.007825032230
         H            1.196874554136     1.544579713220     1.988062955319     1.007825032230
         H            2.221874554136     1.605579713220    -0.851937044681     1.007825032230
         H            3.042694554136     2.388712713220     0.522163955319     1.007825032230
         H            2.894004554136     0.588290713220     0.421520955319     1.007825032230

  Running in c1 symmetry.

  Rotational constants: A =      0.61151  B =      0.04387  C =      0.04227 [cm^-1]
  Rotational constants: A =  18332.67677  B =   1315.06883  C =   1267.16373 [MHz]
  Nuclear repulsion =  121.224267045402016

  Charge       = 0
  Multiplicity = 1
  Electrons    = 36
  Nalpha       = 18
  Nbeta        = 18

  ==> Algorithm <==

  SCF Algorithm Type is PK.
  DIIS enabled.
  MOM disabled.
  Fractional occupation disabled.
  Guess Type is SAD.
  Energy threshold   = 1.00e-06
  Density threshold  = 1.00e-10
  Integral threshold = 0.00e+00

  ==> Primary Basis <==

  Basis Set: CC-PVDZ
    Blend: CC-PVDZ
    Number of shells: 60
    Number of basis function: 116
    Number of Cartesian functions: 120
    Spherical Harmonics?: true
    Max angular momentum: 2

  ==> Pre-Iterations <==

   -------------------------------------------------------
    Irrep   Nso     Nmo     Nalpha   Nbeta   Ndocc  Nsocc
   -------------------------------------------------------
     A        116     116       0       0       0       0
   -------------------------------------------------------
    Total     116     116      18      18      18       0
   -------------------------------------------------------

  ==> Integral Setup <==

  Using integral reordering PK algorithm.
  Sizing the integral batches needed.
  Building batch lookup table.
   Calculation information:
      Number of atoms:                  16
      Number of AO shells:              60
      Number of primitives:            148
      Number of atomic orbitals:       120
      Number of basis functions:       116

      Integral cutoff                 1.00e-12
      Number of threads:                 1

	Batch   1 pq = [       0,    6786] index = [             0,23028291] size =     23028291
  Task number: 3
  Buffer size: 11059200
  Buffer per thread: 2
  We computed 1382587 shell quartets total.
  Whereas there are 1675365 unique shell quartets.

  ==> DiskJK: Disk-Based J/K Matrices <==

    J tasked:                  Yes
    K tasked:                  Yes
    wK tasked:                  No
    Memory [MiB]:              375
    Schwarz Cutoff:          1E-12

    OpenMP threads:              1

  Minimum eigenvalue in the overlap matrix is 5.3823633662E-03.
  Using Symmetric Orthogonalization.

  SCF Guess: Superposition of Atomic Densities via on-the-fly atomic UHF.

  ==> Iterations <==

                        Total Energy        Delta E     RMS |[F,P]|

   @RHF iter SAD:  -157.41305366816704   -1.57413e+02   0.00000e+00
   @RHF iter   1:  -158.30333979011394   -8.90286e-01   4.25814e-03 DIIS
   @RHF iter   2:  -158.43866024294522   -1.35320e-01   1.81556e-03 DIIS
   @RHF iter   3:  -158.46253818124515   -2.38779e-02   3.52303e-04 DIIS
   @RHF iter   4:  -158.46439603132731   -1.85785e-03   3.95174e-05 DIIS
   @RHF iter   5:  -158.46442092133410   -2.48900e-05   7.06873e-06 DIIS
   @RHF iter   6:  -158.46442162879131   -7.07457e-07   1.48421e-06 DIIS
   @RHF iter   7:  -158.46442164960303   -2.08117e-08   3.27203e-07 DIIS
   @RHF iter   8:  -158.46442165068905   -1.08602e-09   4.67305e-08 DIIS
   @RHF iter   9:  -158.46442165072500   -3.59535e-11   1.11050e-08 DIIS
   @RHF iter  10:  -158.46442165072705   -2.04636e-12   3.16223e-09 DIIS
   @RHF iter  11:  -158.46442165072705    0.00000e+00   9.15556e-10 DIIS
   @RHF iter  12:  -158.46442165072690    1.42109e-13   1.96323e-10 DIIS
   @RHF iter  13:  -158.46442165072710   -1.98952e-13   2.95830e-11 DIIS
  Energy and wave function converged.

  ==> Post-Iterations <==

    Orbital Energies [Eh]
    ---------------------

    Doubly Occupied:

       1A    -11.218665     2A    -11.216658     3A    -11.216408
       4A    -11.211161     5A     -1.023903     6A     -1.019837
       7A     -0.838408     8A     -0.832551     9A     -0.606717
      10A     -0.600181    11A     -0.597796    12A     -0.596533
      13A     -0.507132    14A     -0.500854    15A     -0.491946
      16A     -0.485239    17A     -0.481795    18A     -0.473636

    Virtual:

      19A      0.176111    20A      0.193251    21A      0.230948
      22A      0.239317    23A      0.242441    24A      0.259233
      25A      0.261312    26A      0.276693    27A      0.279333
      28A      0.293515    29A      0.299932    30A      0.337193
      31A      0.397885    32A      0.427444    33A      0.587938
      34A      0.598386    35A      0.604930    36A      0.605561
      37A      0.610867    38A      0.651901    39A      0.665731
      40A      0.676608    41A      0.711984    42A      0.756369
      43A      0.844094    44A      0.880887    45A      0.886713
      46A      0.891741    47A      0.894889    48A      0.896793
      49A      0.900726    50A      0.905713    51A      0.914041
      52A      0.919671    53A      0.935114    54A      0.948486
      55A      0.974505    56A      1.035528    57A      1.123380
      58A      1.128284    59A      1.132986    60A      1.141352
      61A      1.227056    62A      1.332825    63A      1.469666
      64A      1.477320    65A      1.490377    66A      1.495220
      67A      1.569803    68A      1.610352    69A      1.676689
      70A      1.682500    71A      1.689759    72A      1.699530
      73A      1.846070    74A      1.854838    75A      1.865525
      76A      1.877558    77A      1.903908    78A      1.928970
      79A      1.933865    80A      1.937507    81A      1.942540
      82A      1.948295    83A      1.954606    84A      1.961349
      85A      1.963176    86A      1.982683    87A      1.999323
      88A      2.046916    89A      2.089983    90A      2.110565
      91A      2.129931    92A      2.136269    93A      2.295625
      94A      2.302161    95A      2.315550    96A      2.346396
      97A      2.450179    98A      2.460252    99A      2.461768
     100A      2.480834   101A      2.559462   102A      2.560634
     103A      2.582041   104A      2.600970   105A      2.760042
     106A      2.762747   107A      2.781542   108A      2.810533
     109A      2.845491   110A      2.856421   111A      2.857887
     112A      2.875818   113A      2.943080   114A      2.951407
     115A      2.964872   116A      2.995670

    Final Occupation by Irrep:
              A
    DOCC [    18 ]

  @RHF Final Energy:  -158.46442165072710

   => Energetics <=

    Nuclear Repulsion Energy =            121.2242670454020157
    One-Electron Energy =                -451.5385377853964428
    Two-Electron Energy =                 171.8498490892673090
    Total Energy =                       -158.4644216507271040

Computation Completed

Properties will be evaluated at   0.000000,   0.000000,   0.000000 [a0]

Properties computed using the SCF density matrix

  Nuclear Dipole Moment: [e a0]
     X:     0.0056      Y:    -0.0482      Z:    -0.0586

  Electronic Dipole Moment: [e a0]
     X:    -0.0350      Y:     0.0192      Z:     0.0448

  Dipole Moment: [e a0]
     X:    -0.0293      Y:    -0.0290      Z:    -0.0138     Total:     0.0435

  Dipole Moment: [D]
     X:    -0.0746      Y:    -0.0736      Z:    -0.0352     Total:     0.1106

*** tstop() called on ds3 at Tue Apr 28 13:39:52 2020
Module time:
	user time   =       7.78 seconds =       0.13 minutes
	system time =       3.40 seconds =       0.06 minutes
	total time  =         11 seconds =       0.18 minutes
Total time:
	user time   =       7.78 seconds =       0.13 minutes
	system time =       3.40 seconds =       0.06 minutes
	total time  =         11 seconds =       0.18 minutes
                                     G D M A

                                 by Anthony Stone

                           version 2.2.06, 22 June 2011

               Distributed Multipoles from Gaussian wavefunctions

Starting at 13:39:52 on 28 Apr 2020

Using SCF density matrix from file ./SSI/SSI-019VAL-058VAL-1-dimer.test.19926.fchk

                         Distributed Multipole Analysis

Standard DMA

Positions and radii in angstrom
Multipole moments in atomic units, ea_0^k for rank k

C          x = -1.112125  y = -1.143420  z = -0.571937 angstrom
           Maximum rank =  0   Radius =  0.650 angstrom
                   Q00  =  -0.247155

C          x = -2.339125  y = -2.030420  z = -0.563937 angstrom
           Maximum rank =  0   Radius =  0.650 angstrom
                   Q00  =  -0.217917

H          x = -1.176125  y = -0.476420  z =  0.286063 angstrom
           Maximum rank =  0   Radius =  0.325 angstrom
                   Q00  =   0.075473

H          x = -0.213125  y = -1.754420  z = -0.487937 angstrom
           Maximum rank =  0   Radius =  0.325 angstrom
                   Q00  =   0.076886

H          x = -1.042125  y = -0.567420  z = -1.494937 angstrom
           Maximum rank =  0   Radius =  0.325 angstrom
                   Q00  =   0.080151

H          x = -2.355125  y = -2.604420  z = -1.489937 angstrom
           Maximum rank =  0   Radius =  0.325 angstrom
                   Q00  =   0.077077

H          x = -3.244215  y = -1.408171  z = -0.503789 angstrom
           Maximum rank =  0   Radius =  0.325 angstrom
                   Q00  =   0.078191

H          x = -2.298505  y = -2.735894  z =  0.279068 angstrom
           Maximum rank =  0   Radius =  0.325 angstrom
                   Q00  =   0.079533

C          x =  1.052875  y =  1.628580  z =  0.919063 angstrom
           Maximum rank =  0   Radius =  0.650 angstrom
                   Q00  =  -0.231823

C          x =  2.397875  y =  1.549580  z =  0.222063 angstrom
           Maximum rank =  0   Radius =  0.650 angstrom
                   Q00  =  -0.241476

H          x =  0.539875  y =  2.562580  z =  0.686063 angstrom
           Maximum rank =  0   Radius =  0.325 angstrom
                   Q00  =   0.077759

H          x =  0.439875  y =  0.805580  z =  0.583063 angstrom
           Maximum rank =  0   Radius =  0.325 angstrom
                   Q00  =   0.087475

H          x =  1.196875  y =  1.544580  z =  1.988063 angstrom
           Maximum rank =  0   Radius =  0.325 angstrom
                   Q00  =   0.075945

H          x =  2.221875  y =  1.605580  z = -0.851937 angstrom
           Maximum rank =  0   Radius =  0.325 angstrom
                   Q00  =   0.074142

H          x =  3.042695  y =  2.388713  z =  0.522164 angstrom
           Maximum rank =  0   Radius =  0.325 angstrom
                   Q00  =   0.077966

H          x =  2.894005  y =  0.588291  z =  0.421521 angstrom
           Maximum rank =  0   Radius =  0.325 angstrom
                   Q00  =   0.077773

Total multipoles referred to origin at
           x =   0.000000,  y =    0.000000,  z =    0.000000 angstrom
                   Q00  =  -0.000000

Finished at 13:39:52 on 28 Apr 2020

  DMA results are available in the Python driver through the
	  variable('DMA DISTRIBUTED MULTIPOLES')
  and
	  variable('DMA TOTAL MULTIPOLES')
  commands.

    Psi4 stopped on: Tuesday, 28 April 2020 01:39PM
    Psi4 wall time for execution: 0:00:11.20

*** Psi4 exiting successfully. Buy a developer a beer!
