                               Psi4 1.3.2 release

  ==> Input File <==

--------------------------------------------------------------------------
import numpy as np
set {scf_type pk
basis cc-pvdz
d_convergence 10
gdma_switch   0
gdma_limit    0
gdma_origin   [ 0.0,  0.0,  0.0 ]
}
molecule test {
    units Angstrom
    0 1
    --
    0 1
    C                0.976735106062101     0.723322404479453    -0.712183440844466
    C                2.201735106062102     1.615322404479453    -0.851183440844466
    C                1.429735106062101    -0.521677595520547    -1.480183440844466
    H                0.088735106062101     1.180322404479453    -1.148183440844466
    H                0.825735106062101     0.480322404479453     0.339816559155534
    H                2.173735106062102     2.143322404479453    -1.806183440844466
    H                2.235735106062101     2.323322404479453    -0.022183440844466
    H                1.279735106062101    -0.350677595520547    -2.547183440844466
    H                0.866735106062101    -1.398677595520547    -1.163183440844466
    H                3.049455106062101     0.914514404479453    -0.835443340844466
    H                2.499635106062101    -0.632779595520547    -1.250042570844466
    C               -1.649264893937899    -0.490677595520547     1.305816559155534
    C               -2.906264893937899    -1.273677595520547     1.694816559155534
    H               -1.026264893937899    -0.323677595520547     2.183816559155534
    H               -1.087264893937899    -1.055677595520547     0.562816559155534
    H               -1.932264893937899     0.473322404479453     0.880816559155534
    H               -3.508264893937899    -1.399677595520547     0.797816559155534
    H               -3.465104893937899    -0.708403595520547     2.455185559155534
    H               -2.627534893937899    -2.271997595520547     2.063142559155534

}
e, wfn = energy('scf', return_wfn=True)
gdma(wfn)
dmavals = variable('DMA DISTRIBUTED MULTIPOLES')
charges = np.array(dmavals)
print(charges)
np.save('SSI-052PRO-109LEU-1-dimer.npy', np.array(charges))--------------------------------------------------------------------------

*** tstart() called on ds3
*** at Mon Apr 27 22:49:58 2020

   => Loading Basis Set <=

    Name: CC-PVDZ
    Role: ORBITAL
    Keyword: BASIS
    atoms 1-3, 12-13  entry C          line   138 file /theoryfs2/ds/metcalf/miniconda2/envs/tf2gpu/share/psi4/basis/cc-pvdz.gbs
    atoms 4-11, 14-19 entry H          line    22 file /theoryfs2/ds/metcalf/miniconda2/envs/tf2gpu/share/psi4/basis/cc-pvdz.gbs

         ---------------------------------------------------------
                                   SCF
               by Justin Turney, Rob Parrish, Andy Simmonett
                          and Daniel G. A. Smith
                              RHF Reference
                        1 Threads,    500 MiB Core
         ---------------------------------------------------------

  ==> Geometry <==

    Molecular point group: c1
    Full point group: C1

    Geometry (in Angstrom), charge = 0, multiplicity = 1:

       Center              X                  Y                   Z               Mass
    ------------   -----------------  -----------------  -----------------  -----------------
         C            0.976735106062     0.723322404479    -0.712183440844    12.000000000000
         C            2.201735106062     1.615322404479    -0.851183440844    12.000000000000
         C            1.429735106062    -0.521677595521    -1.480183440844    12.000000000000
         H            0.088735106062     1.180322404479    -1.148183440844     1.007825032230
         H            0.825735106062     0.480322404479     0.339816559156     1.007825032230
         H            2.173735106062     2.143322404479    -1.806183440844     1.007825032230
         H            2.235735106062     2.323322404479    -0.022183440844     1.007825032230
         H            1.279735106062    -0.350677595521    -2.547183440844     1.007825032230
         H            0.866735106062    -1.398677595521    -1.163183440844     1.007825032230
         H            3.049455106062     0.914514404479    -0.835443340844     1.007825032230
         H            2.499635106062    -0.632779595521    -1.250042570844     1.007825032230
         C           -1.649264893938    -0.490677595521     1.305816559156    12.000000000000
         C           -2.906264893938    -1.273677595521     1.694816559156    12.000000000000
         H           -1.026264893938    -0.323677595521     2.183816559156     1.007825032230
         H           -1.087264893938    -1.055677595521     0.562816559156     1.007825032230
         H           -1.932264893938     0.473322404479     0.880816559156     1.007825032230
         H           -3.508264893938    -1.399677595521     0.797816559156     1.007825032230
         H           -3.465104893938    -0.708403595521     2.455185559156     1.007825032230
         H           -2.627534893938    -2.271997595521     2.063142559156     1.007825032230

  Running in c1 symmetry.

  Rotational constants: A =      0.30529  B =      0.03640  C =      0.03368 [cm^-1]
  Rotational constants: A =   9152.30183  B =   1091.11630  C =   1009.83891 [MHz]
  Nuclear repulsion =  178.587954317457871

  Charge       = 0
  Multiplicity = 1
  Electrons    = 44
  Nalpha       = 22
  Nbeta        = 22

  ==> Algorithm <==

  SCF Algorithm Type is PK.
  DIIS enabled.
  MOM disabled.
  Fractional occupation disabled.
  Guess Type is SAD.
  Energy threshold   = 1.00e-06
  Density threshold  = 1.00e-10
  Integral threshold = 0.00e+00

  ==> Primary Basis <==

  Basis Set: CC-PVDZ
    Blend: CC-PVDZ
    Number of shells: 72
    Number of basis function: 140
    Number of Cartesian functions: 145
    Spherical Harmonics?: true
    Max angular momentum: 2

  ==> Pre-Iterations <==

   -------------------------------------------------------
    Irrep   Nso     Nmo     Nalpha   Nbeta   Ndocc  Nsocc
   -------------------------------------------------------
     A        140     140       0       0       0       0
   -------------------------------------------------------
    Total     140     140      22      22      22       0
   -------------------------------------------------------

  ==> Integral Setup <==

  Using integral reordering PK algorithm.
  Sizing the integral batches needed.
  Building batch lookup table.
   Calculation information:
      Number of atoms:                  19
      Number of AO shells:              72
      Number of primitives:            180
      Number of atomic orbitals:       145
      Number of basis functions:       140

      Integral cutoff                 1.00e-12
      Number of threads:                 1

	Batch   1 pq = [       0,    9405] index = [             0,44231715] size =     44231715
	Batch   2 pq = [    9405,    9870] index = [      44231715,48713385] size =      4481670
  Task number: 5
  Buffer size: 11059200
  Buffer per thread: 2
  We computed 2775347 shell quartets total.
  Whereas there are 3454506 unique shell quartets.

  ==> DiskJK: Disk-Based J/K Matrices <==

    J tasked:                  Yes
    K tasked:                  Yes
    wK tasked:                  No
    Memory [MiB]:              375
    Schwarz Cutoff:          1E-12

    OpenMP threads:              1

  Minimum eigenvalue in the overlap matrix is 4.7317146570E-03.
  Using Symmetric Orthogonalization.

  SCF Guess: Superposition of Atomic Densities via on-the-fly atomic UHF.

  ==> Iterations <==

                        Total Energy        Delta E     RMS |[F,P]|

   @RHF iter SAD:  -196.49460168830922   -1.96495e+02   0.00000e+00
   @RHF iter   1:  -197.29045139578929   -7.95850e-01   3.84605e-03 DIIS
   @RHF iter   2:  -197.45201304175515   -1.61562e-01   1.66991e-03 DIIS
   @RHF iter   3:  -197.48131157102725   -2.92985e-02   3.29414e-04 DIIS
   @RHF iter   4:  -197.48353354274909   -2.22197e-03   4.83626e-05 DIIS
   @RHF iter   5:  -197.48357328041664   -3.97377e-05   1.50299e-05 DIIS
   @RHF iter   6:  -197.48357678360966   -3.50319e-06   2.75907e-06 DIIS
   @RHF iter   7:  -197.48357692148008   -1.37870e-07   4.87838e-07 DIIS
   @RHF iter   8:  -197.48357692686119   -5.38111e-09   1.01658e-07 DIIS
   @RHF iter   9:  -197.48357692711554   -2.54346e-10   3.23567e-08 DIIS
   @RHF iter  10:  -197.48357692713876   -2.32205e-11   8.67798e-09 DIIS
   @RHF iter  11:  -197.48357692714083   -2.07478e-12   1.65012e-09 DIIS
   @RHF iter  12:  -197.48357692714117   -3.41061e-13   3.25088e-10 DIIS
   @RHF iter  13:  -197.48357692714009    1.08002e-12   6.38726e-11 DIIS
  Energy and wave function converged.

  ==> Post-Iterations <==

    Orbital Energies [Eh]
    ---------------------

    Doubly Occupied:

       1A    -11.218908     2A    -11.216291     3A    -11.214675
       4A    -11.213218     5A    -11.211271     6A     -1.064289
       7A     -1.018335     8A     -0.910400     9A     -0.836150
      10A     -0.798144    11A     -0.636860    12A     -0.610731
      13A     -0.599928    14A     -0.597420    15A     -0.539841
      16A     -0.511657    17A     -0.499348    18A     -0.488540
      19A     -0.487145    20A     -0.482956    21A     -0.469040
      22A     -0.449204

    Virtual:

      23A      0.175017    24A      0.194763    25A      0.218421
      26A      0.220848    27A      0.226290    28A      0.249964
      29A      0.252825    30A      0.269179    31A      0.279377
      32A      0.285765    33A      0.301548    34A      0.317714
      35A      0.329567    36A      0.348723    37A      0.385079
      38A      0.401491    39A      0.432361    40A      0.560559
      41A      0.591812    42A      0.598153    43A      0.601417
      44A      0.607424    45A      0.633246    46A      0.656981
      47A      0.681696    48A      0.695089    49A      0.750778
      50A      0.796771    51A      0.822729    52A      0.848877
      53A      0.854692    54A      0.874735    55A      0.892279
      56A      0.894210    57A      0.895492    58A      0.899717
      59A      0.906791    60A      0.910897    61A      0.911302
      62A      0.919223    63A      0.929120    64A      0.940851
      65A      0.963366    66A      0.968884    67A      0.995084
      68A      1.015285    69A      1.107242    70A      1.129814
      71A      1.131898    72A      1.135813    73A      1.201624
      74A      1.255603    75A      1.421135    76A      1.455898
      77A      1.479400    78A      1.482265    79A      1.489506
      80A      1.583898    81A      1.622182    82A      1.625561
      83A      1.639673    84A      1.675135    85A      1.691423
      86A      1.730701    87A      1.748091    88A      1.808401
      89A      1.852702    90A      1.858173    91A      1.863010
      92A      1.878820    93A      1.913222    94A      1.916095
      95A      1.923783    96A      1.936161    97A      1.938970
      98A      1.945842    99A      1.957733   100A      1.959123
     101A      1.968719   102A      1.983849   103A      2.000334
     104A      2.029529   105A      2.048335   106A      2.082070
     107A      2.102143   108A      2.120469   109A      2.132731
     110A      2.142534   111A      2.181387   112A      2.241838
     113A      2.294664   114A      2.311005   115A      2.336780
     116A      2.351219   117A      2.447145   118A      2.456300
     119A      2.470773   120A      2.475437   121A      2.506241
     122A      2.546922   123A      2.564629   124A      2.579599
     125A      2.638430   126A      2.695372   127A      2.751165
     128A      2.766597   129A      2.787532   130A      2.790481
     131A      2.799688   132A      2.824097   133A      2.836091
     134A      2.851253   135A      2.887775   136A      2.927911
     137A      2.952680   138A      2.960775   139A      2.963950
     140A      3.054627

    Final Occupation by Irrep:
              A
    DOCC [    22 ]

  @RHF Final Energy:  -197.48357692714009

   => Energetics <=

    Nuclear Repulsion Energy =            178.5879543174578714
    One-Electron Energy =                -617.9943585449639158
    Two-Electron Energy =                 241.9228273003659808
    Total Energy =                       -197.4835769271400920

Computation Completed

Properties will be evaluated at   0.000000,   0.000000,   0.000000 [a0]

Properties computed using the SCF density matrix

  Nuclear Dipole Moment: [e a0]
     X:    -0.5880      Y:    -0.5873      Z:     0.4791

  Electronic Dipole Moment: [e a0]
     X:     0.5484      Y:     0.5974      Z:    -0.4733

  Dipole Moment: [e a0]
     X:    -0.0396      Y:     0.0101      Z:     0.0058     Total:     0.0413

  Dipole Moment: [D]
     X:    -0.1007      Y:     0.0257      Z:     0.0147     Total:     0.1050

*** tstop() called on ds3 at Mon Apr 27 22:50:19 2020
Module time:
	user time   =      15.46 seconds =       0.26 minutes
	system time =       6.26 seconds =       0.10 minutes
	total time  =         21 seconds =       0.35 minutes
Total time:
	user time   =      15.46 seconds =       0.26 minutes
	system time =       6.26 seconds =       0.10 minutes
	total time  =         21 seconds =       0.35 minutes
                                     G D M A

                                 by Anthony Stone

                           version 2.2.06, 22 June 2011

               Distributed Multipoles from Gaussian wavefunctions

Starting at 22:50:19 on 27 Apr 2020

Using SCF density matrix from file ./SSI/SSI-052PRO-109LEU-1-dimer.test.28703.fchk

                         Distributed Multipole Analysis

Standard DMA

Positions and radii in angstrom
Multipole moments in atomic units, ea_0^k for rank k

C          x =  0.976735  y =  0.723322  z = -0.712183 angstrom
           Maximum rank =  0   Radius =  0.650 angstrom
                   Q00  =  -0.104764

C          x =  2.201735  y =  1.615322  z = -0.851183 angstrom
           Maximum rank =  0   Radius =  0.650 angstrom
                   Q00  =  -0.227735

C          x =  1.429735  y = -0.521678  z = -1.480183 angstrom
           Maximum rank =  0   Radius =  0.650 angstrom
                   Q00  =  -0.212412

H          x =  0.088735  y =  1.180322  z = -1.148183 angstrom
           Maximum rank =  0   Radius =  0.325 angstrom
                   Q00  =   0.059159

H          x =  0.825735  y =  0.480322  z =  0.339817 angstrom
           Maximum rank =  0   Radius =  0.325 angstrom
                   Q00  =   0.055811

H          x =  2.173735  y =  2.143322  z = -1.806183 angstrom
           Maximum rank =  0   Radius =  0.325 angstrom
                   Q00  =   0.077684

H          x =  2.235735  y =  2.323322  z = -0.022183 angstrom
           Maximum rank =  0   Radius =  0.325 angstrom
                   Q00  =   0.077397

H          x =  1.279735  y = -0.350678  z = -2.547183 angstrom
           Maximum rank =  0   Radius =  0.325 angstrom
                   Q00  =   0.078603

H          x =  0.866735  y = -1.398678  z = -1.163183 angstrom
           Maximum rank =  0   Radius =  0.325 angstrom
                   Q00  =   0.077810

H          x =  3.049455  y =  0.914514  z = -0.835443 angstrom
           Maximum rank =  0   Radius =  0.325 angstrom
                   Q00  =   0.061699

H          x =  2.499635  y = -0.632780  z = -1.250043 angstrom
           Maximum rank =  0   Radius =  0.325 angstrom
                   Q00  =   0.054120

C          x = -1.649265  y = -0.490678  z =  1.305817 angstrom
           Maximum rank =  0   Radius =  0.650 angstrom
                   Q00  =  -0.231846

C          x = -2.906265  y = -1.273678  z =  1.694817 angstrom
           Maximum rank =  0   Radius =  0.650 angstrom
                   Q00  =  -0.240217

H          x = -1.026265  y = -0.323678  z =  2.183817 angstrom
           Maximum rank =  0   Radius =  0.325 angstrom
                   Q00  =   0.077199

H          x = -1.087265  y = -1.055678  z =  0.562817 angstrom
           Maximum rank =  0   Radius =  0.325 angstrom
                   Q00  =   0.079130

H          x = -1.932265  y =  0.473322  z =  0.880817 angstrom
           Maximum rank =  0   Radius =  0.325 angstrom
                   Q00  =   0.079315

H          x = -3.508265  y = -1.399678  z =  0.797817 angstrom
           Maximum rank =  0   Radius =  0.325 angstrom
                   Q00  =   0.079487

H          x = -3.465105  y = -0.708404  z =  2.455186 angstrom
           Maximum rank =  0   Radius =  0.325 angstrom
                   Q00  =   0.080272

H          x = -2.627535  y = -2.271998  z =  2.063143 angstrom
           Maximum rank =  0   Radius =  0.325 angstrom
                   Q00  =   0.079289

Total multipoles referred to origin at
           x =   0.000000,  y =    0.000000,  z =    0.000000 angstrom
                   Q00  =  -0.000000

Finished at 22:50:19 on 27 Apr 2020

  DMA results are available in the Python driver through the
	  variable('DMA DISTRIBUTED MULTIPOLES')
  and
	  variable('DMA TOTAL MULTIPOLES')
  commands.

    Psi4 stopped on: Monday, 27 April 2020 10:50PM
    Psi4 wall time for execution: 0:00:21.01

*** Psi4 exiting successfully. Buy a developer a beer!
