                               Psi4 1.3.2 release

  ==> Input File <==

--------------------------------------------------------------------------
import numpy as np
set {scf_type pk
basis cc-pvdz
d_convergence 10
gdma_switch   0
gdma_limit    0
gdma_origin   [ 0.0,  0.0,  0.0 ]
}
molecule test {
    units Angstrom
    -1 1
    --
    -1 1
    C                1.005577138792167    -1.456073025982789    -0.512627945214400
    C               -0.338422861207833    -1.191073025982789     0.139372054785600
    O               -1.326422861207833    -1.007073025982788    -0.598627945214400
    O               -0.405422861207833    -1.143073025982789     1.387372054785600
    H                1.693577138792167    -1.767073025982788     0.271372054785600
    H                1.396577138792167    -0.527073025982789    -0.932627945214400
    H                0.969007138792167    -2.210633025982788    -1.312192945214400
    C                0.054577138792167     2.329926974017212    -0.800627945214400
    C                0.987577138792167     2.374926974017212     0.392372054785600
    H                0.581577138792167     1.941926974017211    -1.669627945214400
    H               -0.791422861207833     1.678926974017212    -0.586627945214400
    H               -0.318422861207833     3.328926974017212    -1.024627945214400
    H                1.359577138792167     1.371926974017212     0.603372054785600
    H                1.819737138792167     3.061486974017211     0.177553054785600
    H                0.422997138792167     2.745186974017212     1.260793054785600

}
e, wfn = energy('scf', return_wfn=True)
gdma(wfn)
dmavals = variable('DMA DISTRIBUTED MULTIPOLES')
charges = np.array(dmavals)
print(charges)
np.save('SSI-140GLU-143VAL-1-dimer.npy', np.array(charges))--------------------------------------------------------------------------

*** tstart() called on ds3
*** at Tue Apr 28 15:39:49 2020

   => Loading Basis Set <=

    Name: CC-PVDZ
    Role: ORBITAL
    Keyword: BASIS
    atoms 1-2, 8-9   entry C          line   138 file /theoryfs2/ds/metcalf/miniconda2/envs/tf2gpu/share/psi4/basis/cc-pvdz.gbs
    atoms 3-4        entry O          line   198 file /theoryfs2/ds/metcalf/miniconda2/envs/tf2gpu/share/psi4/basis/cc-pvdz.gbs
    atoms 5-7, 10-15 entry H          line    22 file /theoryfs2/ds/metcalf/miniconda2/envs/tf2gpu/share/psi4/basis/cc-pvdz.gbs

         ---------------------------------------------------------
                                   SCF
               by Justin Turney, Rob Parrish, Andy Simmonett
                          and Daniel G. A. Smith
                              RHF Reference
                        1 Threads,    500 MiB Core
         ---------------------------------------------------------

  ==> Geometry <==

    Molecular point group: c1
    Full point group: C1

    Geometry (in Angstrom), charge = -1, multiplicity = 1:

       Center              X                  Y                   Z               Mass
    ------------   -----------------  -----------------  -----------------  -----------------
         C            1.005577138792    -1.456073025983    -0.512627945214    12.000000000000
         C           -0.338422861208    -1.191073025983     0.139372054786    12.000000000000
         O           -1.326422861208    -1.007073025983    -0.598627945214    15.994914619570
         O           -0.405422861208    -1.143073025983     1.387372054786    15.994914619570
         H            1.693577138792    -1.767073025983     0.271372054786     1.007825032230
         H            1.396577138792    -0.527073025983    -0.932627945214     1.007825032230
         H            0.969007138792    -2.210633025983    -1.312192945214     1.007825032230
         C            0.054577138792     2.329926974017    -0.800627945214    12.000000000000
         C            0.987577138792     2.374926974017     0.392372054786    12.000000000000
         H            0.581577138792     1.941926974017    -1.669627945214     1.007825032230
         H           -0.791422861208     1.678926974017    -0.586627945214     1.007825032230
         H           -0.318422861208     3.328926974017    -1.024627945214     1.007825032230
         H            1.359577138792     1.371926974017     0.603372054786     1.007825032230
         H            1.819737138792     3.061486974017     0.177553054786     1.007825032230
         H            0.422997138792     2.745186974017     1.260793054786     1.007825032230

  Running in c1 symmetry.

  Rotational constants: A =      0.14818  B =      0.05231  C =      0.05074 [cm^-1]
  Rotational constants: A =   4442.42639  B =   1568.17275  C =   1521.14543 [MHz]
  Nuclear repulsion =  230.717237884457177

  Charge       = -1
  Multiplicity = 1
  Electrons    = 50
  Nalpha       = 25
  Nbeta        = 25

  ==> Algorithm <==

  SCF Algorithm Type is PK.
  DIIS enabled.
  MOM disabled.
  Fractional occupation disabled.
  Guess Type is SAD.
  Energy threshold   = 1.00e-06
  Density threshold  = 1.00e-10
  Integral threshold = 0.00e+00

  ==> Primary Basis <==

  Basis Set: CC-PVDZ
    Blend: CC-PVDZ
    Number of shells: 63
    Number of basis function: 129
    Number of Cartesian functions: 135
    Spherical Harmonics?: true
    Max angular momentum: 2

  ==> Pre-Iterations <==

   -------------------------------------------------------
    Irrep   Nso     Nmo     Nalpha   Nbeta   Ndocc  Nsocc
   -------------------------------------------------------
     A        129     129       0       0       0       0
   -------------------------------------------------------
    Total     129     129      25      25      25       0
   -------------------------------------------------------

  ==> Integral Setup <==

  Using integral reordering PK algorithm.
  Sizing the integral batches needed.
  Building batch lookup table.
   Calculation information:
      Number of atoms:                  15
      Number of AO shells:              63
      Number of primitives:            177
      Number of atomic orbitals:       135
      Number of basis functions:       129

      Integral cutoff                 1.00e-12
      Number of threads:                 1

	Batch   1 pq = [       0,    8385] index = [             0,35158305] size =     35158305
  Task number: 4
  Buffer size: 11059200
  Buffer per thread: 2
  We computed 1956434 shell quartets total.
  Whereas there are 2033136 unique shell quartets.

  ==> DiskJK: Disk-Based J/K Matrices <==

    J tasked:                  Yes
    K tasked:                  Yes
    wK tasked:                  No
    Memory [MiB]:              375
    Schwarz Cutoff:          1E-12

    OpenMP threads:              1

  Minimum eigenvalue in the overlap matrix is 5.2389484261E-03.
  Using Symmetric Orthogonalization.

  SCF Guess: Superposition of Atomic Densities via on-the-fly atomic UHF.

  ==> Iterations <==

                        Total Energy        Delta E     RMS |[F,P]|

   @RHF iter SAD:  -304.90941227044840   -3.04909e+02   0.00000e+00
   @RHF iter   1:  -306.20927777195311   -1.29987e+00   5.66023e-03 DIIS
   @RHF iter   2:  -306.41162721525473   -2.02349e-01   3.15693e-03 DIIS
   @RHF iter   3:  -306.47249233220793   -6.08651e-02   4.69055e-04 DIIS
   @RHF iter   4:  -306.47502921685498   -2.53688e-03   1.79375e-04 DIIS
   @RHF iter   5:  -306.47540940133030   -3.80184e-04   2.56456e-05 DIIS
   @RHF iter   6:  -306.47541982032732   -1.04190e-05   6.39404e-06 DIIS
   @RHF iter   7:  -306.47542034997446   -5.29647e-07   2.35472e-06 DIIS
   @RHF iter   8:  -306.47542040941056   -5.94361e-08   8.63248e-07 DIIS
   @RHF iter   9:  -306.47542041740621   -7.99565e-09   2.55088e-07 DIIS
   @RHF iter  10:  -306.47542041886658   -1.46036e-09   9.08992e-08 DIIS
   @RHF iter  11:  -306.47542041910413   -2.37549e-10   2.45685e-08 DIIS
   @RHF iter  12:  -306.47542041912305   -1.89289e-11   7.39482e-09 DIIS
   @RHF iter  13:  -306.47542041912499   -1.93268e-12   2.61526e-09 DIIS
   @RHF iter  14:  -306.47542041912686   -1.87583e-12   8.76191e-10 DIIS
   @RHF iter  15:  -306.47542041912487    1.98952e-12   3.26856e-10 DIIS
   @RHF iter  16:  -306.47542041912635   -1.47793e-12   1.05367e-10 DIIS
   @RHF iter  17:  -306.47542041912624    1.13687e-13   3.87430e-11 DIIS
  Energy and wave function converged.

  ==> Post-Iterations <==

    Orbital Energies [Eh]
    ---------------------

    Doubly Occupied:

       1A    -20.255912     2A    -20.253269     3A    -11.111405
       4A    -11.093719     5A    -11.083826     6A    -11.048137
       7A     -1.146980     8A     -1.032241     9A     -0.894490
      10A     -0.795922    11A     -0.707264    12A     -0.498378
      13A     -0.476208    14A     -0.471992    15A     -0.408650
      16A     -0.406697    17A     -0.398989    18A     -0.373616
      19A     -0.359280    20A     -0.355895    21A     -0.338717
      22A     -0.300572    23A     -0.180738    24A     -0.167314
      25A     -0.156342

    Virtual:

      26A      0.304952    27A      0.353100    28A      0.359377
      29A      0.372989    30A      0.380979    31A      0.413814
      32A      0.430395    33A      0.441563    34A      0.447917
      35A      0.511558    36A      0.523218    37A      0.580127
      38A      0.684837    39A      0.713846    40A      0.727628
      41A      0.741718    42A      0.770236    43A      0.793059
      44A      0.822953    45A      0.848938    46A      0.901519
      47A      0.967811    48A      0.979370    49A      0.984479
      50A      1.012675    51A      1.026247    52A      1.036855
      53A      1.046575    54A      1.053843    55A      1.058377
      56A      1.067740    57A      1.095460    58A      1.121059
      59A      1.148635    60A      1.164727    61A      1.247569
      62A      1.258281    63A      1.267660    64A      1.331565
      65A      1.356329    66A      1.368326    67A      1.398254
      68A      1.545055    69A      1.566369    70A      1.590340
      71A      1.603225    72A      1.610946    73A      1.630343
      74A      1.671591    75A      1.691167    76A      1.717091
      77A      1.747426    78A      1.803913    79A      1.833375
      80A      1.847937    81A      1.861668    82A      1.985308
      83A      1.988910    84A      2.033018    85A      2.063924
      86A      2.066975    87A      2.080618    88A      2.083317
      89A      2.095435    90A      2.101610    91A      2.109618
      92A      2.145216    93A      2.147101    94A      2.215456
      95A      2.238796    96A      2.260023    97A      2.285350
      98A      2.391170    99A      2.413861   100A      2.437515
     101A      2.450550   102A      2.458096   103A      2.569949
     104A      2.592247   105A      2.599026   106A      2.666289
     107A      2.702405   108A      2.719280   109A      2.745440
     110A      2.790937   111A      2.896194   112A      2.929528
     113A      2.940672   114A      2.971688   115A      2.973187
     116A      2.982014   117A      3.020887   118A      3.094369
     119A      3.101490   120A      3.246060   121A      3.282293
     122A      3.302069   123A      3.369251   124A      3.645604
     125A      3.789629   126A      3.839230   127A      4.069682
     128A      4.088262   129A      4.203482

    Final Occupation by Irrep:
              A
    DOCC [    25 ]

  @RHF Final Energy:  -306.47542041912624

   => Energetics <=

    Nuclear Repulsion Energy =            230.7172378844571767
    One-Electron Energy =                -885.7522095518534115
    Two-Electron Energy =                 348.5595512482699974
    Total Energy =                       -306.4754204191262374

Computation Completed

Properties will be evaluated at   0.000000,   0.000000,   0.000000 [a0]

Properties computed using the SCF density matrix

  Nuclear Dipole Moment: [e a0]
     X:     6.6788      Y:     9.0115      Z:    -3.0079

  Electronic Dipole Moment: [e a0]
     X:    -5.0271      Y:    -7.4078      Z:     2.2274

  Dipole Moment: [e a0]
     X:     1.6517      Y:     1.6037      Z:    -0.7805     Total:     2.4309

  Dipole Moment: [D]
     X:     4.1982      Y:     4.0762      Z:    -1.9838     Total:     6.1787

*** tstop() called on ds3 at Tue Apr 28 15:40:12 2020
Module time:
	user time   =      13.98 seconds =       0.23 minutes
	system time =       5.04 seconds =       0.08 minutes
	total time  =         23 seconds =       0.38 minutes
Total time:
	user time   =      13.98 seconds =       0.23 minutes
	system time =       5.04 seconds =       0.08 minutes
	total time  =         23 seconds =       0.38 minutes
                                     G D M A

                                 by Anthony Stone

                           version 2.2.06, 22 June 2011

               Distributed Multipoles from Gaussian wavefunctions

Starting at 15:40:12 on 28 Apr 2020

Using SCF density matrix from file ./SSI/SSI-140GLU-143VAL-1-dimer.test.10242.fchk

                         Distributed Multipole Analysis

Standard DMA

Positions and radii in angstrom
Multipole moments in atomic units, ea_0^k for rank k

C          x =  1.005577  y = -1.456073  z = -0.512628 angstrom
           Maximum rank =  0   Radius =  0.650 angstrom
                   Q00  =  -0.279902

C          x = -0.338423  y = -1.191073  z =  0.139372 angstrom
           Maximum rank =  0   Radius =  0.650 angstrom
                   Q00  =   0.984962

O          x = -1.326423  y = -1.007073  z = -0.598628 angstrom
           Maximum rank =  0   Radius =  0.650 angstrom
                   Q00  =  -0.935363

O          x = -0.405423  y = -1.143073  z =  1.387372 angstrom
           Maximum rank =  0   Radius =  0.650 angstrom
                   Q00  =  -0.940850

H          x =  1.693577  y = -1.767073  z =  0.271372 angstrom
           Maximum rank =  0   Radius =  0.325 angstrom
                   Q00  =   0.047025

H          x =  1.396577  y = -0.527073  z = -0.932628 angstrom
           Maximum rank =  0   Radius =  0.325 angstrom
                   Q00  =   0.068664

H          x =  0.969007  y = -2.210633  z = -1.312193 angstrom
           Maximum rank =  0   Radius =  0.325 angstrom
                   Q00  =   0.063771

C          x =  0.054577  y =  2.329927  z = -0.800628 angstrom
           Maximum rank =  0   Radius =  0.650 angstrom
                   Q00  =  -0.204435

C          x =  0.987577  y =  2.374927  z =  0.392372 angstrom
           Maximum rank =  0   Radius =  0.650 angstrom
                   Q00  =  -0.219693

H          x =  0.581577  y =  1.941927  z = -1.669628 angstrom
           Maximum rank =  0   Radius =  0.325 angstrom
                   Q00  =   0.063315

H          x = -0.791423  y =  1.678927  z = -0.586628 angstrom
           Maximum rank =  0   Radius =  0.325 angstrom
                   Q00  =   0.124037

H          x = -0.318423  y =  3.328927  z = -1.024628 angstrom
           Maximum rank =  0   Radius =  0.325 angstrom
                   Q00  =   0.031264

H          x =  1.359577  y =  1.371927  z =  0.603372 angstrom
           Maximum rank =  0   Radius =  0.325 angstrom
                   Q00  =   0.100470

H          x =  1.819737  y =  3.061487  z =  0.177553 angstrom
           Maximum rank =  0   Radius =  0.325 angstrom
                   Q00  =   0.027036

H          x =  0.422997  y =  2.745187  z =  1.260793 angstrom
           Maximum rank =  0   Radius =  0.325 angstrom
                   Q00  =   0.069700

Total multipoles referred to origin at
           x =   0.000000,  y =    0.000000,  z =    0.000000 angstrom
                   Q00  =  -1.000000

Finished at 15:40:12 on 28 Apr 2020

  DMA results are available in the Python driver through the
	  variable('DMA DISTRIBUTED MULTIPOLES')
  and
	  variable('DMA TOTAL MULTIPOLES')
  commands.

    Psi4 stopped on: Tuesday, 28 April 2020 03:40PM
    Psi4 wall time for execution: 0:00:22.52

*** Psi4 exiting successfully. Buy a developer a beer!
