                               Psi4 1.3.2 release

  ==> Input File <==

--------------------------------------------------------------------------
import numpy as np
set {scf_type pk
basis cc-pvdz
d_convergence 10
gdma_switch   0
gdma_limit    0
gdma_origin   [ 0.0,  0.0,  0.0 ]
}
molecule test {
    units Angstrom
    0 1
    --
    0 1
    C                0.062814020318223    -0.588148901045913     1.371584293664756
    C                0.592814020318223    -0.209148901045913     2.736584293664756
    C                1.282814020318223    -1.082148901045914     0.633584293664756
    H               -0.399185979681777     0.262851098954087     0.869584293664757
    H               -0.654185979681777    -1.403148901045913     1.474584293664756
    H                0.967814020318223     0.814851098954087     2.721584293664757
    H               -0.190185979681777    -0.330148901045913     3.486584293664756
    H                1.855814020318223    -0.218148901045913     0.293584293664757
    H                1.023814020318223    -1.724148901045913    -0.209415706335243
    H                1.426799020318223    -0.909995901045914     2.889170293664757
    H                1.841424020318223    -1.629920901045913     1.406824293664756
    C               -0.796185979681777     0.187851098954087    -2.234415706335243
    C               -1.148185979681777     1.659851098954086    -2.425415706335244
    H                0.157814020318223     0.092851098954087    -1.717415706335244
    H               -1.557185979681777    -0.301148901045913    -1.627415706335244
    H               -0.717185979681777    -0.314148901045913    -3.194415706335243
    H               -1.124185979681777     2.126851098954087    -1.446415706335244
    H               -0.404316979681777     2.153371098954087    -3.068140706335243
    H               -2.156439979681777     1.758011098954086    -2.854121706335244

}
e, wfn = energy('scf', return_wfn=True)
gdma(wfn)
dmavals = variable('DMA DISTRIBUTED MULTIPOLES')
charges = np.array(dmavals)
print(charges)
np.save('SSI-157PRO-161VAL-1-dimer.npy', np.array(charges))--------------------------------------------------------------------------

*** tstart() called on ds3
*** at Tue Apr 28 03:48:56 2020

   => Loading Basis Set <=

    Name: CC-PVDZ
    Role: ORBITAL
    Keyword: BASIS
    atoms 1-3, 12-13  entry C          line   138 file /theoryfs2/ds/metcalf/miniconda2/envs/tf2gpu/share/psi4/basis/cc-pvdz.gbs
    atoms 4-11, 14-19 entry H          line    22 file /theoryfs2/ds/metcalf/miniconda2/envs/tf2gpu/share/psi4/basis/cc-pvdz.gbs

         ---------------------------------------------------------
                                   SCF
               by Justin Turney, Rob Parrish, Andy Simmonett
                          and Daniel G. A. Smith
                              RHF Reference
                        1 Threads,    500 MiB Core
         ---------------------------------------------------------

  ==> Geometry <==

    Molecular point group: c1
    Full point group: C1

    Geometry (in Angstrom), charge = 0, multiplicity = 1:

       Center              X                  Y                   Z               Mass
    ------------   -----------------  -----------------  -----------------  -----------------
         C            0.062814020318    -0.588148901046     1.371584293665    12.000000000000
         C            0.592814020318    -0.209148901046     2.736584293665    12.000000000000
         C            1.282814020318    -1.082148901046     0.633584293665    12.000000000000
         H           -0.399185979682     0.262851098954     0.869584293665     1.007825032230
         H           -0.654185979682    -1.403148901046     1.474584293665     1.007825032230
         H            0.967814020318     0.814851098954     2.721584293665     1.007825032230
         H           -0.190185979682    -0.330148901046     3.486584293665     1.007825032230
         H            1.855814020318    -0.218148901046     0.293584293665     1.007825032230
         H            1.023814020318    -1.724148901046    -0.209415706335     1.007825032230
         H            1.426799020318    -0.909995901046     2.889170293665     1.007825032230
         H            1.841424020318    -1.629920901046     1.406824293665     1.007825032230
         C           -0.796185979682     0.187851098954    -2.234415706335    12.000000000000
         C           -1.148185979682     1.659851098954    -2.425415706335    12.000000000000
         H            0.157814020318     0.092851098954    -1.717415706335     1.007825032230
         H           -1.557185979682    -0.301148901046    -1.627415706335     1.007825032230
         H           -0.717185979682    -0.314148901046    -3.194415706335     1.007825032230
         H           -1.124185979682     2.126851098954    -1.446415706335     1.007825032230
         H           -0.404316979682     2.153371098954    -3.068140706335     1.007825032230
         H           -2.156439979682     1.758011098954    -2.854121706335     1.007825032230

  Running in c1 symmetry.

  Rotational constants: A =      0.25923  B =      0.04117  C =      0.03802 [cm^-1]
  Rotational constants: A =   7771.50672  B =   1234.12078  C =   1139.76928 [MHz]
  Nuclear repulsion =  181.138862961610016

  Charge       = 0
  Multiplicity = 1
  Electrons    = 44
  Nalpha       = 22
  Nbeta        = 22

  ==> Algorithm <==

  SCF Algorithm Type is PK.
  DIIS enabled.
  MOM disabled.
  Fractional occupation disabled.
  Guess Type is SAD.
  Energy threshold   = 1.00e-06
  Density threshold  = 1.00e-10
  Integral threshold = 0.00e+00

  ==> Primary Basis <==

  Basis Set: CC-PVDZ
    Blend: CC-PVDZ
    Number of shells: 72
    Number of basis function: 140
    Number of Cartesian functions: 145
    Spherical Harmonics?: true
    Max angular momentum: 2

  ==> Pre-Iterations <==

   -------------------------------------------------------
    Irrep   Nso     Nmo     Nalpha   Nbeta   Ndocc  Nsocc
   -------------------------------------------------------
     A        140     140       0       0       0       0
   -------------------------------------------------------
    Total     140     140      22      22      22       0
   -------------------------------------------------------

  ==> Integral Setup <==

  Using integral reordering PK algorithm.
  Sizing the integral batches needed.
  Building batch lookup table.
   Calculation information:
      Number of atoms:                  19
      Number of AO shells:              72
      Number of primitives:            180
      Number of atomic orbitals:       145
      Number of basis functions:       140

      Integral cutoff                 1.00e-12
      Number of threads:                 1

	Batch   1 pq = [       0,    9405] index = [             0,44231715] size =     44231715
	Batch   2 pq = [    9405,    9870] index = [      44231715,48713385] size =      4481670
  Task number: 5
  Buffer size: 11059200
  Buffer per thread: 2
  We computed 2915745 shell quartets total.
  Whereas there are 3454506 unique shell quartets.

  ==> DiskJK: Disk-Based J/K Matrices <==

    J tasked:                  Yes
    K tasked:                  Yes
    wK tasked:                  No
    Memory [MiB]:              375
    Schwarz Cutoff:          1E-12

    OpenMP threads:              1

  Minimum eigenvalue in the overlap matrix is 4.9020776541E-03.
  Using Symmetric Orthogonalization.

  SCF Guess: Superposition of Atomic Densities via on-the-fly atomic UHF.

  ==> Iterations <==

                        Total Energy        Delta E     RMS |[F,P]|

   @RHF iter SAD:  -196.54862379290284   -1.96549e+02   0.00000e+00
   @RHF iter   1:  -197.28916941136049   -7.40546e-01   3.88063e-03 DIIS
   @RHF iter   2:  -197.45276980910151   -1.63600e-01   1.69581e-03 DIIS
   @RHF iter   3:  -197.48291156186238   -3.01418e-02   3.31979e-04 DIIS
   @RHF iter   4:  -197.48516751492980   -2.25595e-03   5.14671e-05 DIIS
   @RHF iter   5:  -197.48521033688559   -4.28220e-05   1.56700e-05 DIIS
   @RHF iter   6:  -197.48521414851430   -3.81163e-06   2.61914e-06 DIIS
   @RHF iter   7:  -197.48521427521050   -1.26696e-07   4.78639e-07 DIIS
   @RHF iter   8:  -197.48521427987453   -4.66403e-09   1.11696e-07 DIIS
   @RHF iter   9:  -197.48521428011526   -2.40732e-10   3.49514e-08 DIIS
   @RHF iter  10:  -197.48521428014118   -2.59206e-11   7.78577e-09 DIIS
   @RHF iter  11:  -197.48521428014260   -1.42109e-12   1.50529e-09 DIIS
   @RHF iter  12:  -197.48521428014124    1.36424e-12   3.06301e-10 DIIS
   @RHF iter  13:  -197.48521428014234   -1.10845e-12   6.69180e-11 DIIS
  Energy and wave function converged.

  ==> Post-Iterations <==

    Orbital Energies [Eh]
    ---------------------

    Doubly Occupied:

       1A    -11.218796     2A    -11.214667     3A    -11.214093
       4A    -11.212755     5A    -11.212231     6A     -1.070247
       7A     -1.019418     8A     -0.915091     9A     -0.836586
      10A     -0.797500    11A     -0.640688    12A     -0.614421
      13A     -0.599373    14A     -0.597441    15A     -0.542963
      16A     -0.514300    17A     -0.499204    18A     -0.487112
      19A     -0.484552    20A     -0.481448    21A     -0.469035
      22A     -0.460073

    Virtual:

      23A      0.169207    24A      0.198401    25A      0.211869
      26A      0.222706    27A      0.233489    28A      0.250863
      29A      0.257824    30A      0.262443    31A      0.284790
      32A      0.285163    33A      0.287740    34A      0.319715
      35A      0.330645    36A      0.346483    37A      0.379039
      38A      0.404128    39A      0.433971    40A      0.567650
      41A      0.574316    42A      0.597597    43A      0.616064
      44A      0.624693    45A      0.630857    46A      0.635721
      47A      0.673343    48A      0.696746    49A      0.767512
      50A      0.788189    51A      0.826259    52A      0.845297
      53A      0.859069    54A      0.878406    55A      0.884522
      56A      0.894130    57A      0.895045    58A      0.901098
      59A      0.903448    60A      0.910570    61A      0.916317
      62A      0.925733    63A      0.928138    64A      0.940764
      65A      0.961287    66A      0.977422    67A      1.011968
      68A      1.028257    69A      1.092600    70A      1.122535
      71A      1.128989    72A      1.144234    73A      1.203285
      74A      1.255681    75A      1.403019    76A      1.462027
      77A      1.476359    78A      1.483485    79A      1.495224
      80A      1.592224    81A      1.617509    82A      1.623070
      83A      1.630829    84A      1.679308    85A      1.698132
      86A      1.730467    87A      1.743202    88A      1.797774
      89A      1.855398    90A      1.860923    91A      1.868604
      92A      1.889376    93A      1.905352    94A      1.919487
      95A      1.928526    96A      1.937317    97A      1.946868
      98A      1.950108    99A      1.954831   100A      1.965727
     101A      1.976041   102A      1.983055   103A      2.015806
     104A      2.022919   105A      2.048724   106A      2.057294
     107A      2.110004   108A      2.114292   109A      2.128293
     110A      2.144657   111A      2.201556   112A      2.231471
     113A      2.293259   114A      2.305364   115A      2.327403
     116A      2.353624   117A      2.439273   118A      2.462103
     119A      2.467779   120A      2.476397   121A      2.505623
     122A      2.550459   123A      2.566942   124A      2.587666
     125A      2.637846   126A      2.700330   127A      2.754255
     128A      2.767982   129A      2.779979   130A      2.799760
     131A      2.814404   132A      2.848289   133A      2.857981
     134A      2.859007   135A      2.872519   136A      2.938199
     137A      2.943771   138A      2.963091   139A      2.974767
     140A      3.063219

    Final Occupation by Irrep:
              A
    DOCC [    22 ]

  @RHF Final Energy:  -197.48521428014234

   => Energetics <=

    Nuclear Repulsion Energy =            181.1388629616100161
    One-Electron Energy =                -623.0441730235772866
    Two-Electron Energy =                 244.4200957818249265
    Total Energy =                       -197.4852142801423440

Computation Completed

Properties will be evaluated at   0.000000,   0.000000,   0.000000 [a0]

Properties computed using the SCF density matrix

  Nuclear Dipole Moment: [e a0]
     X:     0.0662      Y:     0.3543      Z:    -0.9144

  Electronic Dipole Moment: [e a0]
     X:    -0.0937      Y:    -0.3617      Z:     0.9113

  Dipole Moment: [e a0]
     X:    -0.0276      Y:    -0.0074      Z:    -0.0031     Total:     0.0287

  Dipole Moment: [D]
     X:    -0.0700      Y:    -0.0187      Z:    -0.0079     Total:     0.0729

*** tstop() called on ds3 at Tue Apr 28 03:49:17 2020
Module time:
	user time   =      15.30 seconds =       0.26 minutes
	system time =       5.84 seconds =       0.10 minutes
	total time  =         21 seconds =       0.35 minutes
Total time:
	user time   =      15.30 seconds =       0.26 minutes
	system time =       5.84 seconds =       0.10 minutes
	total time  =         21 seconds =       0.35 minutes
                                     G D M A

                                 by Anthony Stone

                           version 2.2.06, 22 June 2011

               Distributed Multipoles from Gaussian wavefunctions

Starting at 3:49:17 on 28 Apr 2020

Using SCF density matrix from file ./SSI/SSI-157PRO-161VAL-1-dimer.test.25055.fchk

                         Distributed Multipole Analysis

Standard DMA

Positions and radii in angstrom
Multipole moments in atomic units, ea_0^k for rank k

C          x =  0.062814  y = -0.588149  z =  1.371584 angstrom
           Maximum rank =  0   Radius =  0.650 angstrom
                   Q00  =  -0.107077

C          x =  0.592814  y = -0.209149  z =  2.736584 angstrom
           Maximum rank =  0   Radius =  0.650 angstrom
                   Q00  =  -0.223096

C          x =  1.282814  y = -1.082149  z =  0.633584 angstrom
           Maximum rank =  0   Radius =  0.650 angstrom
                   Q00  =  -0.204493

H          x = -0.399186  y =  0.262851  z =  0.869584 angstrom
           Maximum rank =  0   Radius =  0.325 angstrom
                   Q00  =   0.054654

H          x = -0.654186  y = -1.403149  z =  1.474584 angstrom
           Maximum rank =  0   Radius =  0.325 angstrom
                   Q00  =   0.053191

H          x =  0.967814  y =  0.814851  z =  2.721584 angstrom
           Maximum rank =  0   Radius =  0.325 angstrom
                   Q00  =   0.078661

H          x = -0.190186  y = -0.330149  z =  3.486584 angstrom
           Maximum rank =  0   Radius =  0.325 angstrom
                   Q00  =   0.080480

H          x =  1.855814  y = -0.218149  z =  0.293584 angstrom
           Maximum rank =  0   Radius =  0.325 angstrom
                   Q00  =   0.073435

H          x =  1.023814  y = -1.724149  z = -0.209416 angstrom
           Maximum rank =  0   Radius =  0.325 angstrom
                   Q00  =   0.082854

H          x =  1.426799  y = -0.909996  z =  2.889170 angstrom
           Maximum rank =  0   Radius =  0.325 angstrom
                   Q00  =   0.059977

H          x =  1.841424  y = -1.629921  z =  1.406824 angstrom
           Maximum rank =  0   Radius =  0.325 angstrom
                   Q00  =   0.051782

C          x = -0.796186  y =  0.187851  z = -2.234416 angstrom
           Maximum rank =  0   Radius =  0.650 angstrom
                   Q00  =  -0.237121

C          x = -1.148186  y =  1.659851  z = -2.425416 angstrom
           Maximum rank =  0   Radius =  0.650 angstrom
                   Q00  =  -0.236355

H          x =  0.157814  y =  0.092851  z = -1.717416 angstrom
           Maximum rank =  0   Radius =  0.325 angstrom
                   Q00  =   0.080563

H          x = -1.557186  y = -0.301149  z = -1.627416 angstrom
           Maximum rank =  0   Radius =  0.325 angstrom
                   Q00  =   0.078849

H          x = -0.717186  y = -0.314149  z = -3.194416 angstrom
           Maximum rank =  0   Radius =  0.325 angstrom
                   Q00  =   0.078727

H          x = -1.124186  y =  2.126851  z = -1.446416 angstrom
           Maximum rank =  0   Radius =  0.325 angstrom
                   Q00  =   0.076003

H          x = -0.404317  y =  2.153371  z = -3.068141 angstrom
           Maximum rank =  0   Radius =  0.325 angstrom
                   Q00  =   0.079107

H          x = -2.156440  y =  1.758011  z = -2.854122 angstrom
           Maximum rank =  0   Radius =  0.325 angstrom
                   Q00  =   0.079858

Total multipoles referred to origin at
           x =   0.000000,  y =    0.000000,  z =    0.000000 angstrom
                   Q00  =  -0.000000

Finished at 3:49:17 on 28 Apr 2020

  DMA results are available in the Python driver through the
	  variable('DMA DISTRIBUTED MULTIPOLES')
  and
	  variable('DMA TOTAL MULTIPOLES')
  commands.

    Psi4 stopped on: Tuesday, 28 April 2020 03:49AM
    Psi4 wall time for execution: 0:00:20.84

*** Psi4 exiting successfully. Buy a developer a beer!
