                               Psi4 1.3.2 release

  ==> Input File <==

--------------------------------------------------------------------------
import numpy as np
set {scf_type pk
basis cc-pvdz
d_convergence 10
gdma_switch   0
gdma_limit    0
gdma_origin   [ 0.0,  0.0,  0.0 ]
}
molecule test {
    units Angstrom
    0 1
    --
    0 1
    C               -1.725962416574427     0.721255985131371    -2.661266741916593
    C               -1.078962416574427     2.082255985131371    -2.817266741916593
    H               -2.801962416574427     0.814255985131371    -2.789266741916593
    H               -1.332962416574427     0.040255985131371    -3.416266741916593
    H               -1.510962416574427     0.310255985131371    -1.674266741916593
    H                0.004037583425573     1.952255985131371    -2.882266741916593
    H               -1.304582416574427     2.731015985131371    -1.958076741916593
    H               -1.452982416574427     2.537398985131370    -3.746216741916593
    C               -1.044962416574427    -2.803744014868629     1.485733258083407
    C                0.870037583425573     0.008255985131371    -0.055266741916593
    C                0.031037583425573    -0.500744014868629     0.967733258083407
    C               -0.219962416574427    -1.865744014868630     0.680733258083407
    C                0.450037583425573    -2.127744014868630    -0.479266741916593
    C                1.344037583425573     1.302255985131371    -0.121266741916593
    C                0.961037583425573     2.155255985131370     0.898733258083407
    C               -0.352962416574427     0.373255985131371     1.983733258083407
    C                0.133037583425573     1.668255985131371     1.916733258083407
    N                1.099037583425573    -1.033744014868629    -0.929266741916593
    H                1.676037583425573    -1.005744014868629    -1.763266741916593
    H                2.001037583425573     1.626255985131370    -0.917266741916593
    H                0.429037583425573    -3.074744014868630    -0.985266741916593
    H                1.351037583425573     3.150255985131370     0.962733258083407
    H               -0.969962416574427     0.038255985131371     2.803733258083407
    H               -0.967962416574427    -2.514744014868630     2.535733258083407
    H               -0.606962416574427    -3.798744014868630     1.390733258083407
    H               -0.129962416574427     2.348255985131370     2.717733258083407
    H               -2.109292416574427    -2.850710014868630     1.211883258083407

}
e, wfn = energy('scf', return_wfn=True)
gdma(wfn)
dmavals = variable('DMA DISTRIBUTED MULTIPOLES')
charges = np.array(dmavals)
print(charges)
np.save('SSI-013ALA-096TRP-1-dimer.npy', np.array(charges))--------------------------------------------------------------------------

*** tstart() called on ds3
*** at Mon Apr 27 03:42:48 2020

   => Loading Basis Set <=

    Name: CC-PVDZ
    Role: ORBITAL
    Keyword: BASIS
    atoms 1-2, 9-17  entry C          line   138 file /theoryfs2/ds/metcalf/miniconda2/envs/tf2gpu/share/psi4/basis/cc-pvdz.gbs
    atoms 3-8, 19-27 entry H          line    22 file /theoryfs2/ds/metcalf/miniconda2/envs/tf2gpu/share/psi4/basis/cc-pvdz.gbs
    atoms 18         entry N          line   168 file /theoryfs2/ds/metcalf/miniconda2/envs/tf2gpu/share/psi4/basis/cc-pvdz.gbs

         ---------------------------------------------------------
                                   SCF
               by Justin Turney, Rob Parrish, Andy Simmonett
                          and Daniel G. A. Smith
                              RHF Reference
                        1 Threads,    500 MiB Core
         ---------------------------------------------------------

  ==> Geometry <==

    Molecular point group: c1
    Full point group: C1

    Geometry (in Angstrom), charge = 0, multiplicity = 1:

       Center              X                  Y                   Z               Mass
    ------------   -----------------  -----------------  -----------------  -----------------
         C           -1.725962416574     0.721255985131    -2.661266741917    12.000000000000
         C           -1.078962416574     2.082255985131    -2.817266741917    12.000000000000
         H           -2.801962416574     0.814255985131    -2.789266741917     1.007825032230
         H           -1.332962416574     0.040255985131    -3.416266741917     1.007825032230
         H           -1.510962416574     0.310255985131    -1.674266741917     1.007825032230
         H            0.004037583426     1.952255985131    -2.882266741917     1.007825032230
         H           -1.304582416574     2.731015985131    -1.958076741917     1.007825032230
         H           -1.452982416574     2.537398985131    -3.746216741917     1.007825032230
         C           -1.044962416574    -2.803744014869     1.485733258083    12.000000000000
         C            0.870037583426     0.008255985131    -0.055266741917    12.000000000000
         C            0.031037583426    -0.500744014869     0.967733258083    12.000000000000
         C           -0.219962416574    -1.865744014869     0.680733258083    12.000000000000
         C            0.450037583426    -2.127744014869    -0.479266741917    12.000000000000
         C            1.344037583426     1.302255985131    -0.121266741917    12.000000000000
         C            0.961037583426     2.155255985131     0.898733258083    12.000000000000
         C           -0.352962416574     0.373255985131     1.983733258083    12.000000000000
         C            0.133037583426     1.668255985131     1.916733258083    12.000000000000
         N            1.099037583426    -1.033744014869    -0.929266741917    14.003074004430
         H            1.676037583426    -1.005744014869    -1.763266741917     1.007825032230
         H            2.001037583426     1.626255985131    -0.917266741917     1.007825032230
         H            0.429037583426    -3.074744014869    -0.985266741917     1.007825032230
         H            1.351037583426     3.150255985131     0.962733258083     1.007825032230
         H           -0.969962416574     0.038255985131     2.803733258083     1.007825032230
         H           -0.967962416574    -2.514744014869     2.535733258083     1.007825032230
         H           -0.606962416574    -3.798744014869     1.390733258083     1.007825032230
         H           -0.129962416574     2.348255985131     2.717733258083     1.007825032230
         H           -2.109292416574    -2.850710014869     1.211883258083     1.007825032230

  Running in c1 symmetry.

  Rotational constants: A =      0.03404  B =      0.02511  C =      0.01880 [cm^-1]
  Rotational constants: A =   1020.44315  B =    752.88533  C =    563.47333 [MHz]
  Nuclear repulsion =  674.750298456429391

  Charge       = 0
  Multiplicity = 1
  Electrons    = 88
  Nalpha       = 44
  Nbeta        = 44

  ==> Algorithm <==

  SCF Algorithm Type is PK.
  DIIS enabled.
  MOM disabled.
  Fractional occupation disabled.
  Guess Type is SAD.
  Energy threshold   = 1.00e-06
  Density threshold  = 1.00e-10
  Integral threshold = 0.00e+00

  ==> Primary Basis <==

  Basis Set: CC-PVDZ
    Blend: CC-PVDZ
    Number of shells: 117
    Number of basis function: 243
    Number of Cartesian functions: 255
    Spherical Harmonics?: true
    Max angular momentum: 2

  ==> Pre-Iterations <==

   -------------------------------------------------------
    Irrep   Nso     Nmo     Nalpha   Nbeta   Ndocc  Nsocc
   -------------------------------------------------------
     A        243     243       0       0       0       0
   -------------------------------------------------------
    Total     243     243      44      44      44       0
   -------------------------------------------------------

  ==> Integral Setup <==

  Using integral reordering PK algorithm.
  Sizing the integral batches needed.
  Building batch lookup table.
   Calculation information:
      Number of atoms:                  27
      Number of AO shells:             117
      Number of primitives:            339
      Number of atomic orbitals:       255
      Number of basis functions:       243

      Integral cutoff                 1.00e-12
      Number of threads:                 1

	Batch   1 pq = [       0,    9405] index = [             0,44231715] size =     44231715
	Batch   2 pq = [    9405,   13301] index = [      44231715,88464951] size =     44233236
	Batch   3 pq = [   13301,   16290] index = [      88464951,132690195] size =     44225244
	Batch   4 pq = [   16290,   18810] index = [     132690195,176917455] size =     44227260
	Batch   5 pq = [   18810,   21030] index = [     176917455,221140965] size =     44223510
	Batch   6 pq = [   21030,   23037] index = [     221140965,265363203] size =     44222238
	Batch   7 pq = [   23037,   24883] index = [     265363203,309594286] size =     44231083
	Batch   8 pq = [   24883,   26601] index = [     309594286,353819901] size =     44225615
	Batch   9 pq = [   26601,   28214] index = [     353819901,398029005] size =     44209104
	Batch  10 pq = [   28214,   29646] index = [     398029005,439457481] size =     41428476
  Task number: 40
  Buffer size: 11059200
  Buffer per thread: 2
  We computed 25780776 shell quartets total.
  Whereas there are 23829156 unique shell quartets.
     8.19 percent of shell quartets recomputed by reordering.

  ==> DiskJK: Disk-Based J/K Matrices <==

    J tasked:                  Yes
    K tasked:                  Yes
    wK tasked:                  No
    Memory [MiB]:              375
    Schwarz Cutoff:          1E-12

    OpenMP threads:              1

  Minimum eigenvalue in the overlap matrix is 2.3075104684E-04.
  Using Symmetric Orthogonalization.

  SCF Guess: Superposition of Atomic Densities via on-the-fly atomic UHF.

  ==> Iterations <==

                        Total Energy        Delta E     RMS |[F,P]|

   @RHF iter SAD:  -479.21371662956432   -4.79214e+02   0.00000e+00
   @RHF iter   1:  -479.47986760159364   -2.66151e-01   2.64174e-03 DIIS
   @RHF iter   2:  -479.71603323315588   -2.36166e-01   1.18919e-03 DIIS
   @RHF iter   3:  -479.75991891368415   -4.38857e-02   3.07018e-04 DIIS
   @RHF iter   4:  -479.76376068545835   -3.84177e-03   1.41292e-04 DIIS
   @RHF iter   5:  -479.76442440604967   -6.63721e-04   2.02118e-05 DIIS
   @RHF iter   6:  -479.76445162214281   -2.72161e-05   9.19100e-06 DIIS
   @RHF iter   7:  -479.76445680082242   -5.17868e-06   3.39522e-06 DIIS
   @RHF iter   8:  -479.76445798893997   -1.18812e-06   1.28760e-06 DIIS
   @RHF iter   9:  -479.76445819877171   -2.09832e-07   5.35445e-07 DIIS
   @RHF iter  10:  -479.76445823546322   -3.66915e-08   2.32056e-07 DIIS
   @RHF iter  11:  -479.76445824489150   -9.42828e-09   1.03320e-07 DIIS
   @RHF iter  12:  -479.76445824696958   -2.07808e-09   3.83811e-08 DIIS
   @RHF iter  13:  -479.76445824718320   -2.13618e-10   1.05423e-08 DIIS
   @RHF iter  14:  -479.76445824719633   -1.31308e-11   4.56879e-09 DIIS
   @RHF iter  15:  -479.76445824719821   -1.87583e-12   2.05946e-09 DIIS
   @RHF iter  16:  -479.76445824720196   -3.75167e-12   8.88635e-10 DIIS
   @RHF iter  17:  -479.76445824719923    2.72848e-12   4.22193e-10 DIIS
   @RHF iter  18:  -479.76445824719849    7.38964e-13   1.63052e-10 DIIS
   @RHF iter  19:  -479.76445824720361   -5.11591e-12   5.70272e-11 DIIS
  Energy and wave function converged.

  ==> Post-Iterations <==

    Orbital Energies [Eh]
    ---------------------

    Doubly Occupied:

       1A    -15.602289     2A    -11.262217     3A    -11.260602
       4A    -11.230818     5A    -11.227792     6A    -11.226411
       7A    -11.225229     8A    -11.219670     9A    -11.219262
      10A    -11.212118    11A    -11.210256    12A    -11.205238
      13A     -1.301922    14A     -1.132839    15A     -1.077538
      16A     -1.013075    17A     -1.000083    18A     -0.988897
      19A     -0.932419    20A     -0.841022    21A     -0.825433
      22A     -0.806155    23A     -0.756687    24A     -0.723697
      25A     -0.664347    26A     -0.640678    27A     -0.610834
      28A     -0.602135    29A     -0.591851    30A     -0.590256
      31A     -0.585800    32A     -0.565668    33A     -0.552974
      34A     -0.542086    35A     -0.526489    36A     -0.492720
      37A     -0.488729    38A     -0.477703    39A     -0.475057
      40A     -0.474357    41A     -0.464016    42A     -0.375323
      43A     -0.297095    44A     -0.271612

    Virtual:

      45A      0.125119    46A      0.165378    47A      0.171406
      48A      0.188342    49A      0.198645    50A      0.209571
      51A      0.218288    52A      0.227291    53A      0.231271
      54A      0.255314    55A      0.261858    56A      0.265213
      57A      0.268774    58A      0.274140    59A      0.289879
      60A      0.301593    61A      0.311252    62A      0.326363
      63A      0.377467    64A      0.387146    65A      0.405322
      66A      0.413264    67A      0.423978    68A      0.451842
      69A      0.468940    70A      0.481819    71A      0.508875
      72A      0.520842    73A      0.581340    74A      0.588360
      75A      0.598949    76A      0.605638    77A      0.624646
      78A      0.640265    79A      0.648824    80A      0.667191
      81A      0.676452    82A      0.683009    83A      0.703079
      84A      0.718146    85A      0.721031    86A      0.728480
      87A      0.739425    88A      0.748891    89A      0.759576
      90A      0.763276    91A      0.777705    92A      0.783233
      93A      0.792967    94A      0.811785    95A      0.831388
      96A      0.842132    97A      0.856717    98A      0.867942
      99A      0.876242   100A      0.879243   101A      0.882886
     102A      0.893654   103A      0.896175   104A      0.913161
     105A      0.918245   106A      0.921691   107A      0.931519
     108A      0.947626   109A      0.950537   110A      0.957315
     111A      0.959903   112A      0.979554   113A      0.992487
     114A      1.007788   115A      1.012783   116A      1.036910
     117A      1.068519   118A      1.087980   119A      1.093701
     120A      1.124298   121A      1.137652   122A      1.144634
     123A      1.148796   124A      1.156833   125A      1.163761
     126A      1.169769   127A      1.214469   128A      1.225457
     129A      1.227932   130A      1.246096   131A      1.256662
     132A      1.276527   133A      1.286961   134A      1.293471
     135A      1.309536   136A      1.330748   137A      1.340380
     138A      1.366454   139A      1.380905   140A      1.429509
     141A      1.434681   142A      1.494511   143A      1.503099
     144A      1.526917   145A      1.550104   146A      1.563017
     147A      1.587123   148A      1.609744   149A      1.637321
     150A      1.648480   151A      1.653371   152A      1.686836
     153A      1.697232   154A      1.708746   155A      1.714334
     156A      1.739853   157A      1.771516   158A      1.785746
     159A      1.794263   160A      1.816131   161A      1.831382
     162A      1.845833   163A      1.869460   164A      1.874381
     165A      1.886699   166A      1.903216   167A      1.905895
     168A      1.910882   169A      1.917565   170A      1.926674
     171A      1.937521   172A      1.944182   173A      1.955340
     174A      1.957673   175A      1.963419   176A      1.965411
     177A      1.975940   178A      1.983522   179A      1.995755
     180A      2.008349   181A      2.027185   182A      2.034821
     183A      2.058322   184A      2.079130   185A      2.080470
     186A      2.103733   187A      2.110493   188A      2.125719
     189A      2.127434   190A      2.141308   191A      2.159175
     192A      2.162072   193A      2.169465   194A      2.178457
     195A      2.191216   196A      2.237268   197A      2.269485
     198A      2.288795   199A      2.301556   200A      2.311778
     201A      2.324424   202A      2.328242   203A      2.344355
     204A      2.373885   205A      2.407938   206A      2.417245
     207A      2.454348   208A      2.465949   209A      2.469956
     210A      2.480647   211A      2.547290   212A      2.582315
     213A      2.592881   214A      2.607912   215A      2.621473
     216A      2.641905   217A      2.686073   218A      2.701933
     219A      2.719141   220A      2.767131   221A      2.775521
     222A      2.778764   223A      2.791023   224A      2.809647
     225A      2.816044   226A      2.840371   227A      2.858802
     228A      2.862213   229A      2.864990   230A      2.892091
     231A      2.939306   232A      2.973249   233A      2.983002
     234A      2.986791   235A      3.035373   236A      3.078049
     237A      3.096738   238A      3.129807   239A      3.230416
     240A      3.314028   241A      3.400624   242A      3.776021
     243A      3.959761

    Final Occupation by Irrep:
              A
    DOCC [    44 ]

  @RHF Final Energy:  -479.76445824720361

   => Energetics <=

    Nuclear Repulsion Energy =            674.7502984564293911
    One-Electron Energy =               -1987.4467210319012338
    Two-Electron Energy =                 832.9319643282682364
    Total Energy =                       -479.7644582472036063

Computation Completed

Properties will be evaluated at   0.000000,   0.000000,   0.000000 [a0]

Properties computed using the SCF density matrix

  Nuclear Dipole Moment: [e a0]
     X:    -7.2465      Y:     2.1627      Z:    -7.9748

  Electronic Dipole Moment: [e a0]
     X:     7.6140      Y:    -2.5946      Z:     7.4175

  Dipole Moment: [e a0]
     X:     0.3676      Y:    -0.4319      Z:    -0.5573     Total:     0.7951

  Dipole Moment: [D]
     X:     0.9342      Y:    -1.0978      Z:    -1.4166     Total:     2.0211

*** tstop() called on ds3 at Mon Apr 27 03:54:05 2020
Module time:
	user time   =     199.35 seconds =       3.32 minutes
	system time =      71.13 seconds =       1.19 minutes
	total time  =        677 seconds =      11.28 minutes
Total time:
	user time   =     199.35 seconds =       3.32 minutes
	system time =      71.13 seconds =       1.19 minutes
	total time  =        677 seconds =      11.28 minutes
                                     G D M A

                                 by Anthony Stone

                           version 2.2.06, 22 June 2011

               Distributed Multipoles from Gaussian wavefunctions

Starting at 3:54:5 on 27 Apr 2020

Using SCF density matrix from file ./SSI/SSI-013ALA-096TRP-1-dimer.test.20247.fchk

                         Distributed Multipole Analysis

Standard DMA

Positions and radii in angstrom
Multipole moments in atomic units, ea_0^k for rank k

C          x = -1.725962  y =  0.721256  z = -2.661267 angstrom
           Maximum rank =  0   Radius =  0.650 angstrom
                   Q00  =  -0.231430

C          x = -1.078962  y =  2.082256  z = -2.817267 angstrom
           Maximum rank =  0   Radius =  0.650 angstrom
                   Q00  =  -0.227004

H          x = -2.801962  y =  0.814256  z = -2.789267 angstrom
           Maximum rank =  0   Radius =  0.325 angstrom
                   Q00  =   0.073315

H          x = -1.332962  y =  0.040256  z = -3.416267 angstrom
           Maximum rank =  0   Radius =  0.325 angstrom
                   Q00  =   0.064646

H          x = -1.510962  y =  0.310256  z = -1.674267 angstrom
           Maximum rank =  0   Radius =  0.325 angstrom
                   Q00  =   0.095239

H          x =  0.004038  y =  1.952256  z = -2.882267 angstrom
           Maximum rank =  0   Radius =  0.325 angstrom
                   Q00  =   0.066366

H          x = -1.304582  y =  2.731016  z = -1.958077 angstrom
           Maximum rank =  0   Radius =  0.325 angstrom
                   Q00  =   0.086622

H          x = -1.452982  y =  2.537399  z = -3.746217 angstrom
           Maximum rank =  0   Radius =  0.325 angstrom
                   Q00  =   0.067806

C          x = -1.044962  y = -2.803744  z =  1.485733 angstrom
           Maximum rank =  0   Radius =  0.650 angstrom
                   Q00  =  -0.212704

C          x =  0.870038  y =  0.008256  z = -0.055267 angstrom
           Maximum rank =  0   Radius =  0.650 angstrom
                   Q00  =   0.241225

C          x =  0.031038  y = -0.500744  z =  0.967733 angstrom
           Maximum rank =  0   Radius =  0.650 angstrom
                   Q00  =  -0.023566

C          x = -0.219962  y = -1.865744  z =  0.680733 angstrom
           Maximum rank =  0   Radius =  0.650 angstrom
                   Q00  =  -0.139606

C          x =  0.450038  y = -2.127744  z = -0.479267 angstrom
           Maximum rank =  0   Radius =  0.650 angstrom
                   Q00  =   0.082355

C          x =  1.344038  y =  1.302256  z = -0.121267 angstrom
           Maximum rank =  0   Radius =  0.650 angstrom
                   Q00  =  -0.115373

C          x =  0.961038  y =  2.155256  z =  0.898733 angstrom
           Maximum rank =  0   Radius =  0.650 angstrom
                   Q00  =  -0.085502

C          x = -0.352962  y =  0.373256  z =  1.983733 angstrom
           Maximum rank =  0   Radius =  0.650 angstrom
                   Q00  =  -0.104860

C          x =  0.133038  y =  1.668256  z =  1.916733 angstrom
           Maximum rank =  0   Radius =  0.650 angstrom
                   Q00  =  -0.049286

N          x =  1.099038  y = -1.033744  z = -0.929267 angstrom
           Maximum rank =  0   Radius =  0.650 angstrom
                   Q00  =  -0.478954

H          x =  1.676038  y = -1.005744  z = -1.763267 angstrom
           Maximum rank =  0   Radius =  0.325 angstrom
                   Q00  =   0.220922

H          x =  2.001038  y =  1.626256  z = -0.917267 angstrom
           Maximum rank =  0   Radius =  0.325 angstrom
                   Q00  =   0.077009

H          x =  0.429038  y = -3.074744  z = -0.985267 angstrom
           Maximum rank =  0   Radius =  0.325 angstrom
                   Q00  =   0.096985

H          x =  1.351038  y =  3.150256  z =  0.962733 angstrom
           Maximum rank =  0   Radius =  0.325 angstrom
                   Q00  =   0.066553

H          x = -0.969962  y =  0.038256  z =  2.803733 angstrom
           Maximum rank =  0   Radius =  0.325 angstrom
                   Q00  =   0.072238

H          x = -0.967962  y = -2.514744  z =  2.535733 angstrom
           Maximum rank =  0   Radius =  0.325 angstrom
                   Q00  =   0.102063

H          x = -0.606962  y = -3.798744  z =  1.390733 angstrom
           Maximum rank =  0   Radius =  0.325 angstrom
                   Q00  =   0.101861

H          x = -0.129962  y =  2.348256  z =  2.717733 angstrom
           Maximum rank =  0   Radius =  0.325 angstrom
                   Q00  =   0.054286

H          x = -2.109292  y = -2.850710  z =  1.211883 angstrom
           Maximum rank =  0   Radius =  0.325 angstrom
                   Q00  =   0.098796

Total multipoles referred to origin at
           x =   0.000000,  y =    0.000000,  z =    0.000000 angstrom
                   Q00  =  -0.000000

Finished at 3:54:5 on 27 Apr 2020

  DMA results are available in the Python driver through the
	  variable('DMA DISTRIBUTED MULTIPOLES')
  and
	  variable('DMA TOTAL MULTIPOLES')
  commands.

    Psi4 stopped on: Monday, 27 April 2020 03:54AM
    Psi4 wall time for execution: 0:11:17.47

*** Psi4 exiting successfully. Buy a developer a beer!
