                               Psi4 1.3.2 release

  ==> Input File <==

--------------------------------------------------------------------------
import numpy as np
set {scf_type pk
basis cc-pvdz
d_convergence 10
gdma_switch   0
gdma_limit    0
gdma_origin   [ 0.0,  0.0,  0.0 ]
}
molecule test {
    units Angstrom
    0 1
    --
    0 1
    C               -2.653650231176195     0.043637826732088     1.464520051419380
    C               -0.419650231176195    -1.145362173267912     1.368520051419380
    C               -1.533650231176195    -0.626362173267912     0.693520051419380
    C                0.588349768823805    -1.799362173267912     0.666520051419380
    C               -1.616650231176195    -0.770362173267912    -0.695479948580620
    C                0.495349768823805    -1.937362173267912    -0.714479948580620
    C               -0.601650231176195    -1.422362173267912    -1.400479948580620
    H               -0.331650231176195    -1.042362173267912     2.441520051419380
    H                1.442349768823805    -2.208362173267912     1.183520051419380
    H               -3.214650231176195     0.683637826732088     0.782520051419380
    H               -2.222650231176195     0.686637826732088     2.233520051419380
    H               -2.473650231176196    -0.385362173267912    -1.228479948580620
    H                1.263349768823805    -2.451362173267912    -1.260479948580620
    H               -0.652650231176195    -1.523362173267912    -2.471479948580620
    H               -3.347160231176195    -0.675742173267912     1.924460051419380
    C                1.459349768823805     1.845637826732088    -0.139479948580620
    C                2.875349768823805     1.617637826732088    -0.641479948580620
    C                0.982349768823805     3.232637826732089    -0.570479948580620
    H                0.796349768823805     1.084637826732088    -0.550479948580620
    H                1.439349768823805     1.782637826732088     0.949520051419380
    H                3.527349768823805     2.403637826732088    -0.253479948580620
    H                2.863349768823805     1.698637826732088    -1.731479948580620
    H                1.730349768823805     3.965637826732089    -0.259479948580620
    H                0.917349768823805     3.283637826732088    -1.658479948580620
    H                3.290479768823805     0.635827826732088    -0.369989948580620
    H                0.026609768823805     3.511487826732088    -0.102729948580620

}
e, wfn = energy('scf', return_wfn=True)
gdma(wfn)
dmavals = variable('DMA DISTRIBUTED MULTIPOLES')
charges = np.array(dmavals)
print(charges)
np.save('SSI-038PHE-046ARG-1-dimer.npy', np.array(charges))--------------------------------------------------------------------------

*** tstart() called on ds3
*** at Mon Apr 27 21:32:13 2020

   => Loading Basis Set <=

    Name: CC-PVDZ
    Role: ORBITAL
    Keyword: BASIS
    atoms 1-7, 16-18  entry C          line   138 file /theoryfs2/ds/metcalf/miniconda2/envs/tf2gpu/share/psi4/basis/cc-pvdz.gbs
    atoms 8-15, 19-26 entry H          line    22 file /theoryfs2/ds/metcalf/miniconda2/envs/tf2gpu/share/psi4/basis/cc-pvdz.gbs

         ---------------------------------------------------------
                                   SCF
               by Justin Turney, Rob Parrish, Andy Simmonett
                          and Daniel G. A. Smith
                              RHF Reference
                        1 Threads,    500 MiB Core
         ---------------------------------------------------------

  ==> Geometry <==

    Molecular point group: c1
    Full point group: C1

    Geometry (in Angstrom), charge = 0, multiplicity = 1:

       Center              X                  Y                   Z               Mass
    ------------   -----------------  -----------------  -----------------  -----------------
         C           -2.653650231176     0.043637826732     1.464520051419    12.000000000000
         C           -0.419650231176    -1.145362173268     1.368520051419    12.000000000000
         C           -1.533650231176    -0.626362173268     0.693520051419    12.000000000000
         C            0.588349768824    -1.799362173268     0.666520051419    12.000000000000
         C           -1.616650231176    -0.770362173268    -0.695479948581    12.000000000000
         C            0.495349768824    -1.937362173268    -0.714479948581    12.000000000000
         C           -0.601650231176    -1.422362173268    -1.400479948581    12.000000000000
         H           -0.331650231176    -1.042362173268     2.441520051419     1.007825032230
         H            1.442349768824    -2.208362173268     1.183520051419     1.007825032230
         H           -3.214650231176     0.683637826732     0.782520051419     1.007825032230
         H           -2.222650231176     0.686637826732     2.233520051419     1.007825032230
         H           -2.473650231176    -0.385362173268    -1.228479948581     1.007825032230
         H            1.263349768824    -2.451362173268    -1.260479948581     1.007825032230
         H           -0.652650231176    -1.523362173268    -2.471479948581     1.007825032230
         H           -3.347160231176    -0.675742173268     1.924460051419     1.007825032230
         C            1.459349768824     1.845637826732    -0.139479948581    12.000000000000
         C            2.875349768824     1.617637826732    -0.641479948581    12.000000000000
         C            0.982349768824     3.232637826732    -0.570479948581    12.000000000000
         H            0.796349768824     1.084637826732    -0.550479948581     1.007825032230
         H            1.439349768824     1.782637826732     0.949520051419     1.007825032230
         H            3.527349768824     2.403637826732    -0.253479948581     1.007825032230
         H            2.863349768824     1.698637826732    -1.731479948581     1.007825032230
         H            1.730349768824     3.965637826732    -0.259479948581     1.007825032230
         H            0.917349768824     3.283637826732    -1.658479948581     1.007825032230
         H            3.290479768824     0.635827826732    -0.369989948581     1.007825032230
         H            0.026609768824     3.511487826732    -0.102729948581     1.007825032230

  Running in c1 symmetry.

  Rotational constants: A =      0.04994  B =      0.02500  C =      0.02092 [cm^-1]
  Rotational constants: A =   1497.20789  B =    749.61790  C =    627.29014 [MHz]
  Nuclear repulsion =  498.566820016358690

  Charge       = 0
  Multiplicity = 1
  Electrons    = 76
  Nalpha       = 38
  Nbeta        = 38

  ==> Algorithm <==

  SCF Algorithm Type is PK.
  DIIS enabled.
  MOM disabled.
  Fractional occupation disabled.
  Guess Type is SAD.
  Energy threshold   = 1.00e-06
  Density threshold  = 1.00e-10
  Integral threshold = 0.00e+00

  ==> Primary Basis <==

  Basis Set: CC-PVDZ
    Blend: CC-PVDZ
    Number of shells: 108
    Number of basis function: 220
    Number of Cartesian functions: 230
    Spherical Harmonics?: true
    Max angular momentum: 2

  ==> Pre-Iterations <==

   -------------------------------------------------------
    Irrep   Nso     Nmo     Nalpha   Nbeta   Ndocc  Nsocc
   -------------------------------------------------------
     A        220     220       0       0       0       0
   -------------------------------------------------------
    Total     220     220      38      38      38       0
   -------------------------------------------------------

  ==> Integral Setup <==

  Using integral reordering PK algorithm.
  Sizing the integral batches needed.
  Building batch lookup table.
   Calculation information:
      Number of atoms:                  26
      Number of AO shells:             108
      Number of primitives:            300
      Number of atomic orbitals:       230
      Number of basis functions:       220

      Integral cutoff                 1.00e-12
      Number of threads:                 1

	Batch   1 pq = [       0,    9405] index = [             0,44231715] size =     44231715
	Batch   2 pq = [    9405,   13301] index = [      44231715,88464951] size =     44233236
	Batch   3 pq = [   13301,   16290] index = [      88464951,132690195] size =     44225244
	Batch   4 pq = [   16290,   18810] index = [     132690195,176917455] size =     44227260
	Batch   5 pq = [   18810,   21030] index = [     176917455,221140965] size =     44223510
	Batch   6 pq = [   21030,   23037] index = [     221140965,265363203] size =     44222238
	Batch   7 pq = [   23037,   24310] index = [     265363203,295500205] size =     30137002
  Task number: 27
  Buffer size: 11059200
  Buffer per thread: 2
  We computed 16759915 shell quartets total.
  Whereas there are 17325441 unique shell quartets.

  ==> DiskJK: Disk-Based J/K Matrices <==

    J tasked:                  Yes
    K tasked:                  Yes
    wK tasked:                  No
    Memory [MiB]:              375
    Schwarz Cutoff:          1E-12

    OpenMP threads:              1

  Minimum eigenvalue in the overlap matrix is 3.1770945356E-04.
  Using Symmetric Orthogonalization.

  SCF Guess: Superposition of Atomic Densities via on-the-fly atomic UHF.

  ==> Iterations <==

                        Total Energy        Delta E     RMS |[F,P]|

   @RHF iter SAD:  -386.86015625049612   -3.86860e+02   0.00000e+00
   @RHF iter   1:  -387.77292872525652   -9.12772e-01   2.75271e-03 DIIS
   @RHF iter   2:  -387.99153514648839   -2.18606e-01   1.16230e-03 DIIS
   @RHF iter   3:  -388.02697895477348   -3.54438e-02   2.48763e-04 DIIS
   @RHF iter   4:  -388.02984916653929   -2.87021e-03   4.82384e-05 DIIS
   @RHF iter   5:  -388.02992874140119   -7.95749e-05   1.41871e-05 DIIS
   @RHF iter   6:  -388.02993544397901   -6.70258e-06   4.06134e-06 DIIS
   @RHF iter   7:  -388.02993602228639   -5.78307e-07   1.27915e-06 DIIS
   @RHF iter   8:  -388.02993608519074   -6.29043e-08   2.92154e-07 DIIS
   @RHF iter   9:  -388.02993609294373   -7.75299e-09   1.30446e-07 DIIS
   @RHF iter  10:  -388.02993609471520   -1.77147e-09   6.25727e-08 DIIS
   @RHF iter  11:  -388.02993609532177   -6.06576e-10   2.43361e-08 DIIS
   @RHF iter  12:  -388.02993609541602   -9.42464e-11   9.21496e-09 DIIS
   @RHF iter  13:  -388.02993609542369   -7.67386e-12   3.65626e-09 DIIS
   @RHF iter  14:  -388.02993609542426   -5.68434e-13   1.06381e-09 DIIS
   @RHF iter  15:  -388.02993609542546   -1.19371e-12   4.37216e-10 DIIS
   @RHF iter  16:  -388.02993609542426    1.19371e-12   1.83793e-10 DIIS
   @RHF iter  17:  -388.02993609542432   -5.68434e-14   8.10880e-11 DIIS
  Energy and wave function converged.

  ==> Post-Iterations <==

    Orbital Energies [Eh]
    ---------------------

    Doubly Occupied:

       1A    -11.244198     2A    -11.236931     3A    -11.236382
       4A    -11.233410     5A    -11.232895     6A    -11.231292
       7A    -11.231211     8A    -11.208963     9A    -11.208090
      10A    -11.206763    11A     -1.151769    12A     -1.047492
      13A     -1.043178    14A     -1.012450    15A     -0.931370
      16A     -0.913022    17A     -0.825675    18A     -0.796098
      19A     -0.788730    20A     -0.692201    21A     -0.632634
      22A     -0.630424    23A     -0.619457    24A     -0.591002
      25A     -0.584481    26A     -0.576923    27A     -0.561812
      28A     -0.535880    29A     -0.535708    30A     -0.519374
      31A     -0.491704    32A     -0.485699    33A     -0.482057
      34A     -0.464324    35A     -0.460960    36A     -0.455978
      37A     -0.333453    38A     -0.322608

    Virtual:

      39A      0.132952    40A      0.139612    41A      0.173537
      42A      0.194291    43A      0.200320    44A      0.210575
      45A      0.238473    46A      0.244630    47A      0.246765
      48A      0.249178    49A      0.256435    50A      0.262705
      51A      0.280886    52A      0.285271    53A      0.290209
      54A      0.305644    55A      0.313396    56A      0.318505
      57A      0.362784    58A      0.372414    59A      0.378761
      60A      0.431405    61A      0.451798    62A      0.461398
      63A      0.475074    64A      0.491154    65A      0.560758
      66A      0.583764    67A      0.588302    68A      0.596161
      69A      0.601411    70A      0.617366    71A      0.625054
      72A      0.649923    73A      0.677599    74A      0.688796
      75A      0.699369    76A      0.735253    77A      0.737698
      78A      0.746873    79A      0.755689    80A      0.760150
      81A      0.776340    82A      0.785818    83A      0.800681
      84A      0.819790    85A      0.833806    86A      0.848836
      87A      0.856459    88A      0.861039    89A      0.868190
      90A      0.878084    91A      0.888654    92A      0.892852
      93A      0.897950    94A      0.900380    95A      0.907791
      96A      0.910943    97A      0.914673    98A      0.923074
      99A      0.924833   100A      0.931170   101A      0.939155
     102A      0.948872   103A      0.968711   104A      0.986950
     105A      0.988854   106A      0.994259   107A      1.032302
     108A      1.109080   109A      1.122239   110A      1.135466
     111A      1.140570   112A      1.147834   113A      1.153531
     114A      1.156115   115A      1.188133   116A      1.230323
     117A      1.235281   118A      1.240739   119A      1.252994
     120A      1.289636   121A      1.304747   122A      1.309089
     123A      1.316233   124A      1.320895   125A      1.387139
     126A      1.419588   127A      1.489194   128A      1.489821
     129A      1.506951   130A      1.517713   131A      1.551944
     132A      1.582050   133A      1.597624   134A      1.621329
     135A      1.673051   136A      1.689050   137A      1.696300
     138A      1.699875   139A      1.721153   140A      1.731753
     141A      1.744268   142A      1.760172   143A      1.785309
     144A      1.821522   145A      1.857310   146A      1.867263
     147A      1.874207   148A      1.884155   149A      1.893784
     150A      1.898423   151A      1.909643   152A      1.917243
     153A      1.925293   154A      1.936008   155A      1.940664
     156A      1.943204   157A      1.945183   158A      1.967019
     159A      1.968739   160A      1.973829   161A      1.985919
     162A      1.992304   163A      1.997546   164A      1.999381
     165A      2.002172   166A      2.032028   167A      2.045299
     168A      2.049083   169A      2.069264   170A      2.083045
     171A      2.110883   172A      2.134025   173A      2.139242
     174A      2.155981   175A      2.158497   176A      2.170306
     177A      2.175588   178A      2.186584   179A      2.250464
     180A      2.275486   181A      2.288177   182A      2.295225
     183A      2.310368   184A      2.317158   185A      2.319237
     186A      2.323981   187A      2.335567   188A      2.351712
     189A      2.458473   190A      2.469137   191A      2.497002
     192A      2.516040   193A      2.533121   194A      2.539012
     195A      2.592569   196A      2.617474   197A      2.625687
     198A      2.643851   199A      2.740626   200A      2.754941
     201A      2.762914   202A      2.771699   203A      2.777252
     204A      2.787072   205A      2.792464   206A      2.806413
     207A      2.835941   208A      2.841922   209A      2.869590
     210A      2.923094   211A      2.968740   212A      2.978761
     213A      2.983215   214A      3.009494   215A      3.022163
     216A      3.107103   217A      3.148410   218A      3.194776
     219A      3.294475   220A      3.961024

    Final Occupation by Irrep:
              A
    DOCC [    38 ]

  @RHF Final Energy:  -388.02993609542432

   => Energetics <=

    Nuclear Repulsion Energy =            498.5668200163586903
    One-Electron Energy =               -1511.6803168835613178
    Two-Electron Energy =                 625.0835607717783660
    Total Energy =                       -388.0299360954243184

Computation Completed

Properties will be evaluated at   0.000000,   0.000000,   0.000000 [a0]

Properties computed using the SCF density matrix

  Nuclear Dipole Moment: [e a0]
     X:     4.7384      Y:    10.7339      Z:    -0.3483

  Electronic Dipole Moment: [e a0]
     X:    -4.9095      Y:   -10.8081      Z:     0.4403

  Dipole Moment: [e a0]
     X:    -0.1711      Y:    -0.0742      Z:     0.0920     Total:     0.2079

  Dipole Moment: [D]
     X:    -0.4348      Y:    -0.1886      Z:     0.2339     Total:     0.5285

*** tstop() called on ds3 at Mon Apr 27 21:34:51 2020
Module time:
	user time   =     116.44 seconds =       1.94 minutes
	system time =      47.07 seconds =       0.78 minutes
	total time  =        158 seconds =       2.63 minutes
Total time:
	user time   =     116.44 seconds =       1.94 minutes
	system time =      47.07 seconds =       0.78 minutes
	total time  =        158 seconds =       2.63 minutes
                                     G D M A

                                 by Anthony Stone

                           version 2.2.06, 22 June 2011

               Distributed Multipoles from Gaussian wavefunctions

Starting at 21:34:51 on 27 Apr 2020

Using SCF density matrix from file ./SSI/SSI-038PHE-046ARG-1-dimer.test.15624.fchk

                         Distributed Multipole Analysis

Standard DMA

Positions and radii in angstrom
Multipole moments in atomic units, ea_0^k for rank k

C          x = -2.653650  y =  0.043638  z =  1.464520 angstrom
           Maximum rank =  0   Radius =  0.650 angstrom
                   Q00  =  -0.198492

C          x = -0.419650  y = -1.145362  z =  1.368520 angstrom
           Maximum rank =  0   Radius =  0.650 angstrom
                   Q00  =  -0.048229

C          x = -1.533650  y = -0.626362  z =  0.693520 angstrom
           Maximum rank =  0   Radius =  0.650 angstrom
                   Q00  =  -0.104174

C          x =  0.588350  y = -1.799362  z =  0.666520 angstrom
           Maximum rank =  0   Radius =  0.650 angstrom
                   Q00  =  -0.073762

C          x = -1.616650  y = -0.770362  z = -0.695480 angstrom
           Maximum rank =  0   Radius =  0.650 angstrom
                   Q00  =  -0.088947

C          x =  0.495350  y = -1.937362  z = -0.714480 angstrom
           Maximum rank =  0   Radius =  0.650 angstrom
                   Q00  =  -0.019727

C          x = -0.601650  y = -1.422362  z = -1.400480 angstrom
           Maximum rank =  0   Radius =  0.650 angstrom
                   Q00  =  -0.074225

H          x = -0.331650  y = -1.042362  z =  2.441520 angstrom
           Maximum rank =  0   Radius =  0.325 angstrom
                   Q00  =   0.057536

H          x =  1.442350  y = -2.208362  z =  1.183520 angstrom
           Maximum rank =  0   Radius =  0.325 angstrom
                   Q00  =   0.065100

H          x = -3.214650  y =  0.683638  z =  0.782520 angstrom
           Maximum rank =  0   Radius =  0.325 angstrom
                   Q00  =   0.097478

H          x = -2.222650  y =  0.686638  z =  2.233520 angstrom
           Maximum rank =  0   Radius =  0.325 angstrom
                   Q00  =   0.099961

H          x = -2.473650  y = -0.385362  z = -1.228480 angstrom
           Maximum rank =  0   Radius =  0.325 angstrom
                   Q00  =   0.059498

H          x =  1.263350  y = -2.451362  z = -1.260480 angstrom
           Maximum rank =  0   Radius =  0.325 angstrom
                   Q00  =   0.061135

H          x = -0.652650  y = -1.523362  z = -2.471480 angstrom
           Maximum rank =  0   Radius =  0.325 angstrom
                   Q00  =   0.066146

H          x = -3.347160  y = -0.675742  z =  1.924460 angstrom
           Maximum rank =  0   Radius =  0.325 angstrom
                   Q00  =   0.105794

C          x =  1.459350  y =  1.845638  z = -0.139480 angstrom
           Maximum rank =  0   Radius =  0.650 angstrom
                   Q00  =  -0.088117

C          x =  2.875350  y =  1.617638  z = -0.641480 angstrom
           Maximum rank =  0   Radius =  0.650 angstrom
                   Q00  =  -0.232441

C          x =  0.982350  y =  3.232638  z = -0.570480 angstrom
           Maximum rank =  0   Radius =  0.650 angstrom
                   Q00  =  -0.238622

H          x =  0.796350  y =  1.084638  z = -0.550480 angstrom
           Maximum rank =  0   Radius =  0.325 angstrom
                   Q00  =   0.067683

H          x =  1.439350  y =  1.782638  z =  0.949520 angstrom
           Maximum rank =  0   Radius =  0.325 angstrom
                   Q00  =   0.042975

H          x =  3.527350  y =  2.403638  z = -0.253480 angstrom
           Maximum rank =  0   Radius =  0.325 angstrom
                   Q00  =   0.069592

H          x =  2.863350  y =  1.698638  z = -1.731480 angstrom
           Maximum rank =  0   Radius =  0.325 angstrom
                   Q00  =   0.068782

H          x =  1.730350  y =  3.965638  z = -0.259480 angstrom
           Maximum rank =  0   Radius =  0.325 angstrom
                   Q00  =   0.067518

H          x =  0.917350  y =  3.283638  z = -1.658480 angstrom
           Maximum rank =  0   Radius =  0.325 angstrom
                   Q00  =   0.074779

H          x =  3.290480  y =  0.635828  z = -0.369990 angstrom
           Maximum rank =  0   Radius =  0.325 angstrom
                   Q00  =   0.081842

H          x =  0.026610  y =  3.511488  z = -0.102730 angstrom
           Maximum rank =  0   Radius =  0.325 angstrom
                   Q00  =   0.080916

Total multipoles referred to origin at
           x =   0.000000,  y =    0.000000,  z =    0.000000 angstrom
                   Q00  =  -0.000000

Finished at 21:34:51 on 27 Apr 2020

  DMA results are available in the Python driver through the
	  variable('DMA DISTRIBUTED MULTIPOLES')
  and
	  variable('DMA TOTAL MULTIPOLES')
  commands.

    Psi4 stopped on: Monday, 27 April 2020 09:34PM
    Psi4 wall time for execution: 0:02:37.80

*** Psi4 exiting successfully. Buy a developer a beer!
