                               Psi4 1.3.2 release

  ==> Input File <==

--------------------------------------------------------------------------
import numpy as np
set {scf_type pk
basis cc-pvdz
d_convergence 10
gdma_switch   0
gdma_limit    0
gdma_origin   [ 0.0,  0.0,  0.0 ]
}
molecule test {
    units Angstrom
    0 1
    --
    0 1
    C                2.319750097620137    -1.842800407899631    -1.911522384425669
    C                2.327750097620137    -1.672800407899630    -3.440522384425669
    H                2.577750097620137    -0.913800407899630    -1.406522384425669
    H                1.309750097620137    -2.080800407899630    -1.591522384425669
    H                3.012750097620137    -2.623800407899631    -1.620522384425669
    H                1.604750097620137    -0.891800407899630    -3.681522384425669
    H                3.328290097620137    -1.348164207899630    -3.762282384425669
    H                2.033400097620137    -2.585297607899630    -3.979692384425669
    C                0.663750097620137     1.315199592100370     2.696477615574331
    C               -0.481249902379863     0.188199592100370    -0.724522384425669
    C                0.314750097620137     0.577199592100370     0.327477615574331
    C               -1.821249902379863     0.053199592100370    -0.520522384425669
    C               -0.210249902379863     0.838199592100370     1.581477615574331
    C               -2.381249902379863     0.262199592100370     0.734477615574331
    C               -1.566249902379863     0.685199592100370     1.784477615574331
    H               -0.050249902379863    -0.007800407899630    -1.695522384425669
    H                1.377750097620137     0.687199592100370     0.162477615574331
    H               -2.456249902379863    -0.254800407899630    -1.340522384425669
    H               -3.443249902379864     0.127199592100370     0.886477615574331
    H                1.567750097620137     0.723199592100370     2.692477615574331
    H                0.159750097620137     1.108199592100370     3.642477615574331
    H               -2.000249902379863     0.866199592100370     2.756477615574330
    H                0.911320097620137     2.386332592100370     2.659267615574331

}
e, wfn = energy('scf', return_wfn=True)
gdma(wfn)
dmavals = variable('DMA DISTRIBUTED MULTIPOLES')
charges = np.array(dmavals)
print(charges)
np.save('SSI-130VAL-185PHE-1-dimer.npy', np.array(charges))--------------------------------------------------------------------------

*** tstart() called on ds3
*** at Mon Apr 27 08:02:42 2020

   => Loading Basis Set <=

    Name: CC-PVDZ
    Role: ORBITAL
    Keyword: BASIS
    atoms 1-2, 9-15  entry C          line   138 file /theoryfs2/ds/metcalf/miniconda2/envs/tf2gpu/share/psi4/basis/cc-pvdz.gbs
    atoms 3-8, 16-23 entry H          line    22 file /theoryfs2/ds/metcalf/miniconda2/envs/tf2gpu/share/psi4/basis/cc-pvdz.gbs

         ---------------------------------------------------------
                                   SCF
               by Justin Turney, Rob Parrish, Andy Simmonett
                          and Daniel G. A. Smith
                              RHF Reference
                        1 Threads,    500 MiB Core
         ---------------------------------------------------------

  ==> Geometry <==

    Molecular point group: c1
    Full point group: C1

    Geometry (in Angstrom), charge = 0, multiplicity = 1:

       Center              X                  Y                   Z               Mass
    ------------   -----------------  -----------------  -----------------  -----------------
         C            2.319750097620    -1.842800407900    -1.911522384426    12.000000000000
         C            2.327750097620    -1.672800407900    -3.440522384426    12.000000000000
         H            2.577750097620    -0.913800407900    -1.406522384426     1.007825032230
         H            1.309750097620    -2.080800407900    -1.591522384426     1.007825032230
         H            3.012750097620    -2.623800407900    -1.620522384426     1.007825032230
         H            1.604750097620    -0.891800407900    -3.681522384426     1.007825032230
         H            3.328290097620    -1.348164207900    -3.762282384426     1.007825032230
         H            2.033400097620    -2.585297607900    -3.979692384426     1.007825032230
         C            0.663750097620     1.315199592100     2.696477615574    12.000000000000
         C           -0.481249902380     0.188199592100    -0.724522384426    12.000000000000
         C            0.314750097620     0.577199592100     0.327477615574    12.000000000000
         C           -1.821249902380     0.053199592100    -0.520522384426    12.000000000000
         C           -0.210249902380     0.838199592100     1.581477615574    12.000000000000
         C           -2.381249902380     0.262199592100     0.734477615574    12.000000000000
         C           -1.566249902380     0.685199592100     1.784477615574    12.000000000000
         H           -0.050249902380    -0.007800407900    -1.695522384426     1.007825032230
         H            1.377750097620     0.687199592100     0.162477615574     1.007825032230
         H           -2.456249902380    -0.254800407900    -1.340522384426     1.007825032230
         H           -3.443249902380     0.127199592100     0.886477615574     1.007825032230
         H            1.567750097620     0.723199592100     2.692477615574     1.007825032230
         H            0.159750097620     1.108199592100     3.642477615574     1.007825032230
         H           -2.000249902380     0.866199592100     2.756477615574     1.007825032230
         H            0.911320097620     2.386332592100     2.659267615574     1.007825032230

  Running in c1 symmetry.

  Rotational constants: A =      0.08082  B =      0.02260  C =      0.01842 [cm^-1]
  Rotational constants: A =   2422.88756  B =    677.42097  C =    552.09871 [MHz]
  Nuclear repulsion =  404.805163786874346

  Charge       = 0
  Multiplicity = 1
  Electrons    = 68
  Nalpha       = 34
  Nbeta        = 34

  ==> Algorithm <==

  SCF Algorithm Type is PK.
  DIIS enabled.
  MOM disabled.
  Fractional occupation disabled.
  Guess Type is SAD.
  Energy threshold   = 1.00e-06
  Density threshold  = 1.00e-10
  Integral threshold = 0.00e+00

  ==> Primary Basis <==

  Basis Set: CC-PVDZ
    Blend: CC-PVDZ
    Number of shells: 96
    Number of basis function: 196
    Number of Cartesian functions: 205
    Spherical Harmonics?: true
    Max angular momentum: 2

  ==> Pre-Iterations <==

   -------------------------------------------------------
    Irrep   Nso     Nmo     Nalpha   Nbeta   Ndocc  Nsocc
   -------------------------------------------------------
     A        196     196       0       0       0       0
   -------------------------------------------------------
    Total     196     196      34      34      34       0
   -------------------------------------------------------

  ==> Integral Setup <==

  Using integral reordering PK algorithm.
  Sizing the integral batches needed.
  Building batch lookup table.
   Calculation information:
      Number of atoms:                  23
      Number of AO shells:              96
      Number of primitives:            268
      Number of atomic orbitals:       205
      Number of basis functions:       196

      Integral cutoff                 1.00e-12
      Number of threads:                 1

	Batch   1 pq = [       0,    9405] index = [             0,44231715] size =     44231715
	Batch   2 pq = [    9405,   13301] index = [      44231715,88464951] size =     44233236
	Batch   3 pq = [   13301,   16290] index = [      88464951,132690195] size =     44225244
	Batch   4 pq = [   16290,   18810] index = [     132690195,176917455] size =     44227260
	Batch   5 pq = [   18810,   19306] index = [     176917455,186370471] size =      9453016
  Task number: 17
  Buffer size: 11059200
  Buffer per thread: 2
  We computed 8938223 shell quartets total.
  Whereas there are 10841496 unique shell quartets.

  ==> DiskJK: Disk-Based J/K Matrices <==

    J tasked:                  Yes
    K tasked:                  Yes
    wK tasked:                  No
    Memory [MiB]:              375
    Schwarz Cutoff:          1E-12

    OpenMP threads:              1

  Minimum eigenvalue in the overlap matrix is 2.8054392211E-04.
  Using Symmetric Orthogonalization.

  SCF Guess: Superposition of Atomic Densities via on-the-fly atomic UHF.

  ==> Iterations <==

                        Total Energy        Delta E     RMS |[F,P]|

   @RHF iter SAD:  -348.02072420173761   -3.48021e+02   0.00000e+00
   @RHF iter   1:  -348.76033846801465   -7.39614e-01   2.92797e-03 DIIS
   @RHF iter   2:  -348.95618050125012   -1.95842e-01   1.22072e-03 DIIS
   @RHF iter   3:  -348.98724434489009   -3.10638e-02   2.61618e-04 DIIS
   @RHF iter   4:  -348.98974217666569   -2.49783e-03   5.72130e-05 DIIS
   @RHF iter   5:  -348.98982586225952   -8.36856e-05   1.84913e-05 DIIS
   @RHF iter   6:  -348.98983430421384   -8.44195e-06   4.95562e-06 DIIS
   @RHF iter   7:  -348.98983499616577   -6.91952e-07   1.23805e-06 DIIS
   @RHF iter   8:  -348.98983504793432   -5.17686e-08   3.20284e-07 DIIS
   @RHF iter   9:  -348.98983505467618   -6.74186e-09   1.56957e-07 DIIS
   @RHF iter  10:  -348.98983505631617   -1.63999e-09   7.41068e-08 DIIS
   @RHF iter  11:  -348.98983505694304   -6.26869e-10   3.14303e-08 DIIS
   @RHF iter  12:  -348.98983505703518   -9.21432e-11   1.40879e-08 DIIS
   @RHF iter  13:  -348.98983505704467   -9.49285e-12   4.00895e-09 DIIS
   @RHF iter  14:  -348.98983505704928   -4.60432e-12   1.10618e-09 DIIS
   @RHF iter  15:  -348.98983505704723    2.04636e-12   3.42150e-10 DIIS
   @RHF iter  16:  -348.98983505704746   -2.27374e-13   1.00593e-10 DIIS
   @RHF iter  17:  -348.98983505704928   -1.81899e-12   4.23422e-11 DIIS
  Energy and wave function converged.

  ==> Post-Iterations <==

    Orbital Energies [Eh]
    ---------------------

    Doubly Occupied:

       1A    -11.235448     2A    -11.233929     3A    -11.229221
       4A    -11.228489     5A    -11.226497     6A    -11.226436
       7A    -11.225762     8A    -11.221513     9A    -11.216205
      10A     -1.159753    11A     -1.049366    12A     -1.017912
      13A     -1.013585    14A     -0.932627    15A     -0.839354
      16A     -0.827685    17A     -0.796284    18A     -0.693320
      19A     -0.635044    20A     -0.629497    21A     -0.603232
      22A     -0.594469    23A     -0.582656    24A     -0.579663
      25A     -0.561466    26A     -0.533007    27A     -0.503314
      28A     -0.493078    29A     -0.487760    30A     -0.487016
      31A     -0.481028    32A     -0.479253    33A     -0.334110
      34A     -0.323465

    Virtual:

      35A      0.136224    36A      0.144969    37A      0.170127
      38A      0.193194    39A      0.205728    40A      0.222543
      41A      0.229866    42A      0.242108    43A      0.255189
      44A      0.260867    45A      0.265428    46A      0.275334
      47A      0.281590    48A      0.292858    49A      0.332659
      50A      0.351863    51A      0.373804    52A      0.393304
      53A      0.396024    54A      0.460687    55A      0.468074
      56A      0.480977    57A      0.500084    58A      0.567686
      59A      0.588627    60A      0.596023    61A      0.607246
      62A      0.632061    63A      0.637388    64A      0.666226
      65A      0.686080    66A      0.691637    67A      0.694098
      68A      0.711280    69A      0.717540    70A      0.740597
      71A      0.748756    72A      0.751386    73A      0.768934
      74A      0.777616    75A      0.780288    76A      0.808238
      77A      0.829738    78A      0.847607    79A      0.861775
      80A      0.871548    81A      0.881343    82A      0.889014
      83A      0.892417    84A      0.899440    85A      0.902756
      86A      0.912682    87A      0.920246    88A      0.927804
      89A      0.934793    90A      0.941429    91A      0.952666
      92A      0.986095    93A      0.987775    94A      1.007048
      95A      1.039177    96A      1.054797    97A      1.124924
      98A      1.129870    99A      1.139282   100A      1.152768
     101A      1.159520   102A      1.167195   103A      1.201410
     104A      1.242109   105A      1.247237   106A      1.256812
     107A      1.261061   108A      1.268964   109A      1.313974
     110A      1.320082   111A      1.331949   112A      1.333515
     113A      1.417451   114A      1.463898   115A      1.483773
     116A      1.518090   117A      1.523832   118A      1.556904
     119A      1.603059   120A      1.610475   121A      1.673022
     122A      1.681344   123A      1.698903   124A      1.712296
     125A      1.740419   126A      1.750053   127A      1.770258
     128A      1.795266   129A      1.820010   130A      1.864096
     131A      1.865534   132A      1.875616   133A      1.893096
     134A      1.904510   135A      1.907059   136A      1.914883
     137A      1.920388   138A      1.926379   139A      1.933169
     140A      1.948760   141A      1.957750   142A      1.958317
     143A      1.958965   144A      1.968663   145A      1.986019
     146A      1.993871   147A      2.006549   148A      2.016079
     149A      2.048924   150A      2.067220   151A      2.079043
     152A      2.090399   153A      2.118460   154A      2.134815
     155A      2.149686   156A      2.167762   157A      2.178041
     158A      2.197906   159A      2.216399   160A      2.261531
     161A      2.281300   162A      2.295351   163A      2.305233
     164A      2.314195   165A      2.323944   166A      2.329061
     167A      2.346446   168A      2.456186   169A      2.468400
     170A      2.475692   171A      2.490339   172A      2.523335
     173A      2.547788   174A      2.552233   175A      2.588926
     176A      2.634590   177A      2.746640   178A      2.763717
     179A      2.774002   180A      2.776642   181A      2.802010
     182A      2.811755   183A      2.826878   184A      2.849610
     185A      2.860733   186A      2.867815   187A      2.895396
     188A      2.957071   189A      2.967829   190A      3.004324
     191A      3.027815   192A      3.040545   193A      3.172256
     194A      3.230357   195A      3.325789   196A      4.007431

    Final Occupation by Irrep:
              A
    DOCC [    34 ]

  @RHF Final Energy:  -348.98983505704928

   => Energetics <=

    Nuclear Repulsion Energy =            404.8051637868743455
    One-Electron Energy =               -1272.2271105442364387
    Two-Electron Energy =                 518.4321117003128165
    Total Energy =                       -348.9898350570492767

Computation Completed

Properties will be evaluated at   0.000000,   0.000000,   0.000000 [a0]

Properties computed using the SCF density matrix

  Nuclear Dipole Moment: [e a0]
     X:     9.3121      Y:    -4.5073      Z:    -5.8859

  Electronic Dipole Moment: [e a0]
     X:    -9.2584      Y:     4.5344      Z:     5.9951

  Dipole Moment: [e a0]
     X:     0.0537      Y:     0.0272      Z:     0.1092     Total:     0.1247

  Dipole Moment: [D]
     X:     0.1366      Y:     0.0690      Z:     0.2776     Total:     0.3170

*** tstop() called on ds3 at Mon Apr 27 08:05:23 2020
Module time:
	user time   =      61.98 seconds =       1.03 minutes
	system time =      26.16 seconds =       0.44 minutes
	total time  =        161 seconds =       2.68 minutes
Total time:
	user time   =      61.98 seconds =       1.03 minutes
	system time =      26.16 seconds =       0.44 minutes
	total time  =        161 seconds =       2.68 minutes
                                     G D M A

                                 by Anthony Stone

                           version 2.2.06, 22 June 2011

               Distributed Multipoles from Gaussian wavefunctions

Starting at 8:5:23 on 27 Apr 2020

Using SCF density matrix from file ./SSI/SSI-130VAL-185PHE-1-dimer.test.508.fchk

                         Distributed Multipole Analysis

Standard DMA

Positions and radii in angstrom
Multipole moments in atomic units, ea_0^k for rank k

C          x =  2.319750  y = -1.842800  z = -1.911522 angstrom
           Maximum rank =  0   Radius =  0.650 angstrom
                   Q00  =  -0.227113

C          x =  2.327750  y = -1.672800  z = -3.440522 angstrom
           Maximum rank =  0   Radius =  0.650 angstrom
                   Q00  =  -0.252005

H          x =  2.577750  y = -0.913800  z = -1.406522 angstrom
           Maximum rank =  0   Radius =  0.325 angstrom
                   Q00  =   0.076895

H          x =  1.309750  y = -2.080800  z = -1.591522 angstrom
           Maximum rank =  0   Radius =  0.325 angstrom
                   Q00  =   0.083045

H          x =  3.012750  y = -2.623800  z = -1.620522 angstrom
           Maximum rank =  0   Radius =  0.325 angstrom
                   Q00  =   0.083408

H          x =  1.604750  y = -0.891800  z = -3.681522 angstrom
           Maximum rank =  0   Radius =  0.325 angstrom
                   Q00  =   0.073158

H          x =  3.328290  y = -1.348164  z = -3.762282 angstrom
           Maximum rank =  0   Radius =  0.325 angstrom
                   Q00  =   0.079073

H          x =  2.033400  y = -2.585298  z = -3.979692 angstrom
           Maximum rank =  0   Radius =  0.325 angstrom
                   Q00  =   0.084789

C          x =  0.663750  y =  1.315200  z =  2.696478 angstrom
           Maximum rank =  0   Radius =  0.650 angstrom
                   Q00  =  -0.198927

C          x = -0.481250  y =  0.188200  z = -0.724522 angstrom
           Maximum rank =  0   Radius =  0.650 angstrom
                   Q00  =  -0.069853

C          x =  0.314750  y =  0.577200  z =  0.327478 angstrom
           Maximum rank =  0   Radius =  0.650 angstrom
                   Q00  =  -0.001001

C          x = -1.821250  y =  0.053200  z = -0.520522 angstrom
           Maximum rank =  0   Radius =  0.650 angstrom
                   Q00  =  -0.053935

C          x = -0.210250  y =  0.838200  z =  1.581478 angstrom
           Maximum rank =  0   Radius =  0.650 angstrom
                   Q00  =  -0.104501

C          x = -2.381250  y =  0.262200  z =  0.734478 angstrom
           Maximum rank =  0   Radius =  0.650 angstrom
                   Q00  =  -0.074020

C          x = -1.566250  y =  0.685200  z =  1.784478 angstrom
           Maximum rank =  0   Radius =  0.650 angstrom
                   Q00  =  -0.086528

H          x = -0.050250  y = -0.007800  z = -1.695522 angstrom
           Maximum rank =  0   Radius =  0.325 angstrom
                   Q00  =   0.061744

H          x =  1.377750  y =  0.687200  z =  0.162478 angstrom
           Maximum rank =  0   Radius =  0.325 angstrom
                   Q00  =   0.049109

H          x = -2.456250  y = -0.254800  z = -1.340522 angstrom
           Maximum rank =  0   Radius =  0.325 angstrom
                   Q00  =   0.054306

H          x = -3.443250  y =  0.127200  z =  0.886478 angstrom
           Maximum rank =  0   Radius =  0.325 angstrom
                   Q00  =   0.065113

H          x =  1.567750  y =  0.723200  z =  2.692478 angstrom
           Maximum rank =  0   Radius =  0.325 angstrom
                   Q00  =   0.100661

H          x =  0.159750  y =  1.108200  z =  3.642478 angstrom
           Maximum rank =  0   Radius =  0.325 angstrom
                   Q00  =   0.094083

H          x = -2.000250  y =  0.866200  z =  2.756478 angstrom
           Maximum rank =  0   Radius =  0.325 angstrom
                   Q00  =   0.057468

H          x =  0.911320  y =  2.386333  z =  2.659268 angstrom
           Maximum rank =  0   Radius =  0.325 angstrom
                   Q00  =   0.105031

Total multipoles referred to origin at
           x =   0.000000,  y =    0.000000,  z =    0.000000 angstrom
                   Q00  =  -0.000000

Finished at 8:5:23 on 27 Apr 2020

  DMA results are available in the Python driver through the
	  variable('DMA DISTRIBUTED MULTIPOLES')
  and
	  variable('DMA TOTAL MULTIPOLES')
  commands.

    Psi4 stopped on: Monday, 27 April 2020 08:05AM
    Psi4 wall time for execution: 0:02:41.29

*** Psi4 exiting successfully. Buy a developer a beer!
