                               Psi4 1.3.2 release

  ==> Input File <==

--------------------------------------------------------------------------
import numpy as np
set {scf_type pk
basis cc-pvdz
d_convergence 10
gdma_switch   0
gdma_limit    0
gdma_origin   [ 0.0,  0.0,  0.0 ]
}
molecule test {
    units Angstrom
    0 1
    --
    0 1
    C                0.116502536385405     0.963144146505400    -2.144115975213680
    C               -0.276497463614595     0.025144146505400    -3.271115975213680
    C                0.506502536385405     2.339144146505400    -2.678115975213680
    H               -0.698497463614595     1.042144146505400    -1.426115975213680
    H                0.991502536385405     0.561144146505400    -1.629115975213680
    H                0.217502536385405     0.334144146505400    -4.191115975213680
    H               -1.350497463614595     0.124144146505400    -3.441115975213680
    H                0.696502536385405     3.005144146505400    -1.833115975213680
    H                1.427502536385405     2.259144146505400    -3.256115975213680
    H               -0.028677463614595    -1.028105853494600    -3.073005975213680
    H               -0.279207463614595     2.771324146505400    -3.315195975213680
    C                1.165502536385405    -0.574855853494600     2.706884024786320
    C               -0.153497463614595    -0.875855853494600     2.031884024786320
    O               -0.942497463614595    -1.682855853494600     2.512884024786320
    N               -0.400497463614595    -0.237855853494600     0.901884024786320
    H               -1.289497463614595    -0.405855853494600     0.454884024786320
    H                0.220502536385405     0.486144146505400     0.580884024786320
    H                1.198502536385405    -1.102855853494600     3.661884024786320
    H                1.217502536385405     0.496144146505400     2.908884024786320
    H                2.024052536385405    -0.875455853494600     2.088384024786321

}
e, wfn = energy('scf', return_wfn=True)
gdma(wfn)
dmavals = variable('DMA DISTRIBUTED MULTIPOLES')
charges = np.array(dmavals)
print(charges)
np.save('SSI-154LYS-159ASN-1-dimer.npy', np.array(charges))--------------------------------------------------------------------------

*** tstart() called on ds3
*** at Mon Apr 27 11:32:45 2020

   => Loading Basis Set <=

    Name: CC-PVDZ
    Role: ORBITAL
    Keyword: BASIS
    atoms 1-3, 12-13  entry C          line   138 file /theoryfs2/ds/metcalf/miniconda2/envs/tf2gpu/share/psi4/basis/cc-pvdz.gbs
    atoms 4-11, 16-20 entry H          line    22 file /theoryfs2/ds/metcalf/miniconda2/envs/tf2gpu/share/psi4/basis/cc-pvdz.gbs
    atoms 14          entry O          line   198 file /theoryfs2/ds/metcalf/miniconda2/envs/tf2gpu/share/psi4/basis/cc-pvdz.gbs
    atoms 15          entry N          line   168 file /theoryfs2/ds/metcalf/miniconda2/envs/tf2gpu/share/psi4/basis/cc-pvdz.gbs

         ---------------------------------------------------------
                                   SCF
               by Justin Turney, Rob Parrish, Andy Simmonett
                          and Daniel G. A. Smith
                              RHF Reference
                        1 Threads,    500 MiB Core
         ---------------------------------------------------------

  ==> Geometry <==

    Molecular point group: c1
    Full point group: C1

    Geometry (in Angstrom), charge = 0, multiplicity = 1:

       Center              X                  Y                   Z               Mass
    ------------   -----------------  -----------------  -----------------  -----------------
         C            0.116502536385     0.963144146505    -2.144115975214    12.000000000000
         C           -0.276497463615     0.025144146505    -3.271115975214    12.000000000000
         C            0.506502536385     2.339144146505    -2.678115975214    12.000000000000
         H           -0.698497463615     1.042144146505    -1.426115975214     1.007825032230
         H            0.991502536385     0.561144146505    -1.629115975214     1.007825032230
         H            0.217502536385     0.334144146505    -4.191115975214     1.007825032230
         H           -1.350497463615     0.124144146505    -3.441115975214     1.007825032230
         H            0.696502536385     3.005144146505    -1.833115975214     1.007825032230
         H            1.427502536385     2.259144146505    -3.256115975214     1.007825032230
         H           -0.028677463615    -1.028105853495    -3.073005975214     1.007825032230
         H           -0.279207463615     2.771324146505    -3.315195975214     1.007825032230
         C            1.165502536385    -0.574855853495     2.706884024786    12.000000000000
         C           -0.153497463615    -0.875855853495     2.031884024786    12.000000000000
         O           -0.942497463615    -1.682855853495     2.512884024786    15.994914619570
         N           -0.400497463615    -0.237855853495     0.901884024786    14.003074004430
         H           -1.289497463615    -0.405855853495     0.454884024786     1.007825032230
         H            0.220502536385     0.486144146505     0.580884024786     1.007825032230
         H            1.198502536385    -1.102855853495     3.661884024786     1.007825032230
         H            1.217502536385     0.496144146505     2.908884024786     1.007825032230
         H            2.024052536385    -0.875455853495     2.088384024786     1.007825032230

  Running in c1 symmetry.

  Rotational constants: A =      0.15123  B =      0.02270  C =      0.02087 [cm^-1]
  Rotational constants: A =   4533.82077  B =    680.60944  C =    625.79476 [MHz]
  Nuclear repulsion =  292.414752823385470

  Charge       = 0
  Multiplicity = 1
  Electrons    = 58
  Nalpha       = 29
  Nbeta        = 29

  ==> Algorithm <==

  SCF Algorithm Type is PK.
  DIIS enabled.
  MOM disabled.
  Fractional occupation disabled.
  Guess Type is SAD.
  Energy threshold   = 1.00e-06
  Density threshold  = 1.00e-10
  Integral threshold = 0.00e+00

  ==> Primary Basis <==

  Basis Set: CC-PVDZ
    Blend: CC-PVDZ
    Number of shells: 81
    Number of basis function: 163
    Number of Cartesian functions: 170
    Spherical Harmonics?: true
    Max angular momentum: 2

  ==> Pre-Iterations <==

   -------------------------------------------------------
    Irrep   Nso     Nmo     Nalpha   Nbeta   Ndocc  Nsocc
   -------------------------------------------------------
     A        163     163       0       0       0       0
   -------------------------------------------------------
    Total     163     163      29      29      29       0
   -------------------------------------------------------

  ==> Integral Setup <==

  Using integral reordering PK algorithm.
  Sizing the integral batches needed.
  Building batch lookup table.
   Calculation information:
      Number of atoms:                  20
      Number of AO shells:              81
      Number of primitives:            219
      Number of atomic orbitals:       170
      Number of basis functions:       163

      Integral cutoff                 1.00e-12
      Number of threads:                 1

	Batch   1 pq = [       0,    9405] index = [             0,44231715] size =     44231715
	Batch   2 pq = [    9405,   13366] index = [      44231715,89331661] size =     45099946
  Task number: 9
  Buffer size: 11059200
  Buffer per thread: 2
  We computed 4349350 shell quartets total.
  Whereas there are 5516181 unique shell quartets.

  ==> DiskJK: Disk-Based J/K Matrices <==

    J tasked:                  Yes
    K tasked:                  Yes
    wK tasked:                  No
    Memory [MiB]:              375
    Schwarz Cutoff:          1E-12

    OpenMP threads:              1

  Minimum eigenvalue in the overlap matrix is 4.4508985917E-03.
  Using Symmetric Orthogonalization.

  SCF Guess: Superposition of Atomic Densities via on-the-fly atomic UHF.

  ==> Iterations <==

                        Total Energy        Delta E     RMS |[F,P]|

   @RHF iter SAD:  -325.02411593627750   -3.25024e+02   0.00000e+00
   @RHF iter   1:  -325.99787095043916   -9.73755e-01   4.16167e-03 DIIS
   @RHF iter   2:  -326.20012012991543   -2.02249e-01   2.28783e-03 DIIS
   @RHF iter   3:  -326.25492022850403   -5.48001e-02   4.86101e-04 DIIS
   @RHF iter   4:  -326.25873499613454   -3.81477e-03   2.03670e-04 DIIS
   @RHF iter   5:  -326.25940783307021   -6.72837e-04   3.11286e-05 DIIS
   @RHF iter   6:  -326.25944070641089   -3.28733e-05   1.37826e-05 DIIS
   @RHF iter   7:  -326.25944613718019   -5.43077e-06   5.43862e-06 DIIS
   @RHF iter   8:  -326.25944728368938   -1.14651e-06   1.83170e-06 DIIS
   @RHF iter   9:  -326.25944741788237   -1.34193e-07   4.70544e-07 DIIS
   @RHF iter  10:  -326.25944742374759   -5.86522e-09   1.53540e-07 DIIS
   @RHF iter  11:  -326.25944742448547   -7.37884e-10   3.63547e-08 DIIS
   @RHF iter  12:  -326.25944742452822   -4.27463e-11   9.08108e-09 DIIS
   @RHF iter  13:  -326.25944742453157   -3.35376e-12   2.51695e-09 DIIS
   @RHF iter  14:  -326.25944742453089    6.82121e-13   9.07568e-10 DIIS
   @RHF iter  15:  -326.25944742453203   -1.13687e-12   3.55396e-10 DIIS
   @RHF iter  16:  -326.25944742453140    6.25278e-13   1.58038e-10 DIIS
   @RHF iter  17:  -326.25944742453146   -5.68434e-14   7.13874e-11 DIIS
  Energy and wave function converged.

  ==> Post-Iterations <==

    Orbital Energies [Eh]
    ---------------------

    Doubly Occupied:

       1A    -20.501577     2A    -15.584617     3A    -11.343195
       4A    -11.239763     5A    -11.234846     6A    -11.229568
       7A    -11.225435     8A     -1.367208     9A     -1.216617
      10A     -1.070987    11A     -0.998394    12A     -0.935640
      13A     -0.817005    14A     -0.793747    15A     -0.727765
      16A     -0.652906    17A     -0.641069    18A     -0.612956
      19A     -0.610304    20A     -0.567581    21A     -0.559470
      22A     -0.553672    23A     -0.544636    24A     -0.521516
      25A     -0.490160    26A     -0.481201    27A     -0.478876
      28A     -0.408037    29A     -0.401508

    Virtual:

      30A      0.155516    31A      0.181942    32A      0.194137
      33A      0.199692    34A      0.216404    35A      0.226771
      36A      0.247045    37A      0.252426    38A      0.261063
      39A      0.268816    40A      0.273567    41A      0.278951
      42A      0.301044    43A      0.320169    44A      0.368902
      45A      0.395258    46A      0.416321    47A      0.460760
      48A      0.540522    49A      0.576074    50A      0.589169
      51A      0.597303    52A      0.615570    53A      0.630531
      54A      0.646638    55A      0.690212    56A      0.716009
      57A      0.742978    58A      0.745629    59A      0.765986
      60A      0.794393    61A      0.803029    62A      0.843260
      63A      0.849478    64A      0.859255    65A      0.869566
      66A      0.875337    67A      0.877016    68A      0.887294
      69A      0.894673    70A      0.895758    71A      0.902090
      72A      0.927847    73A      0.932374    74A      0.943146
      75A      0.957946    76A      0.977027    77A      1.017008
      78A      1.052243    79A      1.092197    80A      1.101255
      81A      1.117199    82A      1.136828    83A      1.156888
      84A      1.192795    85A      1.329105    86A      1.335556
      87A      1.363985    88A      1.380479    89A      1.406525
      90A      1.425576    91A      1.452798    92A      1.457103
      93A      1.458608    94A      1.516090    95A      1.556799
      96A      1.641692    97A      1.649958    98A      1.661164
      99A      1.666338   100A      1.677557   101A      1.705183
     102A      1.715635   103A      1.798939   104A      1.815509
     105A      1.851190   106A      1.865726   107A      1.870068
     108A      1.890593   109A      1.902865   110A      1.910756
     111A      1.926021   112A      1.928812   113A      1.941140
     114A      1.954920   115A      1.960933   116A      1.963794
     117A      1.978058   118A      1.996841   119A      2.001707
     120A      2.022528   121A      2.048489   122A      2.065154
     123A      2.116513   124A      2.144936   125A      2.158878
     126A      2.179952   127A      2.226022   128A      2.250405
     129A      2.266556   130A      2.316375   131A      2.322047
     132A      2.345883   133A      2.415373   134A      2.447469
     135A      2.459489   136A      2.499047   137A      2.513794
     138A      2.541737   139A      2.554450   140A      2.596917
     141A      2.618321   142A      2.624156   143A      2.642425
     144A      2.721741   145A      2.741526   146A      2.744584
     147A      2.768118   148A      2.774419   149A      2.786390
     150A      2.836778   151A      2.869311   152A      2.885007
     153A      2.919912   154A      2.944820   155A      3.020703
     156A      3.044238   157A      3.094066   158A      3.146703
     159A      3.316996   160A      3.513869   161A      3.541638
     162A      3.867090   163A      3.906121

    Final Occupation by Irrep:
              A
    DOCC [    29 ]

  @RHF Final Energy:  -326.25944742453146

   => Energetics <=

    Nuclear Repulsion Energy =            292.4147528233854700
    One-Electron Energy =               -1021.7278922575543447
    Two-Electron Energy =                 403.0536920096374160
    Total Energy =                       -326.2594474245314586

Computation Completed

Properties will be evaluated at   0.000000,   0.000000,   0.000000 [a0]

Properties computed using the SCF density matrix

  Nuclear Dipole Moment: [e a0]
     X:     4.0720      Y:     7.1804      Z:   -11.6808

  Electronic Dipole Moment: [e a0]
     X:    -3.2367      Y:    -5.9906      Z:    10.7560

  Dipole Moment: [e a0]
     X:     0.8353      Y:     1.1898      Z:    -0.9248     Total:     1.7229

  Dipole Moment: [D]
     X:     2.1230      Y:     3.0242      Z:    -2.3505     Total:     4.3793

*** tstop() called on ds3 at Mon Apr 27 11:35:21 2020
Module time:
	user time   =      26.11 seconds =       0.44 minutes
	system time =      12.14 seconds =       0.20 minutes
	total time  =        156 seconds =       2.60 minutes
Total time:
	user time   =      26.11 seconds =       0.44 minutes
	system time =      12.14 seconds =       0.20 minutes
	total time  =        156 seconds =       2.60 minutes
                                     G D M A

                                 by Anthony Stone

                           version 2.2.06, 22 June 2011

               Distributed Multipoles from Gaussian wavefunctions

Starting at 11:35:21 on 27 Apr 2020

Using SCF density matrix from file ./SSI/SSI-154LYS-159ASN-1-dimer.test.3001.fchk

                         Distributed Multipole Analysis

Standard DMA

Positions and radii in angstrom
Multipole moments in atomic units, ea_0^k for rank k

C          x =  0.116503  y =  0.963144  z = -2.144116 angstrom
           Maximum rank =  0   Radius =  0.650 angstrom
                   Q00  =  -0.102022

C          x = -0.276497  y =  0.025144  z = -3.271116 angstrom
           Maximum rank =  0   Radius =  0.650 angstrom
                   Q00  =  -0.234224

C          x =  0.506503  y =  2.339144  z = -2.678116 angstrom
           Maximum rank =  0   Radius =  0.650 angstrom
                   Q00  =  -0.233591

H          x = -0.698497  y =  1.042144  z = -1.426116 angstrom
           Maximum rank =  0   Radius =  0.325 angstrom
                   Q00  =   0.037970

H          x =  0.991503  y =  0.561144  z = -1.629116 angstrom
           Maximum rank =  0   Radius =  0.325 angstrom
                   Q00  =   0.035298

H          x =  0.217503  y =  0.334144  z = -4.191116 angstrom
           Maximum rank =  0   Radius =  0.325 angstrom
                   Q00  =   0.076405

H          x = -1.350497  y =  0.124144  z = -3.441116 angstrom
           Maximum rank =  0   Radius =  0.325 angstrom
                   Q00  =   0.085343

H          x =  0.696503  y =  3.005144  z = -1.833116 angstrom
           Maximum rank =  0   Radius =  0.325 angstrom
                   Q00  =   0.078503

H          x =  1.427503  y =  2.259144  z = -3.256116 angstrom
           Maximum rank =  0   Radius =  0.325 angstrom
                   Q00  =   0.083158

H          x = -0.028677  y = -1.028106  z = -3.073006 angstrom
           Maximum rank =  0   Radius =  0.325 angstrom
                   Q00  =   0.087577

H          x = -0.279207  y =  2.771324  z = -3.315196 angstrom
           Maximum rank =  0   Radius =  0.325 angstrom
                   Q00  =   0.080940

C          x =  1.165503  y = -0.574856  z =  2.706884 angstrom
           Maximum rank =  0   Radius =  0.650 angstrom
                   Q00  =  -0.272287

C          x = -0.153497  y = -0.875856  z =  2.031884 angstrom
           Maximum rank =  0   Radius =  0.650 angstrom
                   Q00  =   0.834047

O          x = -0.942497  y = -1.682856  z =  2.512884 angstrom
           Maximum rank =  0   Radius =  0.650 angstrom
                   Q00  =  -0.798706

N          x = -0.400497  y = -0.237856  z =  0.901884 angstrom
           Maximum rank =  0   Radius =  0.650 angstrom
                   Q00  =  -0.532443

H          x = -1.289497  y = -0.405856  z =  0.454884 angstrom
           Maximum rank =  0   Radius =  0.325 angstrom
                   Q00  =   0.221539

H          x =  0.220503  y =  0.486144  z =  0.580884 angstrom
           Maximum rank =  0   Radius =  0.325 angstrom
                   Q00  =   0.209931

H          x =  1.198503  y = -1.102856  z =  3.661884 angstrom
           Maximum rank =  0   Radius =  0.325 angstrom
                   Q00  =   0.128751

H          x =  1.217503  y =  0.496144  z =  2.908884 angstrom
           Maximum rank =  0   Radius =  0.325 angstrom
                   Q00  =   0.101099

H          x =  2.024053  y = -0.875456  z =  2.088384 angstrom
           Maximum rank =  0   Radius =  0.325 angstrom
                   Q00  =   0.112711

Total multipoles referred to origin at
           x =   0.000000,  y =    0.000000,  z =    0.000000 angstrom
                   Q00  =  -0.000000

Finished at 11:35:21 on 27 Apr 2020

  DMA results are available in the Python driver through the
	  variable('DMA DISTRIBUTED MULTIPOLES')
  and
	  variable('DMA TOTAL MULTIPOLES')
  commands.

    Psi4 stopped on: Monday, 27 April 2020 11:35AM
    Psi4 wall time for execution: 0:02:36.36

*** Psi4 exiting successfully. Buy a developer a beer!
