                               Psi4 1.3.2 release

  ==> Input File <==

--------------------------------------------------------------------------
import numpy as np
set {scf_type pk
basis cc-pvdz
d_convergence 10
gdma_switch   0
gdma_limit    0
gdma_origin   [ 0.0,  0.0,  0.0 ]
}
molecule test {
    units Angstrom
    0 1
    --
    0 1
    C               -1.519494183392571     0.037514087503418     1.233330522068606
    C               -1.156494183392571    -1.431485912496582     1.331330522068606
    H               -2.490494183392571     0.220514087503418     1.697330522068606
    H               -0.772494183392571     0.657514087503418     1.725330522068606
    H               -1.557494183392571     0.370514087503418     0.196330522068606
    H               -0.194494183392571    -1.589485912496582     0.842330522068606
    H               -1.906404183392571    -2.063435912496582     0.833059522068606
    H               -1.061524183392571    -1.702015912496582     2.393306522068606
    C                1.700505816607429     0.222514087503418    -0.818669477931394
    C                0.974505816607429     1.171514087503418    -1.749669477931394
    H                2.749505816607428     0.499514087503418    -0.716669477931394
    H                1.239505816607429     0.249514087503418     0.169330522068606
    H                1.639505816607429    -0.792485912496582    -1.209669477931394
    H               -0.059494183392571     0.837514087503418    -1.849669477931394
    H                1.462545816607429     1.135254087503417    -2.734811477931395
    H                0.962965816607429     2.176414087503418    -1.302406477931394

}
e, wfn = energy('scf', return_wfn=True)
gdma(wfn)
dmavals = variable('DMA DISTRIBUTED MULTIPOLES')
charges = np.array(dmavals)
print(charges)
np.save('SSI-073ILE-128ALA-1-dimer.npy', np.array(charges))--------------------------------------------------------------------------

*** tstart() called on ds3
*** at Tue Apr 28 09:32:27 2020

   => Loading Basis Set <=

    Name: CC-PVDZ
    Role: ORBITAL
    Keyword: BASIS
    atoms 1-2, 9-10  entry C          line   138 file /theoryfs2/ds/metcalf/miniconda2/envs/tf2gpu/share/psi4/basis/cc-pvdz.gbs
    atoms 3-8, 11-16 entry H          line    22 file /theoryfs2/ds/metcalf/miniconda2/envs/tf2gpu/share/psi4/basis/cc-pvdz.gbs

         ---------------------------------------------------------
                                   SCF
               by Justin Turney, Rob Parrish, Andy Simmonett
                          and Daniel G. A. Smith
                              RHF Reference
                        1 Threads,    500 MiB Core
         ---------------------------------------------------------

  ==> Geometry <==

    Molecular point group: c1
    Full point group: C1

    Geometry (in Angstrom), charge = 0, multiplicity = 1:

       Center              X                  Y                   Z               Mass
    ------------   -----------------  -----------------  -----------------  -----------------
         C           -1.519494183393     0.037514087503     1.233330522069    12.000000000000
         C           -1.156494183393    -1.431485912497     1.331330522069    12.000000000000
         H           -2.490494183393     0.220514087503     1.697330522069     1.007825032230
         H           -0.772494183393     0.657514087503     1.725330522069     1.007825032230
         H           -1.557494183393     0.370514087503     0.196330522069     1.007825032230
         H           -0.194494183393    -1.589485912497     0.842330522069     1.007825032230
         H           -1.906404183393    -2.063435912497     0.833059522069     1.007825032230
         H           -1.061524183393    -1.702015912497     2.393306522069     1.007825032230
         C            1.700505816607     0.222514087503    -0.818669477931    12.000000000000
         C            0.974505816607     1.171514087503    -1.749669477931    12.000000000000
         H            2.749505816607     0.499514087503    -0.716669477931     1.007825032230
         H            1.239505816607     0.249514087503     0.169330522069     1.007825032230
         H            1.639505816607    -0.792485912497    -1.209669477931     1.007825032230
         H           -0.059494183393     0.837514087503    -1.849669477931     1.007825032230
         H            1.462545816607     1.135254087503    -2.734811477931     1.007825032230
         H            0.962965816607     2.176414087503    -1.302406477931     1.007825032230

  Running in c1 symmetry.

  Rotational constants: A =      0.36155  B =      0.06611  C =      0.06018 [cm^-1]
  Rotational constants: A =  10838.85311  B =   1981.89733  C =   1804.03422 [MHz]
  Nuclear repulsion =  126.822912010137557

  Charge       = 0
  Multiplicity = 1
  Electrons    = 36
  Nalpha       = 18
  Nbeta        = 18

  ==> Algorithm <==

  SCF Algorithm Type is PK.
  DIIS enabled.
  MOM disabled.
  Fractional occupation disabled.
  Guess Type is SAD.
  Energy threshold   = 1.00e-06
  Density threshold  = 1.00e-10
  Integral threshold = 0.00e+00

  ==> Primary Basis <==

  Basis Set: CC-PVDZ
    Blend: CC-PVDZ
    Number of shells: 60
    Number of basis function: 116
    Number of Cartesian functions: 120
    Spherical Harmonics?: true
    Max angular momentum: 2

  ==> Pre-Iterations <==

   -------------------------------------------------------
    Irrep   Nso     Nmo     Nalpha   Nbeta   Ndocc  Nsocc
   -------------------------------------------------------
     A        116     116       0       0       0       0
   -------------------------------------------------------
    Total     116     116      18      18      18       0
   -------------------------------------------------------

  ==> Integral Setup <==

  Using integral reordering PK algorithm.
  Sizing the integral batches needed.
  Building batch lookup table.
   Calculation information:
      Number of atoms:                  16
      Number of AO shells:              60
      Number of primitives:            148
      Number of atomic orbitals:       120
      Number of basis functions:       116

      Integral cutoff                 1.00e-12
      Number of threads:                 1

	Batch   1 pq = [       0,    6786] index = [             0,23028291] size =     23028291
  Task number: 3
  Buffer size: 11059200
  Buffer per thread: 2
  We computed 1606013 shell quartets total.
  Whereas there are 1675365 unique shell quartets.

  ==> DiskJK: Disk-Based J/K Matrices <==

    J tasked:                  Yes
    K tasked:                  Yes
    wK tasked:                  No
    Memory [MiB]:              375
    Schwarz Cutoff:          1E-12

    OpenMP threads:              1

  Minimum eigenvalue in the overlap matrix is 7.5538910432E-03.
  Using Symmetric Orthogonalization.

  SCF Guess: Superposition of Atomic Densities via on-the-fly atomic UHF.

  ==> Iterations <==

                        Total Energy        Delta E     RMS |[F,P]|

   @RHF iter SAD:  -157.40538531805785   -1.57405e+02   0.00000e+00
   @RHF iter   1:  -158.30429373953169   -8.98908e-01   4.25014e-03 DIIS
   @RHF iter   2:  -158.43942836908136   -1.35135e-01   1.82406e-03 DIIS
   @RHF iter   3:  -158.46351507608270   -2.40867e-02   3.52636e-04 DIIS
   @RHF iter   4:  -158.46537173008434   -1.85665e-03   3.88620e-05 DIIS
   @RHF iter   5:  -158.46539552113049   -2.37910e-05   6.38187e-06 DIIS
   @RHF iter   6:  -158.46539614324990   -6.22119e-07   8.04469e-07 DIIS
   @RHF iter   7:  -158.46539615136101   -8.11110e-09   2.30109e-07 DIIS
   @RHF iter   8:  -158.46539615182874   -4.67736e-10   4.57771e-08 DIIS
   @RHF iter   9:  -158.46539615185955   -3.08091e-11   1.10607e-08 DIIS
   @RHF iter  10:  -158.46539615186211   -2.55795e-12   2.56914e-09 DIIS
   @RHF iter  11:  -158.46539615186185    2.55795e-13   5.85726e-10 DIIS
   @RHF iter  12:  -158.46539615186205   -1.98952e-13   1.91179e-10 DIIS
   @RHF iter  13:  -158.46539615186205    0.00000e+00   2.53791e-11 DIIS
  Energy and wave function converged.

  ==> Post-Iterations <==

    Orbital Energies [Eh]
    ---------------------

    Doubly Occupied:

       1A    -11.219094     2A    -11.218719     3A    -11.216339
       4A    -11.215305     5A     -1.024446     6A     -1.019869
       7A     -0.837318     8A     -0.834245     9A     -0.611394
      10A     -0.602514    11A     -0.597474    12A     -0.589591
      13A     -0.505636    14A     -0.501137    15A     -0.489223
      16A     -0.487762    17A     -0.483899    18A     -0.477443

    Virtual:

      19A      0.168647    20A      0.207895    21A      0.221927
      22A      0.227781    23A      0.249121    24A      0.258527
      25A      0.262393    26A      0.272031    27A      0.282219
      28A      0.308120    29A      0.332753    30A      0.349098
      31A      0.401293    32A      0.406350    33A      0.574426
      34A      0.594526    35A      0.601196    36A      0.607665
      37A      0.609269    38A      0.628570    39A      0.678250
      40A      0.687650    41A      0.730547    42A      0.785599
      43A      0.848436    44A      0.854112    45A      0.873289
      46A      0.884820    47A      0.889351    48A      0.896440
      49A      0.903952    50A      0.916473    51A      0.919894
      52A      0.936160    53A      0.955164    54A      0.970238
      55A      0.997580    56A      1.016127    57A      1.124143
      58A      1.125339    59A      1.132732    60A      1.160077
      61A      1.253836    62A      1.257959    63A      1.468984
      64A      1.472533    65A      1.482229    66A      1.494245
      67A      1.560345    68A      1.576456    69A      1.677300
      70A      1.684104    71A      1.695326    72A      1.707012
      73A      1.840190    74A      1.861956    75A      1.870887
      76A      1.887104    77A      1.903084    78A      1.904426
      79A      1.940275    80A      1.946453    81A      1.947961
      82A      1.954862    83A      1.957647    84A      1.963036
      85A      1.966877    86A      1.973712    87A      1.994597
      88A      2.034195    89A      2.101096    90A      2.109672
      91A      2.114758    92A      2.122093    93A      2.285557
      94A      2.300000    95A      2.320598    96A      2.336006
      97A      2.448664    98A      2.454222    99A      2.460359
     100A      2.477163   101A      2.559652   102A      2.568046
     103A      2.577508   104A      2.585413   105A      2.766236
     106A      2.767889   107A      2.794262   108A      2.797342
     109A      2.842616   110A      2.846239   111A      2.862164
     112A      2.875825   113A      2.949941   114A      2.959540
     115A      2.968195   116A      2.989572

    Final Occupation by Irrep:
              A
    DOCC [    18 ]

  @RHF Final Energy:  -158.46539615186205

   => Energetics <=

    Nuclear Repulsion Energy =            126.8229120101375571
    One-Electron Energy =                -462.7138050280115635
    Two-Electron Energy =                 177.4254968660119687
    Total Energy =                       -158.4653961518620520

Computation Completed

Properties will be evaluated at   0.000000,   0.000000,   0.000000 [a0]

Properties computed using the SCF density matrix

  Nuclear Dipole Moment: [e a0]
     X:     0.0109      Y:    -0.0006      Z:     0.0411

  Electronic Dipole Moment: [e a0]
     X:    -0.0051      Y:     0.0017      Z:    -0.0402

  Dipole Moment: [e a0]
     X:     0.0058      Y:     0.0011      Z:     0.0009     Total:     0.0060

  Dipole Moment: [D]
     X:     0.0148      Y:     0.0027      Z:     0.0023     Total:     0.0152

*** tstop() called on ds3 at Tue Apr 28 09:32:40 2020
Module time:
	user time   =       9.30 seconds =       0.15 minutes
	system time =       2.82 seconds =       0.05 minutes
	total time  =         13 seconds =       0.22 minutes
Total time:
	user time   =       9.30 seconds =       0.15 minutes
	system time =       2.82 seconds =       0.05 minutes
	total time  =         13 seconds =       0.22 minutes
                                     G D M A

                                 by Anthony Stone

                           version 2.2.06, 22 June 2011

               Distributed Multipoles from Gaussian wavefunctions

Starting at 9:32:40 on 28 Apr 2020

Using SCF density matrix from file ./SSI/SSI-073ILE-128ALA-1-dimer.test.10742.fchk

                         Distributed Multipole Analysis

Standard DMA

Positions and radii in angstrom
Multipole moments in atomic units, ea_0^k for rank k

C          x = -1.519494  y =  0.037514  z =  1.233331 angstrom
           Maximum rank =  0   Radius =  0.650 angstrom
                   Q00  =  -0.241515

C          x = -1.156494  y = -1.431486  z =  1.331331 angstrom
           Maximum rank =  0   Radius =  0.650 angstrom
                   Q00  =  -0.230024

H          x = -2.490494  y =  0.220514  z =  1.697331 angstrom
           Maximum rank =  0   Radius =  0.325 angstrom
                   Q00  =   0.078927

H          x = -0.772494  y =  0.657514  z =  1.725331 angstrom
           Maximum rank =  0   Radius =  0.325 angstrom
                   Q00  =   0.077219

H          x = -1.557494  y =  0.370514  z =  0.196331 angstrom
           Maximum rank =  0   Radius =  0.325 angstrom
                   Q00  =   0.078326

H          x = -0.194494  y = -1.589486  z =  0.842331 angstrom
           Maximum rank =  0   Radius =  0.325 angstrom
                   Q00  =   0.080432

H          x = -1.906404  y = -2.063436  z =  0.833060 angstrom
           Maximum rank =  0   Radius =  0.325 angstrom
                   Q00  =   0.079953

H          x = -1.061524  y = -1.702016  z =  2.393307 angstrom
           Maximum rank =  0   Radius =  0.325 angstrom
                   Q00  =   0.077720

C          x =  1.700506  y =  0.222514  z = -0.818669 angstrom
           Maximum rank =  0   Radius =  0.650 angstrom
                   Q00  =  -0.236414

C          x =  0.974506  y =  1.171514  z = -1.749669 angstrom
           Maximum rank =  0   Radius =  0.650 angstrom
                   Q00  =  -0.231352

H          x =  2.749506  y =  0.499514  z = -0.716669 angstrom
           Maximum rank =  0   Radius =  0.325 angstrom
                   Q00  =   0.078138

H          x =  1.239506  y =  0.249514  z =  0.169331 angstrom
           Maximum rank =  0   Radius =  0.325 angstrom
                   Q00  =   0.079194

H          x =  1.639506  y = -0.792486  z = -1.209669 angstrom
           Maximum rank =  0   Radius =  0.325 angstrom
                   Q00  =   0.075970

H          x = -0.059494  y =  0.837514  z = -1.849669 angstrom
           Maximum rank =  0   Radius =  0.325 angstrom
                   Q00  =   0.076962

H          x =  1.462546  y =  1.135254  z = -2.734811 angstrom
           Maximum rank =  0   Radius =  0.325 angstrom
                   Q00  =   0.078470

H          x =  0.962966  y =  2.176414  z = -1.302406 angstrom
           Maximum rank =  0   Radius =  0.325 angstrom
                   Q00  =   0.077993

Total multipoles referred to origin at
           x =   0.000000,  y =    0.000000,  z =    0.000000 angstrom
                   Q00  =  -0.000000

Finished at 9:32:40 on 28 Apr 2020

  DMA results are available in the Python driver through the
	  variable('DMA DISTRIBUTED MULTIPOLES')
  and
	  variable('DMA TOTAL MULTIPOLES')
  commands.

    Psi4 stopped on: Tuesday, 28 April 2020 09:32AM
    Psi4 wall time for execution: 0:00:13.15

*** Psi4 exiting successfully. Buy a developer a beer!
