                               Psi4 1.3.2 release

  ==> Input File <==

--------------------------------------------------------------------------
import numpy as np
set {scf_type pk
basis cc-pvdz
d_convergence 10
gdma_switch   0
gdma_limit    0
gdma_origin   [ 0.0,  0.0,  0.0 ]
}
molecule test {
    units Angstrom
    0 1
    --
    0 1
    C                1.398510174882047    -2.212391329408598    -1.288705155729207
    C                0.236510174882047    -0.663391329408597     0.346294844270793
    C                1.283510174882047    -0.898391329408597    -0.556705155729207
    C                0.115510174882047     0.528608670591403     1.048294844270793
    C                1.056510174882047     1.538608670591403     0.876294844270793
    C                2.228510174882047     0.124608670591403    -0.711705155729207
    C                2.107510174882047     1.327608670591403    -0.016705155729207
    O                0.901510174882047     2.714608670591403     1.572294844270793
    H               -0.505489825117953    -1.433391329408597     0.489294844270793
    H               -0.709489825117953     0.655608670591403     1.736294844270793
    H                1.537510174882047    -2.990391329408598    -0.536705155729207
    H                2.297510174882047    -2.198391329408597    -1.905705155729207
    H                3.059510174882047    -0.016391329408597    -1.391705155729207
    H                0.089510174882047     2.698608670591402     2.080294844270793
    H                2.839510174882047     2.110608670591403    -0.158705155729207
    H                0.536620174882047    -2.479971329408598    -1.917635155729207
    C               -3.449489825117953    -0.921391329408597    -0.685705155729207
    C               -4.854489825117954    -1.515391329408597    -0.637705155729207
    H               -3.050489825117954    -0.776391329408597     0.318294844270793
    H               -2.789489825117954    -1.601391329408597    -1.224705155729207
    H               -3.472489825117953     0.027608670591403    -1.209705155729207
    H               -4.822489825117954    -2.471391329408597    -0.124705155729207
    H               -5.540519825117954    -0.850151329408597    -0.092895155729207
    H               -5.237009825117954    -1.709891329408597    -1.650545155729207

}
e, wfn = energy('scf', return_wfn=True)
gdma(wfn)
dmavals = variable('DMA DISTRIBUTED MULTIPOLES')
charges = np.array(dmavals)
print(charges)
np.save('SSI-142TYR-203VAL-1-dimer.npy', np.array(charges))--------------------------------------------------------------------------

*** tstart() called on ds3
*** at Mon Apr 27 14:52:59 2020

   => Loading Basis Set <=

    Name: CC-PVDZ
    Role: ORBITAL
    Keyword: BASIS
    atoms 1-7, 17-18  entry C          line   138 file /theoryfs2/ds/metcalf/miniconda2/envs/tf2gpu/share/psi4/basis/cc-pvdz.gbs
    atoms 8           entry O          line   198 file /theoryfs2/ds/metcalf/miniconda2/envs/tf2gpu/share/psi4/basis/cc-pvdz.gbs
    atoms 9-16, 19-24 entry H          line    22 file /theoryfs2/ds/metcalf/miniconda2/envs/tf2gpu/share/psi4/basis/cc-pvdz.gbs

         ---------------------------------------------------------
                                   SCF
               by Justin Turney, Rob Parrish, Andy Simmonett
                          and Daniel G. A. Smith
                              RHF Reference
                        1 Threads,    500 MiB Core
         ---------------------------------------------------------

  ==> Geometry <==

    Molecular point group: c1
    Full point group: C1

    Geometry (in Angstrom), charge = 0, multiplicity = 1:

       Center              X                  Y                   Z               Mass
    ------------   -----------------  -----------------  -----------------  -----------------
         C            1.398510174882    -2.212391329409    -1.288705155729    12.000000000000
         C            0.236510174882    -0.663391329409     0.346294844271    12.000000000000
         C            1.283510174882    -0.898391329409    -0.556705155729    12.000000000000
         C            0.115510174882     0.528608670591     1.048294844271    12.000000000000
         C            1.056510174882     1.538608670591     0.876294844271    12.000000000000
         C            2.228510174882     0.124608670591    -0.711705155729    12.000000000000
         C            2.107510174882     1.327608670591    -0.016705155729    12.000000000000
         O            0.901510174882     2.714608670591     1.572294844271    15.994914619570
         H           -0.505489825118    -1.433391329409     0.489294844271     1.007825032230
         H           -0.709489825118     0.655608670591     1.736294844271     1.007825032230
         H            1.537510174882    -2.990391329409    -0.536705155729     1.007825032230
         H            2.297510174882    -2.198391329409    -1.905705155729     1.007825032230
         H            3.059510174882    -0.016391329409    -1.391705155729     1.007825032230
         H            0.089510174882     2.698608670591     2.080294844271     1.007825032230
         H            2.839510174882     2.110608670591    -0.158705155729     1.007825032230
         H            0.536620174882    -2.479971329409    -1.917635155729     1.007825032230
         C           -3.449489825118    -0.921391329409    -0.685705155729    12.000000000000
         C           -4.854489825118    -1.515391329409    -0.637705155729    12.000000000000
         H           -3.050489825118    -0.776391329409     0.318294844271     1.007825032230
         H           -2.789489825118    -1.601391329409    -1.224705155729     1.007825032230
         H           -3.472489825118     0.027608670591    -1.209705155729     1.007825032230
         H           -4.822489825118    -2.471391329409    -0.124705155729     1.007825032230
         H           -5.540519825118    -0.850151329409    -0.092895155729     1.007825032230
         H           -5.237009825118    -1.709891329409    -1.650545155729     1.007825032230

  Running in c1 symmetry.

  Rotational constants: A =      0.04701  B =      0.01931  C =      0.01435 [cm^-1]
  Rotational constants: A =   1409.37032  B =    578.79350  C =    430.18272 [MHz]
  Nuclear repulsion =  481.949780053240659

  Charge       = 0
  Multiplicity = 1
  Electrons    = 76
  Nalpha       = 38
  Nbeta        = 38

  ==> Algorithm <==

  SCF Algorithm Type is PK.
  DIIS enabled.
  MOM disabled.
  Fractional occupation disabled.
  Guess Type is SAD.
  Energy threshold   = 1.00e-06
  Density threshold  = 1.00e-10
  Integral threshold = 0.00e+00

  ==> Primary Basis <==

  Basis Set: CC-PVDZ
    Blend: CC-PVDZ
    Number of shells: 102
    Number of basis function: 210
    Number of Cartesian functions: 220
    Spherical Harmonics?: true
    Max angular momentum: 2

  ==> Pre-Iterations <==

   -------------------------------------------------------
    Irrep   Nso     Nmo     Nalpha   Nbeta   Ndocc  Nsocc
   -------------------------------------------------------
     A        210     210       0       0       0       0
   -------------------------------------------------------
    Total     210     210      38      38      38       0
   -------------------------------------------------------

  ==> Integral Setup <==

  Using integral reordering PK algorithm.
  Sizing the integral batches needed.
  Building batch lookup table.
   Calculation information:
      Number of atoms:                  24
      Number of AO shells:             102
      Number of primitives:            290
      Number of atomic orbitals:       220
      Number of basis functions:       210

      Integral cutoff                 1.00e-12
      Number of threads:                 1

	Batch   1 pq = [       0,    9405] index = [             0,44231715] size =     44231715
	Batch   2 pq = [    9405,   13301] index = [      44231715,88464951] size =     44233236
	Batch   3 pq = [   13301,   16290] index = [      88464951,132690195] size =     44225244
	Batch   4 pq = [   16290,   18810] index = [     132690195,176917455] size =     44227260
	Batch   5 pq = [   18810,   21030] index = [     176917455,221140965] size =     44223510
	Batch   6 pq = [   21030,   22155] index = [     221140965,245433090] size =     24292125
  Task number: 23
  Buffer size: 11059200
  Buffer per thread: 2
  We computed 10578382 shell quartets total.
  Whereas there are 13799631 unique shell quartets.

  ==> DiskJK: Disk-Based J/K Matrices <==

    J tasked:                  Yes
    K tasked:                  Yes
    wK tasked:                  No
    Memory [MiB]:              375
    Schwarz Cutoff:          1E-12

    OpenMP threads:              1

  Minimum eigenvalue in the overlap matrix is 3.2608940752E-04.
  Using Symmetric Orthogonalization.

  SCF Guess: Superposition of Atomic Densities via on-the-fly atomic UHF.

  ==> Iterations <==

                        Total Energy        Delta E     RMS |[F,P]|

   @RHF iter SAD:  -422.62746145273866   -4.22627e+02   0.00000e+00
   @RHF iter   1:  -423.60161746958232   -9.74156e-01   2.97880e-03 DIIS
   @RHF iter   2:  -423.81783473270843   -2.16217e-01   1.25913e-03 DIIS
   @RHF iter   3:  -423.85273564250195   -3.49009e-02   2.83897e-04 DIIS
   @RHF iter   4:  -423.85560482735445   -2.86918e-03   1.18194e-04 DIIS
   @RHF iter   5:  -423.85596284528515   -3.58018e-04   2.09394e-05 DIIS
   @RHF iter   6:  -423.85598064603107   -1.78007e-05   6.37353e-06 DIIS
   @RHF iter   7:  -423.85598232904817   -1.68302e-06   2.13319e-06 DIIS
   @RHF iter   8:  -423.85598257112434   -2.42076e-07   8.03137e-07 DIIS
   @RHF iter   9:  -423.85598261358507   -4.24607e-08   3.37112e-07 DIIS
   @RHF iter  10:  -423.85598262242962   -8.84455e-09   1.47894e-07 DIIS
   @RHF iter  11:  -423.85598262526582   -2.83620e-09   6.17192e-08 DIIS
   @RHF iter  12:  -423.85598262572614   -4.60318e-10   2.92554e-08 DIIS
   @RHF iter  13:  -423.85598262580379   -7.76481e-11   8.02865e-09 DIIS
   @RHF iter  14:  -423.85598262580595   -2.16005e-12   2.21263e-09 DIIS
   @RHF iter  15:  -423.85598262580879   -2.84217e-12   7.81858e-10 DIIS
   @RHF iter  16:  -423.85598262580555    3.24007e-12   2.88630e-10 DIIS
   @RHF iter  17:  -423.85598262581181   -6.25278e-12   1.32041e-10 DIIS
   @RHF iter  18:  -423.85598262580754    4.26326e-12   6.53233e-11 DIIS
  Energy and wave function converged.

  ==> Post-Iterations <==

    Orbital Energies [Eh]
    ---------------------

    Doubly Occupied:

       1A    -20.582773     2A    -11.300337     3A    -11.239745
       4A    -11.237626     5A    -11.235868     6A    -11.233148
       7A    -11.231420     8A    -11.230185     9A    -11.220614
      10A    -11.218807    11A     -1.395959    12A     -1.149092
      13A     -1.037376    14A     -1.021332    15A     -1.015937
      16A     -0.927581    17A     -0.841636    18A     -0.839688
      19A     -0.801645    20A     -0.729845    21A     -0.667666
      22A     -0.640884    23A     -0.608593    24A     -0.600599
      25A     -0.599867    26A     -0.584167    27A     -0.582889
      28A     -0.569323    29A     -0.566081    30A     -0.529556
      31A     -0.504832    32A     -0.500811    33A     -0.488669
      34A     -0.487655    35A     -0.479817    36A     -0.466397
      37A     -0.337920    38A     -0.301904

    Virtual:

      39A      0.131319    40A      0.152489    41A      0.168401
      42A      0.180600    43A      0.195527    44A      0.205969
      45A      0.216486    46A      0.240403    47A      0.250593
      48A      0.257116    49A      0.263460    50A      0.268933
      51A      0.287325    52A      0.294391    53A      0.308969
      54A      0.319650    55A      0.370633    56A      0.381292
      57A      0.394452    58A      0.426962    59A      0.453311
      60A      0.489695    61A      0.495074    62A      0.512945
      63A      0.588720    64A      0.593909    65A      0.599164
      66A      0.615858    67A      0.629265    68A      0.646611
      69A      0.653246    70A      0.682462    71A      0.693196
      72A      0.696027    73A      0.700329    74A      0.715818
      75A      0.731956    76A      0.740339    77A      0.757626
      78A      0.766907    79A      0.774363    80A      0.785302
      81A      0.800737    82A      0.820692    83A      0.835829
      84A      0.845076    85A      0.870794    86A      0.882605
      87A      0.889576    88A      0.891753    89A      0.893848
      90A      0.896863    91A      0.897026    92A      0.909923
      93A      0.916009    94A      0.925315    95A      0.929716
      96A      0.946465    97A      0.960782    98A      0.969669
      99A      0.983418   100A      1.012946   101A      1.032141
     102A      1.060161   103A      1.124969   104A      1.128023
     105A      1.136142   106A      1.140887   107A      1.146917
     108A      1.175576   109A      1.204695   110A      1.228445
     111A      1.241630   112A      1.251593   113A      1.269747
     114A      1.286794   115A      1.299043   116A      1.308700
     117A      1.312439   118A      1.350421   119A      1.360200
     120A      1.385160   121A      1.464740   122A      1.477197
     123A      1.488565   124A      1.514923   125A      1.520481
     126A      1.549959   127A      1.576285   128A      1.617145
     129A      1.623777   130A      1.677894   131A      1.682076
     132A      1.688013   133A      1.694534   134A      1.727869
     135A      1.745740   136A      1.787083   137A      1.797258
     138A      1.807369   139A      1.856383   140A      1.862790
     141A      1.878756   142A      1.890194   143A      1.897329
     144A      1.899451   145A      1.906250   146A      1.922063
     147A      1.926568   148A      1.938234   149A      1.943921
     150A      1.948407   151A      1.950270   152A      1.952574
     153A      1.958173   154A      1.969365   155A      1.994580
     156A      1.997849   157A      2.023296   158A      2.049106
     159A      2.065258   160A      2.071472   161A      2.076404
     162A      2.086894   163A      2.111437   164A      2.113111
     165A      2.143243   166A      2.186887   167A      2.196492
     168A      2.218795   169A      2.263228   170A      2.271138
     171A      2.304902   172A      2.309312   173A      2.321285
     174A      2.359745   175A      2.365697   176A      2.385819
     177A      2.450692   178A      2.463915   179A      2.468017
     180A      2.480719   181A      2.502948   182A      2.517575
     183A      2.534509   184A      2.553584   185A      2.572520
     186A      2.612485   187A      2.638507   188A      2.736340
     189A      2.759711   190A      2.769352   191A      2.785494
     192A      2.789848   193A      2.816511   194A      2.846124
     195A      2.860976   196A      2.866586   197A      2.886476
     198A      2.952720   199A      2.961163   200A      2.964315
     201A      3.001861   202A      3.073669   203A      3.118757
     204A      3.256465   205A      3.283531   206A      3.339027
     207A      3.570055   208A      3.651030   209A      3.965888
     210A      4.180686

    Final Occupation by Irrep:
              A
    DOCC [    38 ]

  @RHF Final Energy:  -423.85598262580754

   => Energetics <=

    Nuclear Repulsion Energy =            481.9497800532406586
    One-Electron Energy =               -1529.5950367202522102
    Two-Electron Energy =                 623.7892740412040666
    Total Energy =                       -423.8559826258075418

Computation Completed

Properties will be evaluated at   0.000000,   0.000000,   0.000000 [a0]

Properties computed using the SCF density matrix

  Nuclear Dipole Moment: [e a0]
     X:   -14.7770      Y:   -10.3322      Z:    -5.2318

  Electronic Dipole Moment: [e a0]
     X:    14.3345      Y:     9.9265      Z:     5.3077

  Dipole Moment: [e a0]
     X:    -0.4425      Y:    -0.4057      Z:     0.0759     Total:     0.6051

  Dipole Moment: [D]
     X:    -1.1247      Y:    -1.0311      Z:     0.1929     Total:     1.5380

*** tstop() called on ds3 at Mon Apr 27 14:54:49 2020
Module time:
	user time   =      76.42 seconds =       1.27 minutes
	system time =      37.82 seconds =       0.63 minutes
	total time  =        110 seconds =       1.83 minutes
Total time:
	user time   =      76.42 seconds =       1.27 minutes
	system time =      37.82 seconds =       0.63 minutes
	total time  =        110 seconds =       1.83 minutes
                                     G D M A

                                 by Anthony Stone

                           version 2.2.06, 22 June 2011

               Distributed Multipoles from Gaussian wavefunctions

Starting at 14:54:49 on 27 Apr 2020

Using SCF density matrix from file ./SSI/SSI-142TYR-203VAL-1-dimer.test.14622.fchk

                         Distributed Multipole Analysis

Standard DMA

Positions and radii in angstrom
Multipole moments in atomic units, ea_0^k for rank k

C          x =  1.398510  y = -2.212391  z = -1.288705 angstrom
           Maximum rank =  0   Radius =  0.650 angstrom
                   Q00  =  -0.203483

C          x =  0.236510  y = -0.663391  z =  0.346295 angstrom
           Maximum rank =  0   Radius =  0.650 angstrom
                   Q00  =   0.052556

C          x =  1.283510  y = -0.898391  z = -0.556705 angstrom
           Maximum rank =  0   Radius =  0.650 angstrom
                   Q00  =  -0.139681

C          x =  0.115510  y =  0.528609  z =  1.048295 angstrom
           Maximum rank =  0   Radius =  0.650 angstrom
                   Q00  =  -0.176695

C          x =  1.056510  y =  1.538609  z =  0.876295 angstrom
           Maximum rank =  0   Radius =  0.650 angstrom
                   Q00  =   0.264010

C          x =  2.228510  y =  0.124609  z = -0.711705 angstrom
           Maximum rank =  0   Radius =  0.650 angstrom
                   Q00  =  -0.048572

C          x =  2.107510  y =  1.327609  z = -0.016705 angstrom
           Maximum rank =  0   Radius =  0.650 angstrom
                   Q00  =  -0.082551

O          x =  0.901510  y =  2.714609  z =  1.572295 angstrom
           Maximum rank =  0   Radius =  0.650 angstrom
                   Q00  =  -0.649429

H          x = -0.505490  y = -1.433391  z =  0.489295 angstrom
           Maximum rank =  0   Radius =  0.325 angstrom
                   Q00  =   0.066136

H          x = -0.709490  y =  0.655609  z =  1.736295 angstrom
           Maximum rank =  0   Radius =  0.325 angstrom
                   Q00  =   0.068909

H          x =  1.537510  y = -2.990391  z = -0.536705 angstrom
           Maximum rank =  0   Radius =  0.325 angstrom
                   Q00  =   0.098334

H          x =  2.297510  y = -2.198391  z = -1.905705 angstrom
           Maximum rank =  0   Radius =  0.325 angstrom
                   Q00  =   0.098792

H          x =  3.059510  y = -0.016391  z = -1.391705 angstrom
           Maximum rank =  0   Radius =  0.325 angstrom
                   Q00  =   0.065852

H          x =  0.089510  y =  2.698609  z =  2.080295 angstrom
           Maximum rank =  0   Radius =  0.325 angstrom
                   Q00  =   0.405182

H          x =  2.839510  y =  2.110609  z = -0.158705 angstrom
           Maximum rank =  0   Radius =  0.325 angstrom
                   Q00  =   0.079546

H          x =  0.536620  y = -2.479971  z = -1.917635 angstrom
           Maximum rank =  0   Radius =  0.325 angstrom
                   Q00  =   0.101453

C          x = -3.449490  y = -0.921391  z = -0.685705 angstrom
           Maximum rank =  0   Radius =  0.650 angstrom
                   Q00  =  -0.225686

C          x = -4.854490  y = -1.515391  z = -0.637705 angstrom
           Maximum rank =  0   Radius =  0.650 angstrom
                   Q00  =  -0.245802

H          x = -3.050490  y = -0.776391  z =  0.318295 angstrom
           Maximum rank =  0   Radius =  0.325 angstrom
                   Q00  =   0.074200

H          x = -2.789490  y = -1.601391  z = -1.224705 angstrom
           Maximum rank =  0   Radius =  0.325 angstrom
                   Q00  =   0.076870

H          x = -3.472490  y =  0.027609  z = -1.209705 angstrom
           Maximum rank =  0   Radius =  0.325 angstrom
                   Q00  =   0.084054

H          x = -4.822490  y = -2.471391  z = -0.124705 angstrom
           Maximum rank =  0   Radius =  0.325 angstrom
                   Q00  =   0.076936

H          x = -5.540520  y = -0.850151  z = -0.092895 angstrom
           Maximum rank =  0   Radius =  0.325 angstrom
                   Q00  =   0.078688

H          x = -5.237010  y = -1.709891  z = -1.650545 angstrom
           Maximum rank =  0   Radius =  0.325 angstrom
                   Q00  =   0.080382

Total multipoles referred to origin at
           x =   0.000000,  y =    0.000000,  z =    0.000000 angstrom
                   Q00  =  -0.000000

Finished at 14:54:49 on 27 Apr 2020

  DMA results are available in the Python driver through the
	  variable('DMA DISTRIBUTED MULTIPOLES')
  and
	  variable('DMA TOTAL MULTIPOLES')
  commands.

    Psi4 stopped on: Monday, 27 April 2020 02:54PM
    Psi4 wall time for execution: 0:01:50.44

*** Psi4 exiting successfully. Buy a developer a beer!
