                               Psi4 1.3.2 release

  ==> Input File <==

--------------------------------------------------------------------------
import numpy as np
set {scf_type pk
basis cc-pvdz
d_convergence 10
gdma_switch   0
gdma_limit    0
gdma_origin   [ 0.0,  0.0,  0.0 ]
}
molecule test {
    units Angstrom
    -1 1
    --
    -1 1
    C                0.291419744992863    -0.181026542886088    -3.386263459153121
    C                0.752419744992863    -0.995026542886088    -2.170263459153121
    O                0.333419744992863    -0.675026542886088    -1.042263459153121
    O                1.562419744992863    -1.938026542886088    -2.355263459153121
    H                0.283419744992863    -0.817026542886088    -4.271263459153122
    H                1.028419744992863     0.605973457113912    -3.559263459153121
    H               -0.692550255007137     0.300773457113912    -3.287936459153121
    C               -1.729580255007137     1.429973457113912     3.204736540846879
    C               -0.666580255007137     0.933973457113912     2.228736540846878
    O                0.290419744992863     0.283973457113912     2.681736540846879
    N               -0.821580255007137     1.143973457113912     0.913736540846879
    H               -0.241580255007137     0.594973457113912     0.275736540846879
    H               -1.618580255007137     1.644973457113912     0.542736540846879
    H               -1.235580255007137     2.016973457113912     3.975736540846879
    H               -2.160580255007137     0.548973457113912     3.682736540846879
    H               -2.543310255007137     2.029753457113912     2.771035340846879

}
e, wfn = energy('scf', return_wfn=True)
gdma(wfn)
dmavals = variable('DMA DISTRIBUTED MULTIPOLES')
charges = np.array(dmavals)
print(charges)
np.save('SSI-054GLU-141GLN-1-dimer.npy', np.array(charges))--------------------------------------------------------------------------

*** tstart() called on ds3
*** at Mon Apr 27 20:49:47 2020

   => Loading Basis Set <=

    Name: CC-PVDZ
    Role: ORBITAL
    Keyword: BASIS
    atoms 1-2, 8-9   entry C          line   138 file /theoryfs2/ds/metcalf/miniconda2/envs/tf2gpu/share/psi4/basis/cc-pvdz.gbs
    atoms 3-4, 10    entry O          line   198 file /theoryfs2/ds/metcalf/miniconda2/envs/tf2gpu/share/psi4/basis/cc-pvdz.gbs
    atoms 5-7, 12-16 entry H          line    22 file /theoryfs2/ds/metcalf/miniconda2/envs/tf2gpu/share/psi4/basis/cc-pvdz.gbs
    atoms 11         entry N          line   168 file /theoryfs2/ds/metcalf/miniconda2/envs/tf2gpu/share/psi4/basis/cc-pvdz.gbs

         ---------------------------------------------------------
                                   SCF
               by Justin Turney, Rob Parrish, Andy Simmonett
                          and Daniel G. A. Smith
                              RHF Reference
                        1 Threads,    500 MiB Core
         ---------------------------------------------------------

  ==> Geometry <==

    Molecular point group: c1
    Full point group: C1

    Geometry (in Angstrom), charge = -1, multiplicity = 1:

       Center              X                  Y                   Z               Mass
    ------------   -----------------  -----------------  -----------------  -----------------
         C            0.291419744993    -0.181026542886    -3.386263459153    12.000000000000
         C            0.752419744993    -0.995026542886    -2.170263459153    12.000000000000
         O            0.333419744993    -0.675026542886    -1.042263459153    15.994914619570
         O            1.562419744993    -1.938026542886    -2.355263459153    15.994914619570
         H            0.283419744993    -0.817026542886    -4.271263459153     1.007825032230
         H            1.028419744993     0.605973457114    -3.559263459153     1.007825032230
         H           -0.692550255007     0.300773457114    -3.287936459153     1.007825032230
         C           -1.729580255007     1.429973457114     3.204736540847    12.000000000000
         C           -0.666580255007     0.933973457114     2.228736540847    12.000000000000
         O            0.290419744993     0.283973457114     2.681736540847    15.994914619570
         N           -0.821580255007     1.143973457114     0.913736540847    14.003074004430
         H           -0.241580255007     0.594973457114     0.275736540847     1.007825032230
         H           -1.618580255007     1.644973457114     0.542736540847     1.007825032230
         H           -1.235580255007     2.016973457114     3.975736540847     1.007825032230
         H           -2.160580255007     0.548973457114     3.682736540847     1.007825032230
         H           -2.543310255007     2.029753457114     2.771035340847     1.007825032230

  Running in c1 symmetry.

  Rotational constants: A =      0.16941  B =      0.01951  C =      0.01783 [cm^-1]
  Rotational constants: A =   5078.77675  B =    585.02357  C =    534.60412 [MHz]
  Nuclear repulsion =  339.614027912316658

  Charge       = -1
  Multiplicity = 1
  Electrons    = 64
  Nalpha       = 32
  Nbeta        = 32

  ==> Algorithm <==

  SCF Algorithm Type is PK.
  DIIS enabled.
  MOM disabled.
  Fractional occupation disabled.
  Guess Type is SAD.
  Energy threshold   = 1.00e-06
  Density threshold  = 1.00e-10
  Integral threshold = 0.00e+00

  ==> Primary Basis <==

  Basis Set: CC-PVDZ
    Blend: CC-PVDZ
    Number of shells: 72
    Number of basis function: 152
    Number of Cartesian functions: 160
    Spherical Harmonics?: true
    Max angular momentum: 2

  ==> Pre-Iterations <==

   -------------------------------------------------------
    Irrep   Nso     Nmo     Nalpha   Nbeta   Ndocc  Nsocc
   -------------------------------------------------------
     A        152     152       0       0       0       0
   -------------------------------------------------------
    Total     152     152      32      32      32       0
   -------------------------------------------------------

  ==> Integral Setup <==

  Using integral reordering PK algorithm.
  Sizing the integral batches needed.
  Building batch lookup table.
   Calculation information:
      Number of atoms:                  16
      Number of AO shells:              72
      Number of primitives:            216
      Number of atomic orbitals:       160
      Number of basis functions:       152

      Integral cutoff                 1.00e-12
      Number of threads:                 1

	Batch   1 pq = [       0,    9405] index = [             0,44231715] size =     44231715
	Batch   2 pq = [    9405,   11628] index = [      44231715,67611006] size =     23379291
  Task number: 7
  Buffer size: 11059200
  Buffer per thread: 2
  We computed 2330697 shell quartets total.
  Whereas there are 3454506 unique shell quartets.

  ==> DiskJK: Disk-Based J/K Matrices <==

    J tasked:                  Yes
    K tasked:                  Yes
    wK tasked:                  No
    Memory [MiB]:              375
    Schwarz Cutoff:          1E-12

    OpenMP threads:              1

  Minimum eigenvalue in the overlap matrix is 4.9455605695E-03.
  Using Symmetric Orthogonalization.

  SCF Guess: Superposition of Atomic Densities via on-the-fly atomic UHF.

  ==> Iterations <==

                        Total Energy        Delta E     RMS |[F,P]|

   @RHF iter SAD:  -433.35371103495129   -4.33354e+02   0.00000e+00
   @RHF iter   1:  -434.92295603147312   -1.56924e+00   5.48705e-03 DIIS
   @RHF iter   2:  -435.15507205620440   -2.32116e-01   3.33438e-03 DIIS
   @RHF iter   3:  -435.24512857763966   -9.00565e-02   5.12983e-04 DIIS
   @RHF iter   4:  -435.24869556529092   -3.56699e-03   1.98085e-04 DIIS
   @RHF iter   5:  -435.24932026244898   -6.24697e-04   4.38118e-05 DIIS
   @RHF iter   6:  -435.24935380843152   -3.35460e-05   2.01097e-05 DIIS
   @RHF iter   7:  -435.24936143383820   -7.62541e-06   5.86582e-06 DIIS
   @RHF iter   8:  -435.24936264371911   -1.20988e-06   2.51959e-06 DIIS
   @RHF iter   9:  -435.24936284780438   -2.04085e-07   1.00489e-06 DIIS
   @RHF iter  10:  -435.24936287773221   -2.99278e-08   2.30694e-07 DIIS
   @RHF iter  11:  -435.24936287935748   -1.62527e-09   5.13332e-08 DIIS
   @RHF iter  12:  -435.24936287942228   -6.48015e-11   2.04819e-08 DIIS
   @RHF iter  13:  -435.24936287942802   -5.74119e-12   7.82466e-09 DIIS
   @RHF iter  14:  -435.24936287943092   -2.89901e-12   2.58749e-09 DIIS
   @RHF iter  15:  -435.24936287943046    4.54747e-13   7.11438e-10 DIIS
   @RHF iter  16:  -435.24936287943115   -6.82121e-13   2.38506e-10 DIIS
   @RHF iter  17:  -435.24936287943098    1.70530e-13   1.15332e-10 DIIS
   @RHF iter  18:  -435.24936287943149   -5.11591e-13   4.35792e-11 DIIS
  Energy and wave function converged.

  ==> Post-Iterations <==

    Orbital Energies [Eh]
    ---------------------

    Doubly Occupied:

       1A    -20.374845     2A    -20.278654     3A    -20.267533
       4A    -15.442303     5A    -11.226638     6A    -11.140664
       7A    -11.132238     8A    -11.062354     9A     -1.229155
      10A     -1.163178    11A     -1.068693    12A     -1.048573
      13A     -0.888014    14A     -0.805743    15A     -0.662823
      16A     -0.582386    17A     -0.534468    18A     -0.512696
      19A     -0.497222    20A     -0.450272    21A     -0.443421
      22A     -0.419557    23A     -0.416369    24A     -0.412447
      25A     -0.393026    26A     -0.355354    27A     -0.317539
      28A     -0.283679    29A     -0.264020    30A     -0.197514
      31A     -0.184734    32A     -0.175191

    Virtual:

      33A      0.275537    34A      0.309548    35A      0.320199
      36A      0.341174    37A      0.361317    38A      0.386770
      39A      0.388316    40A      0.407220    41A      0.466685
      42A      0.477879    43A      0.516745    44A      0.562596
      45A      0.578610    46A      0.685343    47A      0.688042
      48A      0.726740    49A      0.730886    50A      0.800443
      51A      0.804614    52A      0.814797    53A      0.847116
      54A      0.861065    55A      0.872986    56A      0.881909
      57A      0.932886    58A      0.948606    59A      0.954921
      60A      0.955996    61A      0.996093    62A      1.015190
      63A      1.021323    64A      1.028300    65A      1.041036
      66A      1.060458    67A      1.076092    68A      1.118324
      69A      1.145746    70A      1.147996    71A      1.202163
      72A      1.216524    73A      1.238729    74A      1.258227
      75A      1.333072    76A      1.340757    77A      1.407248
      78A      1.462775    79A      1.491608    80A      1.503773
      81A      1.505602    82A      1.526619    83A      1.543496
      84A      1.552355    85A      1.566822    86A      1.588366
      87A      1.605760    88A      1.639548    89A      1.655631
      90A      1.714493    91A      1.736435    92A      1.765573
      93A      1.778140    94A      1.829665    95A      1.836419
      96A      1.842458    97A      1.929107    98A      1.971780
      99A      2.002758   100A      2.011635   101A      2.035536
     102A      2.039654   103A      2.060249   104A      2.077777
     105A      2.102143   106A      2.120076   107A      2.139259
     108A      2.182059   109A      2.189526   110A      2.201040
     111A      2.217170   112A      2.276501   113A      2.336179
     114A      2.352204   115A      2.407176   116A      2.423525
     117A      2.454861   118A      2.534829   119A      2.540626
     120A      2.568555   121A      2.591651   122A      2.649888
     123A      2.675013   124A      2.688003   125A      2.759545
     126A      2.766397   127A      2.800703   128A      2.841641
     129A      2.885930   130A      2.898372   131A      2.904229
     132A      2.959876   133A      2.969908   134A      3.004884
     135A      3.099592   136A      3.217130   137A      3.228780
     138A      3.252183   139A      3.261013   140A      3.280602
     141A      3.344295   142A      3.404583   143A      3.606171
     144A      3.624026   145A      3.639157   146A      3.767737
     147A      3.820683   148A      3.970014   149A      4.013822
     150A      4.043927   151A      4.109532   152A      4.180251

    Final Occupation by Irrep:
              A
    DOCC [    32 ]

  @RHF Final Energy:  -435.24936287943149

   => Energetics <=

    Nuclear Repulsion Energy =            339.6140279123166579
    One-Electron Energy =               -1281.2641750047041569
    Two-Electron Energy =                 506.4007842129559549
    Total Energy =                       -435.2493628794314873

Computation Completed

Properties will be evaluated at   0.000000,   0.000000,   0.000000 [a0]

Properties computed using the SCF density matrix

  Nuclear Dipole Moment: [e a0]
     X:    -6.7185      Y:     6.4778      Z:     0.1153

  Electronic Dipole Moment: [e a0]
     X:     3.9292      Y:    -3.5668      Z:     1.3594

  Dipole Moment: [e a0]
     X:    -2.7893      Y:     2.9110      Z:     1.4747     Total:     4.2929

  Dipole Moment: [D]
     X:    -7.0896      Y:     7.3989      Z:     3.7484     Total:    10.9113

*** tstop() called on ds3 at Mon Apr 27 20:50:17 2020
Module time:
	user time   =      19.57 seconds =       0.33 minutes
	system time =      10.85 seconds =       0.18 minutes
	total time  =         30 seconds =       0.50 minutes
Total time:
	user time   =      19.57 seconds =       0.33 minutes
	system time =      10.85 seconds =       0.18 minutes
	total time  =         30 seconds =       0.50 minutes
                                     G D M A

                                 by Anthony Stone

                           version 2.2.06, 22 June 2011

               Distributed Multipoles from Gaussian wavefunctions

Starting at 20:50:17 on 27 Apr 2020

Using SCF density matrix from file ./SSI/SSI-054GLU-141GLN-1-dimer.test.19111.fchk

                         Distributed Multipole Analysis

Standard DMA

Positions and radii in angstrom
Multipole moments in atomic units, ea_0^k for rank k

C          x =  0.291420  y = -0.181027  z = -3.386263 angstrom
           Maximum rank =  0   Radius =  0.650 angstrom
                   Q00  =  -0.284818

C          x =  0.752420  y = -0.995027  z = -2.170263 angstrom
           Maximum rank =  0   Radius =  0.650 angstrom
                   Q00  =   0.953104

O          x =  0.333420  y = -0.675027  z = -1.042263 angstrom
           Maximum rank =  0   Radius =  0.650 angstrom
                   Q00  =  -0.922769

O          x =  1.562420  y = -1.938027  z = -2.355263 angstrom
           Maximum rank =  0   Radius =  0.650 angstrom
                   Q00  =  -0.910173

H          x =  0.283420  y = -0.817027  z = -4.271263 angstrom
           Maximum rank =  0   Radius =  0.325 angstrom
                   Q00  =   0.061637

H          x =  1.028420  y =  0.605973  z = -3.559263 angstrom
           Maximum rank =  0   Radius =  0.325 angstrom
                   Q00  =   0.082538

H          x = -0.692550  y =  0.300773  z = -3.287936 angstrom
           Maximum rank =  0   Radius =  0.325 angstrom
                   Q00  =   0.047120

C          x = -1.729580  y =  1.429973  z =  3.204737 angstrom
           Maximum rank =  0   Radius =  0.650 angstrom
                   Q00  =  -0.265935

C          x = -0.666580  y =  0.933973  z =  2.228737 angstrom
           Maximum rank =  0   Radius =  0.650 angstrom
                   Q00  =   0.822793

O          x =  0.290420  y =  0.283973  z =  2.681737 angstrom
           Maximum rank =  0   Radius =  0.650 angstrom
                   Q00  =  -0.799435

N          x = -0.821580  y =  1.143973  z =  0.913737 angstrom
           Maximum rank =  0   Radius =  0.650 angstrom
                   Q00  =  -0.554865

H          x = -0.241580  y =  0.594973  z =  0.275737 angstrom
           Maximum rank =  0   Radius =  0.325 angstrom
                   Q00  =   0.302892

H          x = -1.618580  y =  1.644973  z =  0.542737 angstrom
           Maximum rank =  0   Radius =  0.325 angstrom
                   Q00  =   0.173854

H          x = -1.235580  y =  2.016973  z =  3.975737 angstrom
           Maximum rank =  0   Radius =  0.325 angstrom
                   Q00  =   0.109408

H          x = -2.160580  y =  0.548973  z =  3.682737 angstrom
           Maximum rank =  0   Radius =  0.325 angstrom
                   Q00  =   0.121315

H          x = -2.543310  y =  2.029753  z =  2.771035 angstrom
           Maximum rank =  0   Radius =  0.325 angstrom
                   Q00  =   0.063334

Total multipoles referred to origin at
           x =   0.000000,  y =    0.000000,  z =    0.000000 angstrom
                   Q00  =  -1.000000

Finished at 20:50:17 on 27 Apr 2020

  DMA results are available in the Python driver through the
	  variable('DMA DISTRIBUTED MULTIPOLES')
  and
	  variable('DMA TOTAL MULTIPOLES')
  commands.

    Psi4 stopped on: Monday, 27 April 2020 08:50PM
    Psi4 wall time for execution: 0:00:29.96

*** Psi4 exiting successfully. Buy a developer a beer!
