                               Psi4 1.3.2 release

  ==> Input File <==

--------------------------------------------------------------------------
import numpy as np
set {scf_type pk
basis cc-pvdz
d_convergence 10
gdma_switch   0
gdma_limit    0
gdma_origin   [ 0.0,  0.0,  0.0 ]
}
molecule test {
    units Angstrom
    0 1
    --
    0 1
    C                1.301297418455458     2.074962928216806    -2.198354657801249
    C                1.353297418455458     2.420962928216805    -3.701354657801248
    C                2.027297418455458     3.046962928216806    -1.270354657801249
    H                0.260297418455458     2.005962928216806    -1.880354657801249
    H                1.731297418455458     1.092962928216806    -2.028354657801249
    H                2.370297418455458     2.693962928216806    -3.989354657801249
    H                1.519297418455458     4.010962928216806    -1.249354657801249
    H                2.043297418455458     2.634962928216806    -0.261354657801249
    H                3.053297418455458     3.184962928216805    -1.609354657801249
    H                1.024637418455458     1.547624928216806    -4.283814657801249
    H                0.679387418455458     3.272714928216806    -3.875594657801249
    C                1.899297418455458    -0.212037071783194     2.209645342198751
    C                0.508297418455458    -0.819037071783194     0.172645342198751
    C                0.599297418455458    -0.626037071783194     1.551645342198751
    C               -0.694702581544542    -1.210037071783194    -0.429354657801249
    C               -0.532702581544542    -0.845037071783194     2.329645342198751
    C               -1.811702581544542    -1.423037071783194     0.376645342198751
    C               -1.732702581544542    -1.245037071783194     1.757645342198751
    O               -3.018702581544542    -1.771037071783194    -0.117354657801249
    H                1.380297418455458    -0.654037071783194    -0.446354657801249
    H               -0.775702581544542    -1.331037071783194    -1.497354657801249
    H                1.655297418455458     0.573962928216806     2.921645342198751
    H                2.564297418455458     0.225962928216806     1.463645342198751
    H               -0.481702581544542    -0.702037071783194     3.399645342198751
    H               -2.589702581544542    -1.429037071783194     2.375645342198752
    H               -3.674702581544542    -1.839037071783194     0.575645342198751
    H                2.417197418455458    -1.024442071783194     2.740475342198752

}
e, wfn = energy('scf', return_wfn=True)
gdma(wfn)
dmavals = variable('DMA DISTRIBUTED MULTIPOLES')
charges = np.array(dmavals)
print(charges)
np.save('SSI-008ILE-062TYR-1-dimer.npy', np.array(charges))--------------------------------------------------------------------------

*** tstart() called on ds3
*** at Tue Apr 28 09:56:17 2020

   => Loading Basis Set <=

    Name: CC-PVDZ
    Role: ORBITAL
    Keyword: BASIS
    atoms 1-3, 12-18  entry C          line   138 file /theoryfs2/ds/metcalf/miniconda2/envs/tf2gpu/share/psi4/basis/cc-pvdz.gbs
    atoms 4-11, 20-27 entry H          line    22 file /theoryfs2/ds/metcalf/miniconda2/envs/tf2gpu/share/psi4/basis/cc-pvdz.gbs
    atoms 19          entry O          line   198 file /theoryfs2/ds/metcalf/miniconda2/envs/tf2gpu/share/psi4/basis/cc-pvdz.gbs

         ---------------------------------------------------------
                                   SCF
               by Justin Turney, Rob Parrish, Andy Simmonett
                          and Daniel G. A. Smith
                              RHF Reference
                        1 Threads,    500 MiB Core
         ---------------------------------------------------------

  ==> Geometry <==

    Molecular point group: c1
    Full point group: C1

    Geometry (in Angstrom), charge = 0, multiplicity = 1:

       Center              X                  Y                   Z               Mass
    ------------   -----------------  -----------------  -----------------  -----------------
         C            1.301297418455     2.074962928217    -2.198354657801    12.000000000000
         C            1.353297418455     2.420962928217    -3.701354657801    12.000000000000
         C            2.027297418455     3.046962928217    -1.270354657801    12.000000000000
         H            0.260297418455     2.005962928217    -1.880354657801     1.007825032230
         H            1.731297418455     1.092962928217    -2.028354657801     1.007825032230
         H            2.370297418455     2.693962928217    -3.989354657801     1.007825032230
         H            1.519297418455     4.010962928217    -1.249354657801     1.007825032230
         H            2.043297418455     2.634962928217    -0.261354657801     1.007825032230
         H            3.053297418455     3.184962928217    -1.609354657801     1.007825032230
         H            1.024637418455     1.547624928217    -4.283814657801     1.007825032230
         H            0.679387418455     3.272714928217    -3.875594657801     1.007825032230
         C            1.899297418455    -0.212037071783     2.209645342199    12.000000000000
         C            0.508297418455    -0.819037071783     0.172645342199    12.000000000000
         C            0.599297418455    -0.626037071783     1.551645342199    12.000000000000
         C           -0.694702581545    -1.210037071783    -0.429354657801    12.000000000000
         C           -0.532702581545    -0.845037071783     2.329645342199    12.000000000000
         C           -1.811702581545    -1.423037071783     0.376645342199    12.000000000000
         C           -1.732702581545    -1.245037071783     1.757645342199    12.000000000000
         O           -3.018702581545    -1.771037071783    -0.117354657801    15.994914619570
         H            1.380297418455    -0.654037071783    -0.446354657801     1.007825032230
         H           -0.775702581545    -1.331037071783    -1.497354657801     1.007825032230
         H            1.655297418455     0.573962928217     2.921645342199     1.007825032230
         H            2.564297418455     0.225962928217     1.463645342199     1.007825032230
         H           -0.481702581545    -0.702037071783     3.399645342199     1.007825032230
         H           -2.589702581545    -1.429037071783     2.375645342199     1.007825032230
         H           -3.674702581545    -1.839037071783     0.575645342199     1.007825032230
         H            2.417197418455    -1.024442071783     2.740475342199     1.007825032230

  Running in c1 symmetry.

  Rotational constants: A =      0.04199  B =      0.01598  C =      0.01239 [cm^-1]
  Rotational constants: A =   1258.93422  B =    479.21366  C =    371.57675 [MHz]
  Nuclear repulsion =  569.083374516761751

  Charge       = 0
  Multiplicity = 1
  Electrons    = 84
  Nalpha       = 42
  Nbeta        = 42

  ==> Algorithm <==

  SCF Algorithm Type is PK.
  DIIS enabled.
  MOM disabled.
  Fractional occupation disabled.
  Guess Type is SAD.
  Energy threshold   = 1.00e-06
  Density threshold  = 1.00e-10
  Integral threshold = 0.00e+00

  ==> Primary Basis <==

  Basis Set: CC-PVDZ
    Blend: CC-PVDZ
    Number of shells: 114
    Number of basis function: 234
    Number of Cartesian functions: 245
    Spherical Harmonics?: true
    Max angular momentum: 2

  ==> Pre-Iterations <==

   -------------------------------------------------------
    Irrep   Nso     Nmo     Nalpha   Nbeta   Ndocc  Nsocc
   -------------------------------------------------------
     A        234     234       0       0       0       0
   -------------------------------------------------------
    Total     234     234      42      42      42       0
   -------------------------------------------------------

  ==> Integral Setup <==

  Using integral reordering PK algorithm.
  Sizing the integral batches needed.
  Building batch lookup table.
   Calculation information:
      Number of atoms:                  27
      Number of AO shells:             114
      Number of primitives:            322
      Number of atomic orbitals:       245
      Number of basis functions:       234

      Integral cutoff                 1.00e-12
      Number of threads:                 1

	Batch   1 pq = [       0,    9405] index = [             0,44231715] size =     44231715
	Batch   2 pq = [    9405,   13301] index = [      44231715,88464951] size =     44233236
	Batch   3 pq = [   13301,   16290] index = [      88464951,132690195] size =     44225244
	Batch   4 pq = [   16290,   18810] index = [     132690195,176917455] size =     44227260
	Batch   5 pq = [   18810,   21030] index = [     176917455,221140965] size =     44223510
	Batch   6 pq = [   21030,   23037] index = [     221140965,265363203] size =     44222238
	Batch   7 pq = [   23037,   24883] index = [     265363203,309594286] size =     44231083
	Batch   8 pq = [   24883,   26601] index = [     309594286,353819901] size =     44225615
	Batch   9 pq = [   26601,   27495] index = [     353819901,378001260] size =     24181359
  Task number: 35
  Buffer size: 11059200
  Buffer per thread: 2
  We computed 18333442 shell quartets total.
  Whereas there are 21487290 unique shell quartets.

  ==> DiskJK: Disk-Based J/K Matrices <==

    J tasked:                  Yes
    K tasked:                  Yes
    wK tasked:                  No
    Memory [MiB]:              375
    Schwarz Cutoff:          1E-12

    OpenMP threads:              1

  Minimum eigenvalue in the overlap matrix is 3.2057434620E-04.
  Using Symmetric Orthogonalization.

  SCF Guess: Superposition of Atomic Densities via on-the-fly atomic UHF.

  ==> Iterations <==

                        Total Energy        Delta E     RMS |[F,P]|

   @RHF iter SAD:  -461.69003661861325   -4.61690e+02   0.00000e+00
   @RHF iter   1:  -462.60575485015278   -9.15718e-01   2.81399e-03 DIIS
   @RHF iter   2:  -462.84801672960691   -2.42262e-01   1.18826e-03 DIIS
   @RHF iter   3:  -462.88719428367085   -3.91776e-02   2.68300e-04 DIIS
   @RHF iter   4:  -462.89043608858537   -3.24180e-03   1.05227e-04 DIIS
   @RHF iter   5:  -462.89079118627922   -3.55098e-04   2.03865e-05 DIIS
   @RHF iter   6:  -462.89081117764101   -1.99914e-05   6.49206e-06 DIIS
   @RHF iter   7:  -462.89081338553717   -2.20790e-06   2.06806e-06 DIIS
   @RHF iter   8:  -462.89081373499465   -3.49457e-07   8.46504e-07 DIIS
   @RHF iter   9:  -462.89081381195933   -7.69647e-08   4.11006e-07 DIIS
   @RHF iter  10:  -462.89081383096539   -1.90061e-08   1.82003e-07 DIIS
   @RHF iter  11:  -462.89081383669765   -5.73226e-09   6.25158e-08 DIIS
   @RHF iter  12:  -462.89081383724999   -5.52348e-10   2.44192e-08 DIIS
   @RHF iter  13:  -462.89081383729905   -4.90559e-11   8.05914e-09 DIIS
   @RHF iter  14:  -462.89081383730445   -5.40012e-12   1.99280e-09 DIIS
   @RHF iter  15:  -462.89081383730633   -1.87583e-12   8.28032e-10 DIIS
   @RHF iter  16:  -462.89081383730570    6.25278e-13   3.24973e-10 DIIS
   @RHF iter  17:  -462.89081383730183    3.86535e-12   1.52783e-10 DIIS
   @RHF iter  18:  -462.89081383730309   -1.25056e-12   6.51833e-11 DIIS
  Energy and wave function converged.

  ==> Post-Iterations <==

    Orbital Energies [Eh]
    ---------------------

    Doubly Occupied:

       1A    -20.582101     2A    -11.299833     3A    -11.239844
       4A    -11.237713     5A    -11.232452     6A    -11.231427
       7A    -11.230563     8A    -11.228565     9A    -11.217811
      10A    -11.216610    11A    -11.213473    12A     -1.407459
      13A     -1.149656    14A     -1.048569    15A     -1.035638
      16A     -1.017705    17A     -0.925750    18A     -0.924265
      19A     -0.845642    20A     -0.804492    21A     -0.794352
      22A     -0.734563    23A     -0.670697    24A     -0.643506
      25A     -0.622176    26A     -0.606902    27A     -0.593261
      28A     -0.588654    29A     -0.586861    30A     -0.571548
      31A     -0.566620    32A     -0.548349    33A     -0.533574
      34A     -0.525861    35A     -0.497960    36A     -0.484143
      37A     -0.470340    38A     -0.468732    39A     -0.464969
      40A     -0.461945    41A     -0.338358    42A     -0.300338

    Virtual:

      43A      0.128442    44A      0.155698    45A      0.167660
      46A      0.179711    47A      0.194712    48A      0.204904
      49A      0.218646    50A      0.232401    51A      0.238064
      52A      0.258900    53A      0.263443    54A      0.267800
      55A      0.279922    56A      0.281933    57A      0.286747
      58A      0.304325    59A      0.326381    60A      0.343622
      61A      0.364425    62A      0.373632    63A      0.385475
      64A      0.423869    65A      0.432309    66A      0.456825
      67A      0.485176    68A      0.500354    69A      0.508073
      70A      0.575635    71A      0.603478    72A      0.609974
      73A      0.611526    74A      0.625379    75A      0.632192
      76A      0.648301    77A      0.662023    78A      0.673981
      79A      0.690955    80A      0.694592    81A      0.714485
      82A      0.729000    83A      0.733650    84A      0.762713
      85A      0.763670    86A      0.775142    87A      0.781591
      88A      0.791040    89A      0.796202    90A      0.802494
      91A      0.821018    92A      0.849112    93A      0.853035
      94A      0.871613    95A      0.874709    96A      0.883901
      97A      0.889138    98A      0.893846    99A      0.897355
     100A      0.901665   101A      0.903330   102A      0.908589
     103A      0.918287   104A      0.928334   105A      0.931292
     106A      0.937681   107A      0.946025   108A      0.961042
     109A      0.974444   110A      0.998347   111A      1.008094
     112A      1.020966   113A      1.028607   114A      1.066387
     115A      1.112510   116A      1.120856   117A      1.131665
     118A      1.143543   119A      1.149529   120A      1.173177
     121A      1.203727   122A      1.215294   123A      1.243792
     124A      1.250550   125A      1.276633   126A      1.286716
     127A      1.291204   128A      1.311348   129A      1.315787
     130A      1.348006   131A      1.364825   132A      1.388381
     133A      1.397417   134A      1.478415   135A      1.484092
     136A      1.494918   137A      1.505652   138A      1.519453
     139A      1.535978   140A      1.560218   141A      1.619911
     142A      1.621916   143A      1.643400   144A      1.668850
     145A      1.681676   146A      1.691127   147A      1.696623
     148A      1.703896   149A      1.734616   150A      1.749061
     151A      1.785798   152A      1.799845   153A      1.804396
     154A      1.851709   155A      1.861662   156A      1.864431
     157A      1.880805   158A      1.897474   159A      1.900234
     160A      1.902635   161A      1.914094   162A      1.917713
     163A      1.927850   164A      1.929573   165A      1.945423
     166A      1.955351   167A      1.961174   168A      1.965572
     169A      1.974367   170A      1.989273   171A      1.991502
     172A      1.997317   173A      2.000610   174A      2.009031
     175A      2.031832   176A      2.045825   177A      2.055243
     178A      2.063884   179A      2.069673   180A      2.080057
     181A      2.125513   182A      2.130724   183A      2.147081
     184A      2.170081   185A      2.175155   186A      2.197321
     187A      2.223078   188A      2.262440   189A      2.272459
     190A      2.285457   191A      2.291240   192A      2.302101
     193A      2.330364   194A      2.344394   195A      2.362769
     196A      2.366111   197A      2.416276   198A      2.469916
     199A      2.473361   200A      2.478257   201A      2.504468
     202A      2.522835   203A      2.536741   204A      2.543476
     205A      2.576148   206A      2.603272   207A      2.620099
     208A      2.640800   209A      2.664522   210A      2.753628
     211A      2.757764   212A      2.768172   213A      2.779735
     214A      2.785344   215A      2.797941   216A      2.816987
     217A      2.825568   218A      2.850850   219A      2.897785
     220A      2.918878   221A      2.954420   222A      2.962049
     223A      2.966434   224A      3.004128   225A      3.076861
     226A      3.090466   227A      3.114973   228A      3.262941
     229A      3.282664   230A      3.351802   231A      3.590715
     232A      3.670009   233A      3.996517   234A      4.191559

    Final Occupation by Irrep:
              A
    DOCC [    42 ]

  @RHF Final Energy:  -462.89081383730309

   => Energetics <=

    Nuclear Repulsion Energy =            569.0833745167617508
    One-Electron Energy =               -1755.6218222944955869
    Two-Electron Energy =                 723.6476339404307510
    Total Energy =                       -462.8908138373030852

Computation Completed

Properties will be evaluated at   0.000000,   0.000000,   0.000000 [a0]

Properties computed using the SCF density matrix

  Nuclear Dipole Moment: [e a0]
     X:    12.3386      Y:    13.3639      Z:    -7.1671

  Electronic Dipole Moment: [e a0]
     X:   -12.4480      Y:   -13.3319      Z:     7.7707

  Dipole Moment: [e a0]
     X:    -0.1094      Y:     0.0320      Z:     0.6036     Total:     0.6143

  Dipole Moment: [D]
     X:    -0.2782      Y:     0.0814      Z:     1.5342     Total:     1.5614

*** tstop() called on ds3 at Tue Apr 28 10:01:31 2020
Module time:
	user time   =     136.01 seconds =       2.27 minutes
	system time =      57.07 seconds =       0.95 minutes
	total time  =        314 seconds =       5.23 minutes
Total time:
	user time   =     136.01 seconds =       2.27 minutes
	system time =      57.07 seconds =       0.95 minutes
	total time  =        314 seconds =       5.23 minutes
                                     G D M A

                                 by Anthony Stone

                           version 2.2.06, 22 June 2011

               Distributed Multipoles from Gaussian wavefunctions

Starting at 10:1:31 on 28 Apr 2020

Using SCF density matrix from file ./SSI/SSI-008ILE-062TYR-1-dimer.test.436.fchk

                         Distributed Multipole Analysis

Standard DMA

Positions and radii in angstrom
Multipole moments in atomic units, ea_0^k for rank k

C          x =  1.301297  y =  2.074963  z = -2.198355 angstrom
           Maximum rank =  0   Radius =  0.650 angstrom
                   Q00  =  -0.079037

C          x =  1.353297  y =  2.420963  z = -3.701355 angstrom
           Maximum rank =  0   Radius =  0.650 angstrom
                   Q00  =  -0.244939

C          x =  2.027297  y =  3.046963  z = -1.270355 angstrom
           Maximum rank =  0   Radius =  0.650 angstrom
                   Q00  =  -0.244097

H          x =  0.260297  y =  2.005963  z = -1.880355 angstrom
           Maximum rank =  0   Radius =  0.325 angstrom
                   Q00  =   0.053707

H          x =  1.731297  y =  1.092963  z = -2.028355 angstrom
           Maximum rank =  0   Radius =  0.325 angstrom
                   Q00  =   0.035122

H          x =  2.370297  y =  2.693963  z = -3.989355 angstrom
           Maximum rank =  0   Radius =  0.325 angstrom
                   Q00  =   0.078134

H          x =  1.519297  y =  4.010963  z = -1.249355 angstrom
           Maximum rank =  0   Radius =  0.325 angstrom
                   Q00  =   0.078501

H          x =  2.043297  y =  2.634963  z = -0.261355 angstrom
           Maximum rank =  0   Radius =  0.325 angstrom
                   Q00  =   0.084898

H          x =  3.053297  y =  3.184963  z = -1.609355 angstrom
           Maximum rank =  0   Radius =  0.325 angstrom
                   Q00  =   0.073966

H          x =  1.024637  y =  1.547625  z = -4.283815 angstrom
           Maximum rank =  0   Radius =  0.325 angstrom
                   Q00  =   0.086009

H          x =  0.679387  y =  3.272715  z = -3.875595 angstrom
           Maximum rank =  0   Radius =  0.325 angstrom
                   Q00  =   0.078533

C          x =  1.899297  y = -0.212037  z =  2.209645 angstrom
           Maximum rank =  0   Radius =  0.650 angstrom
                   Q00  =  -0.196872

C          x =  0.508297  y = -0.819037  z =  0.172645 angstrom
           Maximum rank =  0   Radius =  0.650 angstrom
                   Q00  =  -0.007340

C          x =  0.599297  y = -0.626037  z =  1.551645 angstrom
           Maximum rank =  0   Radius =  0.650 angstrom
                   Q00  =  -0.148547

C          x = -0.694703  y = -1.210037  z = -0.429355 angstrom
           Maximum rank =  0   Radius =  0.650 angstrom
                   Q00  =  -0.127484

C          x = -0.532703  y = -0.845037  z =  2.329645 angstrom
           Maximum rank =  0   Radius =  0.650 angstrom
                   Q00  =   0.035065

C          x = -1.811703  y = -1.423037  z =  0.376645 angstrom
           Maximum rank =  0   Radius =  0.650 angstrom
                   Q00  =   0.270267

C          x = -1.732703  y = -1.245037  z =  1.757645 angstrom
           Maximum rank =  0   Radius =  0.650 angstrom
                   Q00  =  -0.178306

O          x = -3.018703  y = -1.771037  z = -0.117355 angstrom
           Maximum rank =  0   Radius =  0.650 angstrom
                   Q00  =  -0.626622

H          x =  1.380297  y = -0.654037  z = -0.446355 angstrom
           Maximum rank =  0   Radius =  0.325 angstrom
                   Q00  =   0.065581

H          x = -0.775703  y = -1.331037  z = -1.497355 angstrom
           Maximum rank =  0   Radius =  0.325 angstrom
                   Q00  =   0.081609

H          x =  1.655297  y =  0.573963  z =  2.921645 angstrom
           Maximum rank =  0   Radius =  0.325 angstrom
                   Q00  =   0.094494

H          x =  2.564297  y =  0.225963  z =  1.463645 angstrom
           Maximum rank =  0   Radius =  0.325 angstrom
                   Q00  =   0.097201

H          x = -0.481703  y = -0.702037  z =  3.399645 angstrom
           Maximum rank =  0   Radius =  0.325 angstrom
                   Q00  =   0.065873

H          x = -2.589703  y = -1.429037  z =  2.375645 angstrom
           Maximum rank =  0   Radius =  0.325 angstrom
                   Q00  =   0.067394

H          x = -3.674703  y = -1.839037  z =  0.575645 angstrom
           Maximum rank =  0   Radius =  0.325 angstrom
                   Q00  =   0.406070

H          x =  2.417197  y = -1.024442  z =  2.740475 angstrom
           Maximum rank =  0   Radius =  0.325 angstrom
                   Q00  =   0.100821

Total multipoles referred to origin at
           x =   0.000000,  y =    0.000000,  z =    0.000000 angstrom
                   Q00  =  -0.000000

Finished at 10:1:31 on 28 Apr 2020

  DMA results are available in the Python driver through the
	  variable('DMA DISTRIBUTED MULTIPOLES')
  and
	  variable('DMA TOTAL MULTIPOLES')
  commands.

    Psi4 stopped on: Tuesday, 28 April 2020 10:01AM
    Psi4 wall time for execution: 0:05:14.07

*** Psi4 exiting successfully. Buy a developer a beer!
