                               Psi4 1.3.2 release

  ==> Input File <==

--------------------------------------------------------------------------
import numpy as np
set {scf_type pk
basis cc-pvdz
d_convergence 10
gdma_switch   0
gdma_limit    0
gdma_origin   [ 0.0,  0.0,  0.0 ]
}
molecule test {
    units Angstrom
    0 1
    --
    0 1
    C               -0.466165652102459     4.840672770557267    -1.705574164172831
    C                1.567834347897541     1.783672770557267    -0.964574164172831
    C                0.344834347897541     2.502672770557267    -0.870574164172831
    C                0.504834347897541     3.720672770557267    -1.616574164172831
    C                1.765834347897541     3.694672770557267    -2.124574164172831
    C                0.707834347897541     0.022672770557267     0.382425835827169
    C                1.761834347897541     0.552672770557267    -0.345574164172831
    C               -0.513165652102459     0.705672770557267     0.493425835827169
    C               -0.706165652102459     1.945672770557267    -0.125574164172831
    N                2.407834347897542     2.542672770557267    -1.736574164172831
    H                0.820834347897541    -0.941327229442733     0.856425835827169
    H                2.695834347897541     0.019672770557267    -0.447574164172831
    H               -1.321165652102459     0.229672770557267     1.026425835827169
    H               -1.652165652102459     2.461672770557267    -0.048574164172831
    H                3.356834347897542     2.303672770557267    -1.989574164172831
    H                2.205834347897541     4.491672770557268    -2.712574164172831
    H                0.125834347897541     5.749672770557268    -1.706574164172831
    H               -1.043165652102459     4.833672770557268    -0.779574164172831
    H               -1.150355652102459     4.865112770557268    -2.566554164172831
    C               -3.266165652102459    -2.752327229442733     2.209425835827169
    C               -0.479165652102459    -3.364327229442733    -0.314574164172831
    C               -1.733165652102459    -3.095327229442733     0.231425835827169
    C                0.616834347897541    -3.585327229442733     0.525425835827169
    C               -1.909165652102459    -3.046327229442733     1.619425835827168
    C                0.452834347897541    -3.538327229442733     1.914425835827169
    C               -0.809165652102459    -3.270327229442733     2.456425835827169
    H               -0.361165652102459    -3.408327229442733    -1.381574164172831
    H               -2.570165652102459    -2.918327229442733    -0.426574164172831
    H                1.591834347897541    -3.785327229442733     0.102425835827169
    H                1.298834347897541    -3.704327229442733     2.566425835827169
    H               -3.781165652102458    -2.035327229442733     1.570425835827169
    H               -3.131165652102459    -2.271327229442733     3.178425835827169
    H               -0.930165652102459    -3.245327229442733     3.527425835827169
    H               -3.895865652102458    -3.643797229442733     2.346405835827169

}
e, wfn = energy('scf', return_wfn=True)
gdma(wfn)
dmavals = variable('DMA DISTRIBUTED MULTIPOLES')
charges = np.array(dmavals)
print(charges)
np.save('SSI-071TRP-125PHE-1-dimer.npy', np.array(charges))--------------------------------------------------------------------------

*** tstart() called on ds3
*** at Tue Apr 28 16:08:43 2020

   => Loading Basis Set <=

    Name: CC-PVDZ
    Role: ORBITAL
    Keyword: BASIS
    atoms 1-9, 20-26   entry C          line   138 file /theoryfs2/ds/metcalf/miniconda2/envs/tf2gpu/share/psi4/basis/cc-pvdz.gbs
    atoms 10           entry N          line   168 file /theoryfs2/ds/metcalf/miniconda2/envs/tf2gpu/share/psi4/basis/cc-pvdz.gbs
    atoms 11-19, 27-34 entry H          line    22 file /theoryfs2/ds/metcalf/miniconda2/envs/tf2gpu/share/psi4/basis/cc-pvdz.gbs

         ---------------------------------------------------------
                                   SCF
               by Justin Turney, Rob Parrish, Andy Simmonett
                          and Daniel G. A. Smith
                              RHF Reference
                        1 Threads,    500 MiB Core
         ---------------------------------------------------------

  ==> Geometry <==

    Molecular point group: c1
    Full point group: C1

    Geometry (in Angstrom), charge = 0, multiplicity = 1:

       Center              X                  Y                   Z               Mass
    ------------   -----------------  -----------------  -----------------  -----------------
         C           -0.466165652102     4.840672770557    -1.705574164173    12.000000000000
         C            1.567834347898     1.783672770557    -0.964574164173    12.000000000000
         C            0.344834347898     2.502672770557    -0.870574164173    12.000000000000
         C            0.504834347898     3.720672770557    -1.616574164173    12.000000000000
         C            1.765834347898     3.694672770557    -2.124574164173    12.000000000000
         C            0.707834347898     0.022672770557     0.382425835827    12.000000000000
         C            1.761834347898     0.552672770557    -0.345574164173    12.000000000000
         C           -0.513165652102     0.705672770557     0.493425835827    12.000000000000
         C           -0.706165652102     1.945672770557    -0.125574164173    12.000000000000
         N            2.407834347898     2.542672770557    -1.736574164173    14.003074004430
         H            0.820834347898    -0.941327229443     0.856425835827     1.007825032230
         H            2.695834347898     0.019672770557    -0.447574164173     1.007825032230
         H           -1.321165652102     0.229672770557     1.026425835827     1.007825032230
         H           -1.652165652102     2.461672770557    -0.048574164173     1.007825032230
         H            3.356834347898     2.303672770557    -1.989574164173     1.007825032230
         H            2.205834347898     4.491672770557    -2.712574164173     1.007825032230
         H            0.125834347898     5.749672770557    -1.706574164173     1.007825032230
         H           -1.043165652102     4.833672770557    -0.779574164173     1.007825032230
         H           -1.150355652102     4.865112770557    -2.566554164173     1.007825032230
         C           -3.266165652102    -2.752327229443     2.209425835827    12.000000000000
         C           -0.479165652102    -3.364327229443    -0.314574164173    12.000000000000
         C           -1.733165652102    -3.095327229443     0.231425835827    12.000000000000
         C            0.616834347898    -3.585327229443     0.525425835827    12.000000000000
         C           -1.909165652102    -3.046327229443     1.619425835827    12.000000000000
         C            0.452834347898    -3.538327229443     1.914425835827    12.000000000000
         C           -0.809165652102    -3.270327229443     2.456425835827    12.000000000000
         H           -0.361165652102    -3.408327229443    -1.381574164173     1.007825032230
         H           -2.570165652102    -2.918327229443    -0.426574164173     1.007825032230
         H            1.591834347898    -3.785327229443     0.102425835827     1.007825032230
         H            1.298834347898    -3.704327229443     2.566425835827     1.007825032230
         H           -3.781165652102    -2.035327229443     1.570425835827     1.007825032230
         H           -3.131165652102    -2.271327229443     3.178425835827     1.007825032230
         H           -0.930165652102    -3.245327229443     3.527425835827     1.007825032230
         H           -3.895865652102    -3.643797229443     2.346405835827     1.007825032230

  Running in c1 symmetry.

  Rotational constants: A =      0.03481  B =      0.00662  C =      0.00595 [cm^-1]
  Rotational constants: A =   1043.54623  B =    198.54031  C =    178.43718 [MHz]
  Nuclear repulsion = 1057.700044759578077

  Charge       = 0
  Multiplicity = 1
  Electrons    = 120
  Nalpha       = 60
  Nbeta        = 60

  ==> Algorithm <==

  SCF Algorithm Type is PK.
  DIIS enabled.
  MOM disabled.
  Fractional occupation disabled.
  Guess Type is SAD.
  Energy threshold   = 1.00e-06
  Density threshold  = 1.00e-10
  Integral threshold = 0.00e+00

  ==> Primary Basis <==

  Basis Set: CC-PVDZ
    Blend: CC-PVDZ
    Number of shells: 153
    Number of basis function: 323
    Number of Cartesian functions: 340
    Spherical Harmonics?: true
    Max angular momentum: 2

  ==> Pre-Iterations <==

   -------------------------------------------------------
    Irrep   Nso     Nmo     Nalpha   Nbeta   Ndocc  Nsocc
   -------------------------------------------------------
     A        323     323       0       0       0       0
   -------------------------------------------------------
    Total     323     323      60      60      60       0
   -------------------------------------------------------

  ==> Integral Setup <==

  Using integral reordering PK algorithm.
  Sizing the integral batches needed.
  Building batch lookup table.
   Calculation information:
      Number of atoms:                  34
      Number of AO shells:             153
      Number of primitives:            459
      Number of atomic orbitals:       340
      Number of basis functions:       323

      Integral cutoff                 1.00e-12
      Number of threads:                 1

	Batch   1 pq = [       0,    9405] index = [             0,44231715] size =     44231715
	Batch   2 pq = [    9405,   13301] index = [      44231715,88464951] size =     44233236
	Batch   3 pq = [   13301,   16290] index = [      88464951,132690195] size =     44225244
	Batch   4 pq = [   16290,   18810] index = [     132690195,176917455] size =     44227260
	Batch   5 pq = [   18810,   21030] index = [     176917455,221140965] size =     44223510
	Batch   6 pq = [   21030,   23037] index = [     221140965,265363203] size =     44222238
	Batch   7 pq = [   23037,   24883] index = [     265363203,309594286] size =     44231083
	Batch   8 pq = [   24883,   26601] index = [     309594286,353819901] size =     44225615
	Batch   9 pq = [   26601,   28214] index = [     353819901,398029005] size =     44209104
	Batch  10 pq = [   28214,   29740] index = [     398029005,442248670] size =     44219665
	Batch  11 pq = [   29740,   31191] index = [     442248670,486454836] size =     44206166
	Batch  12 pq = [   31191,   32578] index = [     486454836,530679331] size =     44224495
	Batch  13 pq = [   32578,   33908] index = [     530679331,574893186] size =     44213855
	Batch  14 pq = [   33908,   35188] index = [     574893186,619115266] size =     44222080
	Batch  15 pq = [   35188,   36423] index = [     619115266,663335676] size =     44220410
	Batch  16 pq = [   36423,   37617] index = [     663335676,707538153] size =     44202477
	Batch  17 pq = [   37617,   38775] index = [     707538153,751769700] size =     44231547
	Batch  18 pq = [   38775,   39899] index = [     751769700,795985050] size =     44215350
	Batch  19 pq = [   39899,   40992] index = [     795985050,840192528] size =     44207478
	Batch  20 pq = [   40992,   42057] index = [     840192528,884416653] size =     44224125
	Batch  21 pq = [   42057,   43095] index = [     884416653,928611060] size =     44194407
	Batch  22 pq = [   43095,   44109] index = [     928611060,972823995] size =     44212935
	Batch  23 pq = [   44109,   45100] index = [     972823995,1017027550] size =     44203555
	Batch  24 pq = [   45100,   46070] index = [    1017027550,1061245485] size =     44217935
	Batch  25 pq = [   46070,   47020] index = [    1061245485,1105463710] size =     44218225
	Batch  26 pq = [   47020,   47951] index = [    1105463710,1149673176] size =     44209466
	Batch  27 pq = [   47951,   48864] index = [    1149673176,1193869680] size =     44196504
	Batch  28 pq = [   48864,   49761] index = [    1193869680,1238103441] size =     44233761
	Batch  29 pq = [   49761,   50642] index = [    1238103441,1282331403] size =     44227962
	Batch  30 pq = [   50642,   51508] index = [    1282331403,1326562786] size =     44231383
	Batch  31 pq = [   51508,   52326] index = [    1326562786,1369031301] size =     42468515
  Task number: 124
  Buffer size: 11059200
  Buffer per thread: 2
  We computed 66570211 shell quartets total.
  Whereas there are 69401871 unique shell quartets.

  ==> DiskJK: Disk-Based J/K Matrices <==

    J tasked:                  Yes
    K tasked:                  Yes
    wK tasked:                  No
    Memory [MiB]:              375
    Schwarz Cutoff:          1E-12

    OpenMP threads:              1

  Minimum eigenvalue in the overlap matrix is 2.3602533881E-04.
  Using Symmetric Orthogonalization.

  SCF Guess: Superposition of Atomic Densities via on-the-fly atomic UHF.

  ==> Iterations <==

                        Total Energy        Delta E     RMS |[F,P]|

   @RHF iter SAD:  -669.50415031556645   -6.69504e+02   0.00000e+00
   @RHF iter   1:  -669.94801965578199   -4.43869e-01   2.14470e-03 DIIS
   @RHF iter   2:  -670.23774356314539   -2.89724e-01   9.29911e-04 DIIS
   @RHF iter   3:  -670.28570768148768   -4.79641e-02   2.54436e-04 DIIS
   @RHF iter   4:  -670.29034537467010   -4.63769e-03   1.12023e-04 DIIS
   @RHF iter   5:  -670.29107872324573   -7.33349e-04   1.68398e-05 DIIS
   @RHF iter   6:  -670.29111160911089   -3.28859e-05   7.77199e-06 DIIS
   @RHF iter   7:  -670.29111898874044   -7.37963e-06   3.07310e-06 DIIS
   @RHF iter   8:  -670.29112099528231   -2.00654e-06   1.30673e-06 DIIS
   @RHF iter   9:  -670.29112142167298   -4.26391e-07   6.00341e-07 DIIS
   @RHF iter  10:  -670.29112151763900   -9.59660e-08   2.65556e-07 DIIS
   @RHF iter  11:  -670.29112153909693   -2.14579e-08   1.02358e-07 DIIS
   @RHF iter  12:  -670.29112154193308   -2.83615e-09   4.02793e-08 DIIS
   @RHF iter  13:  -670.29112154220297   -2.69893e-10   1.22913e-08 DIIS
   @RHF iter  14:  -670.29112154223662   -3.36513e-11   4.24741e-09 DIIS
   @RHF iter  15:  -670.29112154223697   -3.41061e-13   1.77522e-09 DIIS
   @RHF iter  16:  -670.29112154224276   -5.79803e-12   8.16530e-10 DIIS
   @RHF iter  17:  -670.29112154223776    5.00222e-12   4.17598e-10 DIIS
   @RHF iter  18:  -670.29112154223628    1.47793e-12   1.53410e-10 DIIS
   @RHF iter  19:  -670.29112154223935   -3.06954e-12   6.42456e-11 DIIS
  Energy and wave function converged.

  ==> Post-Iterations <==

    Orbital Energies [Eh]
    ---------------------

    Doubly Occupied:

       1A    -15.596181     2A    -11.258247     3A    -11.257918
       4A    -11.242924     5A    -11.237876     6A    -11.235374
       7A    -11.232947     8A    -11.232682     9A    -11.231106
      10A    -11.229434    11A    -11.225434    12A    -11.222439
      13A    -11.221173    14A    -11.218007    15A    -11.214355
      16A    -11.213117    17A    -11.211567    18A     -1.289954
      19A     -1.149472    20A     -1.119036    21A     -1.069958
      22A     -1.042215    23A     -1.010603    24A     -0.989444
      25A     -0.980795    26A     -0.930146    27A     -0.927534
      28A     -0.832981    29A     -0.823818    30A     -0.796498
      31A     -0.795135    32A     -0.746386    33A     -0.714086
      34A     -0.689776    35A     -0.657099    36A     -0.635347
      37A     -0.631800    38A     -0.628741    39A     -0.597419
      40A     -0.587536    41A     -0.583047    42A     -0.582864
      43A     -0.576430    44A     -0.562615    45A     -0.561302
      46A     -0.549517    47A     -0.533971    48A     -0.533207
      49A     -0.520832    50A     -0.487524    51A     -0.484777
      52A     -0.482731    53A     -0.481711    54A     -0.463370
      55A     -0.452789    56A     -0.366637    57A     -0.331971
      58A     -0.320803    59A     -0.287182    60A     -0.268342

    Virtual:

      61A      0.130639    62A      0.134125    63A      0.138007
      64A      0.175966    65A      0.177899    66A      0.185587
      67A      0.194357    68A      0.196622    69A      0.217394
      70A      0.220513    71A      0.225040    72A      0.237607
      73A      0.245179    74A      0.252585    75A      0.256649
      76A      0.265178    77A      0.271512    78A      0.288680
      79A      0.290897    80A      0.297151    81A      0.305525
      82A      0.320621    83A      0.363627    84A      0.375568
      85A      0.378117    86A      0.388871    87A      0.410333
      88A      0.430131    89A      0.448485    90A      0.451198
      91A      0.462043    92A      0.473149    93A      0.482964
      94A      0.486779    95A      0.488994    96A      0.505962
      97A      0.516456    98A      0.561450    99A      0.591772
     100A      0.606397   101A      0.612710   102A      0.637332
     103A      0.644481   104A      0.656135   105A      0.659524
     106A      0.675612   107A      0.681330   108A      0.690199
     109A      0.697749   110A      0.701555   111A      0.717556
     112A      0.720412   113A      0.728747   114A      0.733540
     115A      0.737256   116A      0.739710   117A      0.743616
     118A      0.745144   119A      0.747594   120A      0.759481
     121A      0.761786   122A      0.765238   123A      0.775285
     124A      0.778963   125A      0.787075   126A      0.797609
     127A      0.809521   128A      0.819577   129A      0.840348
     130A      0.843655   131A      0.848292   132A      0.861858
     133A      0.866280   134A      0.874405   135A      0.876605
     136A      0.879485   137A      0.884938   138A      0.890737
     139A      0.897376   140A      0.900003   141A      0.915354
     142A      0.923833   143A      0.924980   144A      0.929242
     145A      0.933527   146A      0.943038   147A      0.951408
     148A      0.958541   149A      0.967708   150A      0.983845
     151A      0.991094   152A      0.998428   153A      1.014409
     154A      1.019927   155A      1.041787   156A      1.058017
     157A      1.061392   158A      1.078622   159A      1.104685
     160A      1.120075   161A      1.130973   162A      1.137409
     163A      1.144054   164A      1.152434   165A      1.154834
     166A      1.176732   167A      1.189714   168A      1.201743
     169A      1.205722   170A      1.224807   171A      1.232465
     172A      1.236132   173A      1.239933   174A      1.243561
     175A      1.251525   176A      1.255888   177A      1.274099
     178A      1.275964   179A      1.285431   180A      1.293617
     181A      1.296953   182A      1.310101   183A      1.311792
     184A      1.316896   185A      1.332050   186A      1.341068
     187A      1.365818   188A      1.372132   189A      1.384064
     190A      1.419460   191A      1.443483   192A      1.460895
     193A      1.505472   194A      1.516586   195A      1.521058
     196A      1.545278   197A      1.555038   198A      1.580300
     199A      1.598515   200A      1.604662   201A      1.633517
     202A      1.644423   203A      1.668858   204A      1.682025
     205A      1.695691   206A      1.701746   207A      1.707679
     208A      1.728941   209A      1.740445   210A      1.746548
     211A      1.764299   212A      1.766104   213A      1.775467
     214A      1.787307   215A      1.801979   216A      1.815697
     217A      1.821796   218A      1.830731   219A      1.839311
     220A      1.864081   221A      1.878064   222A      1.888794
     223A      1.896383   224A      1.902819   225A      1.907684
     226A      1.912295   227A      1.913188   228A      1.918593
     229A      1.927151   230A      1.931519   231A      1.937589
     232A      1.942845   233A      1.952768   234A      1.954988
     235A      1.959692   236A      1.976120   237A      1.986204
     238A      1.991671   239A      1.997709   240A      2.006586
     241A      2.021168   242A      2.025178   243A      2.042536
     244A      2.053856   245A      2.071736   246A      2.073287
     247A      2.083077   248A      2.090103   249A      2.094371
     250A      2.107761   251A      2.114674   252A      2.116945
     253A      2.132275   254A      2.145558   255A      2.151605
     256A      2.153824   257A      2.160728   258A      2.172257
     259A      2.173786   260A      2.180335   261A      2.199580
     262A      2.201480   263A      2.238885   264A      2.255679
     265A      2.272495   266A      2.278936   267A      2.290470
     268A      2.293526   269A      2.300559   270A      2.309818
     271A      2.313468   272A      2.319017   273A      2.340588
     274A      2.352673   275A      2.389112   276A      2.413214
     277A      2.414733   278A      2.467560   279A      2.470077
     280A      2.476867   281A      2.477379   282A      2.487750
     283A      2.537055   284A      2.544494   285A      2.598468
     286A      2.610517   287A      2.618139   288A      2.628473
     289A      2.668291   290A      2.683948   291A      2.718709
     292A      2.745668   293A      2.754656   294A      2.770188
     295A      2.775449   296A      2.782507   297A      2.792452
     298A      2.805906   299A      2.809025   300A      2.827062
     301A      2.845013   302A      2.852762   303A      2.863950
     304A      2.872279   305A      2.896955   306A      2.922939
     307A      2.976195   308A      2.983818   309A      3.005941
     310A      3.020464   311A      3.049319   312A      3.054020
     313A      3.078531   314A      3.126144   315A      3.147460
     316A      3.191881   317A      3.207996   318A      3.290174
     319A      3.308639   320A      3.387256   321A      3.748201
     322A      3.951061   323A      3.954412

    Final Occupation by Irrep:
              A
    DOCC [    60 ]

  @RHF Final Energy:  -670.29112154223935

   => Energetics <=

    Nuclear Repulsion Energy =           1057.7000447595780770
    One-Electron Energy =               -3007.2659687255031713
    Two-Electron Energy =                1279.2748024236857418
    Total Energy =                       -670.2911215422393525

Computation Completed

Properties will be evaluated at   0.000000,   0.000000,   0.000000 [a0]

Properties computed using the SCF density matrix

  Nuclear Dipole Moment: [e a0]
     X:    -7.2637      Y:    -0.9435      Z:     2.9255

  Electronic Dipole Moment: [e a0]
     X:     7.7621      Y:     1.0107      Z:    -3.2144

  Dipole Moment: [e a0]
     X:     0.4984      Y:     0.0672      Z:    -0.2889     Total:     0.5800

  Dipole Moment: [D]
     X:     1.2669      Y:     0.1707      Z:    -0.7344     Total:     1.4743

*** tstop() called on ds3 at Tue Apr 28 16:36:08 2020
Module time:
	user time   =     630.25 seconds =      10.50 minutes
	system time =     210.75 seconds =       3.51 minutes
	total time  =       1645 seconds =      27.42 minutes
Total time:
	user time   =     630.25 seconds =      10.50 minutes
	system time =     210.75 seconds =       3.51 minutes
	total time  =       1645 seconds =      27.42 minutes
                                     G D M A

                                 by Anthony Stone

                           version 2.2.06, 22 June 2011

               Distributed Multipoles from Gaussian wavefunctions

Starting at 16:36:8 on 28 Apr 2020

Using SCF density matrix from file ./SSI/SSI-071TRP-125PHE-1-dimer.test.1405.fchk

                         Distributed Multipole Analysis

Standard DMA

Positions and radii in angstrom
Multipole moments in atomic units, ea_0^k for rank k

C          x = -0.466166  y =  4.840673  z = -1.705574 angstrom
           Maximum rank =  0   Radius =  0.650 angstrom
                   Q00  =  -0.211063

C          x =  1.567834  y =  1.783673  z = -0.964574 angstrom
           Maximum rank =  0   Radius =  0.650 angstrom
                   Q00  =   0.292910

C          x =  0.344834  y =  2.502673  z = -0.870574 angstrom
           Maximum rank =  0   Radius =  0.650 angstrom
                   Q00  =  -0.054694

C          x =  0.504834  y =  3.720673  z = -1.616574 angstrom
           Maximum rank =  0   Radius =  0.650 angstrom
                   Q00  =  -0.117229

C          x =  1.765834  y =  3.694673  z = -2.124574 angstrom
           Maximum rank =  0   Radius =  0.650 angstrom
                   Q00  =   0.068360

C          x =  0.707834  y =  0.022673  z =  0.382426 angstrom
           Maximum rank =  0   Radius =  0.650 angstrom
                   Q00  =  -0.056325

C          x =  1.761834  y =  0.552673  z = -0.345574 angstrom
           Maximum rank =  0   Radius =  0.650 angstrom
                   Q00  =  -0.124848

C          x = -0.513166  y =  0.705673  z =  0.493426 angstrom
           Maximum rank =  0   Radius =  0.650 angstrom
                   Q00  =  -0.084434

C          x = -0.706166  y =  1.945673  z = -0.125574 angstrom
           Maximum rank =  0   Radius =  0.650 angstrom
                   Q00  =  -0.103709

N          x =  2.407834  y =  2.542673  z = -1.736574 angstrom
           Maximum rank =  0   Radius =  0.650 angstrom
                   Q00  =  -0.493050

H          x =  0.820834  y = -0.941327  z =  0.856426 angstrom
           Maximum rank =  0   Radius =  0.325 angstrom
                   Q00  =   0.080101

H          x =  2.695834  y =  0.019673  z = -0.447574 angstrom
           Maximum rank =  0   Radius =  0.325 angstrom
                   Q00  =   0.065185

H          x = -1.321166  y =  0.229673  z =  1.026426 angstrom
           Maximum rank =  0   Radius =  0.325 angstrom
                   Q00  =   0.057748

H          x = -1.652166  y =  2.461673  z = -0.048574 angstrom
           Maximum rank =  0   Radius =  0.325 angstrom
                   Q00  =   0.066791

H          x =  3.356834  y =  2.303673  z = -1.989574 angstrom
           Maximum rank =  0   Radius =  0.325 angstrom
                   Q00  =   0.213354

H          x =  2.205834  y =  4.491673  z = -2.712574 angstrom
           Maximum rank =  0   Radius =  0.325 angstrom
                   Q00  =   0.098622

H          x =  0.125834  y =  5.749673  z = -1.706574 angstrom
           Maximum rank =  0   Radius =  0.325 angstrom
                   Q00  =   0.098745

H          x = -1.043166  y =  4.833673  z = -0.779574 angstrom
           Maximum rank =  0   Radius =  0.325 angstrom
                   Q00  =   0.101669

H          x = -1.150356  y =  4.865113  z = -2.566554 angstrom
           Maximum rank =  0   Radius =  0.325 angstrom
                   Q00  =   0.098805

C          x = -3.266166  y = -2.752327  z =  2.209426 angstrom
           Maximum rank =  0   Radius =  0.650 angstrom
                   Q00  =  -0.198961

C          x = -0.479166  y = -3.364327  z = -0.314574 angstrom
           Maximum rank =  0   Radius =  0.650 angstrom
                   Q00  =  -0.064257

C          x = -1.733166  y = -3.095327  z =  0.231426 angstrom
           Maximum rank =  0   Radius =  0.650 angstrom
                   Q00  =  -0.018395

C          x =  0.616834  y = -3.585327  z =  0.525426 angstrom
           Maximum rank =  0   Radius =  0.650 angstrom
                   Q00  =  -0.096051

C          x = -1.909166  y = -3.046327  z =  1.619426 angstrom
           Maximum rank =  0   Radius =  0.650 angstrom
                   Q00  =  -0.105692

C          x =  0.452834  y = -3.538327  z =  1.914426 angstrom
           Maximum rank =  0   Radius =  0.650 angstrom
                   Q00  =  -0.078535

C          x = -0.809166  y = -3.270327  z =  2.456426 angstrom
           Maximum rank =  0   Radius =  0.650 angstrom
                   Q00  =  -0.054667

H          x = -0.361166  y = -3.408327  z = -1.381574 angstrom
           Maximum rank =  0   Radius =  0.325 angstrom
                   Q00  =   0.069057

H          x = -2.570166  y = -2.918327  z = -0.426574 angstrom
           Maximum rank =  0   Radius =  0.325 angstrom
                   Q00  =   0.059864

H          x =  1.591834  y = -3.785327  z =  0.102426 angstrom
           Maximum rank =  0   Radius =  0.325 angstrom
                   Q00  =   0.061541

H          x =  1.298834  y = -3.704327  z =  2.566426 angstrom
           Maximum rank =  0   Radius =  0.325 angstrom
                   Q00  =   0.066870

H          x = -3.781166  y = -2.035327  z =  1.570426 angstrom
           Maximum rank =  0   Radius =  0.325 angstrom
                   Q00  =   0.098690

H          x = -3.131166  y = -2.271327  z =  3.178426 angstrom
           Maximum rank =  0   Radius =  0.325 angstrom
                   Q00  =   0.097479

H          x = -0.930166  y = -3.245327  z =  3.527426 angstrom
           Maximum rank =  0   Radius =  0.325 angstrom
                   Q00  =   0.059706

H          x = -3.895866  y = -3.643797  z =  2.346406 angstrom
           Maximum rank =  0   Radius =  0.325 angstrom
                   Q00  =   0.106413

Total multipoles referred to origin at
           x =   0.000000,  y =    0.000000,  z =    0.000000 angstrom
                   Q00  =  -0.000000

Finished at 16:36:8 on 28 Apr 2020

  DMA results are available in the Python driver through the
	  variable('DMA DISTRIBUTED MULTIPOLES')
  and
	  variable('DMA TOTAL MULTIPOLES')
  commands.

    Psi4 stopped on: Tuesday, 28 April 2020 04:36PM
    Psi4 wall time for execution: 0:27:25.15

*** Psi4 exiting successfully. Buy a developer a beer!
