                               Psi4 1.3.2 release

  ==> Input File <==

--------------------------------------------------------------------------
import numpy as np
set {scf_type pk
basis cc-pvdz
d_convergence 10
gdma_switch   0
gdma_limit    0
gdma_origin   [ 0.0,  0.0,  0.0 ]
}
molecule test {
    units Angstrom
    0 1
    --
    0 1
    C                3.143410297199084    -0.207881902003610     1.423923312354144
    C               -0.182589702800916     0.778118097996390     0.276923312354144
    C                1.928410297199084     0.243118097996390     0.645923312354144
    C                1.792410297199084     0.548118097996390    -0.671076687645856
    N                0.675410297199084     0.399118097996390     1.220923312354144
    N                0.471410297199084     0.889118097996390    -0.876076687645856
    H               -1.228589702800916     1.016118097996390     0.431923312354144
    H                0.057410297199084     1.186118097996390    -1.754076687645856
    H                2.577410297199083     0.518118097996390    -1.417076687645856
    H                3.105410297199083    -1.290881902003610     1.530923312354144
    H                3.043410297199083     0.220118097996390     2.421923312354144
    H                4.121600297199083     0.091958097996390     1.019893312354144
    C               -3.021589702800916    -0.729881902003610    -1.074076687645856
    C               -4.167589702800917    -1.674881902003610    -0.731076687645856
    H               -2.202589702800916    -0.884881902003610    -0.373076687645856
    H               -2.664589702800917    -0.936881902003610    -2.085076687645856
    H               -3.362589702800917     0.305118097996390    -1.027076687645856
    H               -4.942589702800917    -1.573881902003610    -1.494076687645856
    H               -4.598129702800915    -1.417451902003610     0.247883312354144
    H               -3.797319702800917    -2.710481902003610    -0.752046687645856

}
e, wfn = energy('scf', return_wfn=True)
gdma(wfn)
dmavals = variable('DMA DISTRIBUTED MULTIPOLES')
charges = np.array(dmavals)
print(charges)
np.save('SSI-093HIE-120ALA-1-dimer.npy', np.array(charges))--------------------------------------------------------------------------

*** tstart() called on ds3
*** at Tue Apr 28 20:35:08 2020

   => Loading Basis Set <=

    Name: CC-PVDZ
    Role: ORBITAL
    Keyword: BASIS
    atoms 1-4, 13-14  entry C          line   138 file /theoryfs2/ds/metcalf/miniconda2/envs/tf2gpu/share/psi4/basis/cc-pvdz.gbs
    atoms 5-6         entry N          line   168 file /theoryfs2/ds/metcalf/miniconda2/envs/tf2gpu/share/psi4/basis/cc-pvdz.gbs
    atoms 7-12, 15-20 entry H          line    22 file /theoryfs2/ds/metcalf/miniconda2/envs/tf2gpu/share/psi4/basis/cc-pvdz.gbs

         ---------------------------------------------------------
                                   SCF
               by Justin Turney, Rob Parrish, Andy Simmonett
                          and Daniel G. A. Smith
                              RHF Reference
                        1 Threads,    500 MiB Core
         ---------------------------------------------------------

  ==> Geometry <==

    Molecular point group: c1
    Full point group: C1

    Geometry (in Angstrom), charge = 0, multiplicity = 1:

       Center              X                  Y                   Z               Mass
    ------------   -----------------  -----------------  -----------------  -----------------
         C            3.143410297199    -0.207881902004     1.423923312354    12.000000000000
         C           -0.182589702801     0.778118097996     0.276923312354    12.000000000000
         C            1.928410297199     0.243118097996     0.645923312354    12.000000000000
         C            1.792410297199     0.548118097996    -0.671076687646    12.000000000000
         N            0.675410297199     0.399118097996     1.220923312354    14.003074004430
         N            0.471410297199     0.889118097996    -0.876076687646    14.003074004430
         H           -1.228589702801     1.016118097996     0.431923312354     1.007825032230
         H            0.057410297199     1.186118097996    -1.754076687646     1.007825032230
         H            2.577410297199     0.518118097996    -1.417076687646     1.007825032230
         H            3.105410297199    -1.290881902004     1.530923312354     1.007825032230
         H            3.043410297199     0.220118097996     2.421923312354     1.007825032230
         H            4.121600297199     0.091958097996     1.019893312354     1.007825032230
         C           -3.021589702801    -0.729881902004    -1.074076687646    12.000000000000
         C           -4.167589702801    -1.674881902004    -0.731076687646    12.000000000000
         H           -2.202589702801    -0.884881902004    -0.373076687646     1.007825032230
         H           -2.664589702801    -0.936881902004    -2.085076687646     1.007825032230
         H           -3.362589702801     0.305118097996    -1.027076687646     1.007825032230
         H           -4.942589702801    -1.573881902004    -1.494076687646     1.007825032230
         H           -4.598129702801    -1.417451902004     0.247883312354     1.007825032230
         H           -3.797319702801    -2.710481902004    -0.752046687646     1.007825032230

  Running in c1 symmetry.

  Rotational constants: A =      0.15014  B =      0.02183  C =      0.02056 [cm^-1]
  Rotational constants: A =   4500.93568  B =    654.51724  C =    616.35351 [MHz]
  Nuclear repulsion =  347.056312930955698

  Charge       = 0
  Multiplicity = 1
  Electrons    = 62
  Nalpha       = 31
  Nbeta        = 31

  ==> Algorithm <==

  SCF Algorithm Type is PK.
  DIIS enabled.
  MOM disabled.
  Fractional occupation disabled.
  Guess Type is SAD.
  Energy threshold   = 1.00e-06
  Density threshold  = 1.00e-10
  Integral threshold = 0.00e+00

  ==> Primary Basis <==

  Basis Set: CC-PVDZ
    Blend: CC-PVDZ
    Number of shells: 84
    Number of basis function: 172
    Number of Cartesian functions: 180
    Spherical Harmonics?: true
    Max angular momentum: 2

  ==> Pre-Iterations <==

   -------------------------------------------------------
    Irrep   Nso     Nmo     Nalpha   Nbeta   Ndocc  Nsocc
   -------------------------------------------------------
     A        172     172       0       0       0       0
   -------------------------------------------------------
    Total     172     172      31      31      31       0
   -------------------------------------------------------

  ==> Integral Setup <==

  Using integral reordering PK algorithm.
  Sizing the integral batches needed.
  Building batch lookup table.
   Calculation information:
      Number of atoms:                  20
      Number of AO shells:              84
      Number of primitives:            236
      Number of atomic orbitals:       180
      Number of basis functions:       172

      Integral cutoff                 1.00e-12
      Number of threads:                 1

	Batch   1 pq = [       0,    9405] index = [             0,44231715] size =     44231715
	Batch   2 pq = [    9405,   13301] index = [      44231715,88464951] size =     44233236
	Batch   3 pq = [   13301,   14878] index = [      88464951,110684881] size =     22219930
  Task number: 11
  Buffer size: 11059200
  Buffer per thread: 2
  We computed 4733651 shell quartets total.
  Whereas there are 6374235 unique shell quartets.

  ==> DiskJK: Disk-Based J/K Matrices <==

    J tasked:                  Yes
    K tasked:                  Yes
    wK tasked:                  No
    Memory [MiB]:              375
    Schwarz Cutoff:          1E-12

    OpenMP threads:              1

  Minimum eigenvalue in the overlap matrix is 1.2200159911E-03.
  Using Symmetric Orthogonalization.

  SCF Guess: Superposition of Atomic Densities via on-the-fly atomic UHF.

  ==> Iterations <==

                        Total Energy        Delta E     RMS |[F,P]|

   @RHF iter SAD:  -342.17117948160427   -3.42171e+02   0.00000e+00
   @RHF iter   1:  -342.88720678285785   -7.16027e-01   3.34841e-03 DIIS
   @RHF iter   2:  -343.05826880988627   -1.71062e-01   1.69145e-03 DIIS
   @RHF iter   3:  -343.09835089248242   -4.00821e-02   4.33693e-04 DIIS
   @RHF iter   4:  -343.10182405887952   -3.47317e-03   1.81349e-04 DIIS
   @RHF iter   5:  -343.10238419825680   -5.60139e-04   2.67966e-05 DIIS
   @RHF iter   6:  -343.10240571305690   -2.15148e-05   1.17539e-05 DIIS
   @RHF iter   7:  -343.10240930718550   -3.59413e-06   4.07171e-06 DIIS
   @RHF iter   8:  -343.10241009173444   -7.84549e-07   1.63246e-06 DIIS
   @RHF iter   9:  -343.10241025413603   -1.62402e-07   5.67729e-07 DIIS
   @RHF iter  10:  -343.10241026926099   -1.51250e-08   1.78784e-07 DIIS
   @RHF iter  11:  -343.10241027099647   -1.73549e-09   7.86903e-08 DIIS
   @RHF iter  12:  -343.10241027124039   -2.43915e-10   3.19164e-08 DIIS
   @RHF iter  13:  -343.10241027128490   -4.45084e-11   9.14219e-09 DIIS
   @RHF iter  14:  -343.10241027129081   -5.91172e-12   3.37532e-09 DIIS
   @RHF iter  15:  -343.10241027129041    3.97904e-13   1.36920e-09 DIIS
   @RHF iter  16:  -343.10241027129280   -2.38742e-12   4.30211e-10 DIIS
   @RHF iter  17:  -343.10241027129319   -3.97904e-13   1.21902e-10 DIIS
   @RHF iter  18:  -343.10241027129388   -6.82121e-13   4.72500e-11 DIIS
  Energy and wave function converged.

  ==> Post-Iterations <==

    Orbital Energies [Eh]
    ---------------------

    Doubly Occupied:

       1A    -15.618814     2A    -15.527768     3A    -11.291106
       4A    -11.248548     5A    -11.242285     6A    -11.224086
       7A    -11.223259     8A    -11.222653     9A     -1.337094
      10A     -1.149061    11A     -1.027439    12A     -1.024592
      13A     -0.939244    14A     -0.841463    15A     -0.814178
      16A     -0.758718    17A     -0.739491    18A     -0.611231
      19A     -0.606297    20A     -0.602344    21A     -0.598793
      22A     -0.592461    23A     -0.550593    24A     -0.536792
      25A     -0.521451    26A     -0.504043    27A     -0.493000
      28A     -0.488429    29A     -0.408060    30A     -0.375438
      31A     -0.307625

    Virtual:

      32A      0.164860    33A      0.182708    34A      0.189574
      35A      0.201953    36A      0.221121    37A      0.229085
      38A      0.237641    39A      0.252878    40A      0.260424
      41A      0.273360    42A      0.278337    43A      0.288210
      44A      0.289840    45A      0.309029    46A      0.365115
      47A      0.378403    48A      0.411883    49A      0.424709
      50A      0.481363    51A      0.487845    52A      0.589188
      53A      0.597657    54A      0.604069    55A      0.608225
      56A      0.634205    57A      0.640553    58A      0.658404
      59A      0.672116    60A      0.693232    61A      0.709539
      62A      0.743364    63A      0.761725    64A      0.775869
      65A      0.807366    66A      0.825923    67A      0.834251
      68A      0.854587    69A      0.882295    70A      0.883962
      71A      0.885789    72A      0.887799    73A      0.892509
      74A      0.895845    75A      0.902274    76A      0.910844
      77A      0.924959    78A      0.962970    79A      0.972588
      80A      0.977266    81A      1.001697    82A      1.033850
      83A      1.056155    84A      1.085978    85A      1.109093
      86A      1.123868    87A      1.129909    88A      1.145496
      89A      1.162440    90A      1.193974    91A      1.235350
      92A      1.251537    93A      1.271918    94A      1.308108
      95A      1.328263    96A      1.341386    97A      1.425800
      98A      1.443466    99A      1.468050   100A      1.479689
     101A      1.495783   102A      1.518267   103A      1.563984
     104A      1.578353   105A      1.621982   106A      1.645057
     107A      1.673066   108A      1.686034   109A      1.697248
     110A      1.706564   111A      1.788280   112A      1.810691
     113A      1.821964   114A      1.842439   115A      1.855156
     116A      1.865200   117A      1.900785   118A      1.910583
     119A      1.922699   120A      1.931247   121A      1.937140
     122A      1.942408   123A      1.946625   124A      1.954062
     125A      1.959433   126A      1.982795   127A      1.988199
     128A      2.018816   129A      2.041170   130A      2.063146
     131A      2.097574   132A      2.109348   133A      2.118885
     134A      2.146185   135A      2.181826   136A      2.212503
     137A      2.234365   138A      2.293736   139A      2.298806
     140A      2.312675   141A      2.361626   142A      2.381404
     143A      2.428429   144A      2.444610   145A      2.452749
     146A      2.475849   147A      2.487184   148A      2.536726
     149A      2.557912   150A      2.572602   151A      2.612131
     152A      2.696405   153A      2.723912   154A      2.749288
     155A      2.758189   156A      2.780441   157A      2.784405
     158A      2.794030   159A      2.822167   160A      2.837929
     161A      2.840964   162A      2.854511   163A      2.884970
     164A      2.926489   165A      2.936424   166A      2.968309
     167A      2.975202   168A      3.065274   169A      3.159998
     170A      3.236709   171A      3.462015   172A      3.795819

    Final Occupation by Irrep:
              A
    DOCC [    31 ]

  @RHF Final Energy:  -343.10241027129388

   => Energetics <=

    Nuclear Repulsion Energy =            347.0563129309556984
    One-Electron Energy =               -1151.4647343637952872
    Two-Electron Energy =                 461.3060111615456549
    Total Energy =                       -343.1024102712938770

Computation Completed

Properties will be evaluated at   0.000000,   0.000000,   0.000000 [a0]

Properties computed using the SCF density matrix

  Nuclear Dipole Moment: [e a0]
     X:    -9.2760      Y:    -5.1382      Z:    -3.0477

  Electronic Dipole Moment: [e a0]
     X:     9.0944      Y:     5.4148      Z:     1.7607

  Dipole Moment: [e a0]
     X:    -0.1816      Y:     0.2766      Z:    -1.2871     Total:     1.3289

  Dipole Moment: [D]
     X:    -0.4615      Y:     0.7031      Z:    -3.2714     Total:     3.3778

*** tstop() called on ds3 at Tue Apr 28 20:36:00 2020
Module time:
	user time   =      35.69 seconds =       0.59 minutes
	system time =      17.66 seconds =       0.29 minutes
	total time  =         52 seconds =       0.87 minutes
Total time:
	user time   =      35.69 seconds =       0.59 minutes
	system time =      17.66 seconds =       0.29 minutes
	total time  =         52 seconds =       0.87 minutes
                                     G D M A

                                 by Anthony Stone

                           version 2.2.06, 22 June 2011

               Distributed Multipoles from Gaussian wavefunctions

Starting at 20:36:0 on 28 Apr 2020

Using SCF density matrix from file ./SSI/SSI-093HIE-120ALA-1-dimer.test.3547.fchk

                         Distributed Multipole Analysis

Standard DMA

Positions and radii in angstrom
Multipole moments in atomic units, ea_0^k for rank k

C          x =  3.143410  y = -0.207882  z =  1.423923 angstrom
           Maximum rank =  0   Radius =  0.650 angstrom
                   Q00  =  -0.201091

C          x = -0.182590  y =  0.778118  z =  0.276923 angstrom
           Maximum rank =  0   Radius =  0.650 angstrom
                   Q00  =   0.463874

C          x =  1.928410  y =  0.243118  z =  0.645923 angstrom
           Maximum rank =  0   Radius =  0.650 angstrom
                   Q00  =   0.225737

C          x =  1.792410  y =  0.548118  z = -0.671077 angstrom
           Maximum rank =  0   Radius =  0.650 angstrom
                   Q00  =   0.001705

N          x =  0.675410  y =  0.399118  z =  1.220923 angstrom
           Maximum rank =  0   Radius =  0.650 angstrom
                   Q00  =  -0.775442

N          x =  0.471410  y =  0.889118  z = -0.876077 angstrom
           Maximum rank =  0   Radius =  0.650 angstrom
                   Q00  =  -0.481256

H          x = -1.228590  y =  1.016118  z =  0.431923 angstrom
           Maximum rank =  0   Radius =  0.325 angstrom
                   Q00  =   0.127336

H          x =  0.057410  y =  1.186118  z = -1.754077 angstrom
           Maximum rank =  0   Radius =  0.325 angstrom
                   Q00  =   0.220562

H          x =  2.577410  y =  0.518118  z = -1.417077 angstrom
           Maximum rank =  0   Radius =  0.325 angstrom
                   Q00  =   0.100118

H          x =  3.105410  y = -1.290882  z =  1.530923 angstrom
           Maximum rank =  0   Radius =  0.325 angstrom
                   Q00  =   0.106650

H          x =  3.043410  y =  0.220118  z =  2.421923 angstrom
           Maximum rank =  0   Radius =  0.325 angstrom
                   Q00  =   0.117324

H          x =  4.121600  y =  0.091958  z =  1.019893 angstrom
           Maximum rank =  0   Radius =  0.325 angstrom
                   Q00  =   0.096059

C          x = -3.021590  y = -0.729882  z = -1.074077 angstrom
           Maximum rank =  0   Radius =  0.650 angstrom
                   Q00  =  -0.253688

C          x = -4.167590  y = -1.674882  z = -0.731077 angstrom
           Maximum rank =  0   Radius =  0.650 angstrom
                   Q00  =  -0.226482

H          x = -2.202590  y = -0.884882  z = -0.373077 angstrom
           Maximum rank =  0   Radius =  0.325 angstrom
                   Q00  =   0.090068

H          x = -2.664590  y = -0.936882  z = -2.085077 angstrom
           Maximum rank =  0   Radius =  0.325 angstrom
                   Q00  =   0.077314

H          x = -3.362590  y =  0.305118  z = -1.027077 angstrom
           Maximum rank =  0   Radius =  0.325 angstrom
                   Q00  =   0.070381

H          x = -4.942590  y = -1.573882  z = -1.494077 angstrom
           Maximum rank =  0   Radius =  0.325 angstrom
                   Q00  =   0.075825

H          x = -4.598130  y = -1.417452  z =  0.247883 angstrom
           Maximum rank =  0   Radius =  0.325 angstrom
                   Q00  =   0.082603

H          x = -3.797320  y = -2.710482  z = -0.752047 angstrom
           Maximum rank =  0   Radius =  0.325 angstrom
                   Q00  =   0.082403

Total multipoles referred to origin at
           x =   0.000000,  y =    0.000000,  z =    0.000000 angstrom
                   Q00  =  -0.000000

Finished at 20:36:0 on 28 Apr 2020

  DMA results are available in the Python driver through the
	  variable('DMA DISTRIBUTED MULTIPOLES')
  and
	  variable('DMA TOTAL MULTIPOLES')
  commands.

    Psi4 stopped on: Tuesday, 28 April 2020 08:36PM
    Psi4 wall time for execution: 0:00:52.09

*** Psi4 exiting successfully. Buy a developer a beer!
