                               Psi4 1.3.2 release

  ==> Input File <==

--------------------------------------------------------------------------
import numpy as np
set {scf_type pk
basis cc-pvdz
d_convergence 10
gdma_switch   0
gdma_limit    0
gdma_origin   [ 0.0,  0.0,  0.0 ]
}
molecule test {
    units Angstrom
    0 1
    --
    0 1
    C               -1.512053560068689    -0.968860737697314     0.726484121961875
    C               -2.935053560068690    -1.351860737697314     1.122484121961875
    H               -1.534053560068689    -0.282860737697314    -0.113515878038125
    H               -1.042053560068689    -0.454860737697314     1.564484121961875
    H               -0.909053560068689    -1.841860737697314     0.491484121961875
    H               -3.510053560068689    -0.450860737697314     1.335484121961875
    H               -2.882053560068689    -1.918860737697314     2.053484121961874
    H               -3.449823560068689    -1.970020737697314     0.372224121961875
    C                1.177946439931311     1.189139262302686    -0.892515878038125
    C                1.267946439931311    -0.288860737697314    -1.305515878038125
    C                2.073946439931311     1.500139262302686     0.278484121961875
    H                1.486946439931311     1.811139262302686    -1.732515878038125
    H                0.146946439931311     1.435139262302686    -0.634515878038125
    H                1.073946439931311    -0.916860737697314    -0.436515878038125
    H                2.280946439931311    -0.497860737697314    -1.637515878038125
    H                1.707946439931311     0.976139262302686     1.164484121961875
    H                3.082946439931311     1.148139262302686     0.053484121961875
    H                0.573266439931311    -0.568020737697314    -2.111426878038126
    H                2.108136439931311     2.582579262302686     0.471254121961875

}
e, wfn = energy('scf', return_wfn=True)
gdma(wfn)
dmavals = variable('DMA DISTRIBUTED MULTIPOLES')
charges = np.array(dmavals)
print(charges)
np.save('SSI-158ILE-164LYS-2-dimer.npy', np.array(charges))--------------------------------------------------------------------------

*** tstart() called on ds3
*** at Sun Apr 26 18:52:21 2020

   => Loading Basis Set <=

    Name: CC-PVDZ
    Role: ORBITAL
    Keyword: BASIS
    atoms 1-2, 9-11  entry C          line   138 file /theoryfs2/ds/metcalf/miniconda2/envs/tf2gpu/share/psi4/basis/cc-pvdz.gbs
    atoms 3-8, 12-19 entry H          line    22 file /theoryfs2/ds/metcalf/miniconda2/envs/tf2gpu/share/psi4/basis/cc-pvdz.gbs

         ---------------------------------------------------------
                                   SCF
               by Justin Turney, Rob Parrish, Andy Simmonett
                          and Daniel G. A. Smith
                              RHF Reference
                        1 Threads,    500 MiB Core
         ---------------------------------------------------------

  ==> Geometry <==

    Molecular point group: c1
    Full point group: C1

    Geometry (in Angstrom), charge = 0, multiplicity = 1:

       Center              X                  Y                   Z               Mass
    ------------   -----------------  -----------------  -----------------  -----------------
         C           -1.512053560069    -0.968860737697     0.726484121962    12.000000000000
         C           -2.935053560069    -1.351860737697     1.122484121962    12.000000000000
         H           -1.534053560069    -0.282860737697    -0.113515878038     1.007825032230
         H           -1.042053560069    -0.454860737697     1.564484121962     1.007825032230
         H           -0.909053560069    -1.841860737697     0.491484121962     1.007825032230
         H           -3.510053560069    -0.450860737697     1.335484121962     1.007825032230
         H           -2.882053560069    -1.918860737697     2.053484121962     1.007825032230
         H           -3.449823560069    -1.970020737697     0.372224121962     1.007825032230
         C            1.177946439931     1.189139262303    -0.892515878038    12.000000000000
         C            1.267946439931    -0.288860737697    -1.305515878038    12.000000000000
         C            2.073946439931     1.500139262303     0.278484121962    12.000000000000
         H            1.486946439931     1.811139262303    -1.732515878038     1.007825032230
         H            0.146946439931     1.435139262303    -0.634515878038     1.007825032230
         H            1.073946439931    -0.916860737697    -0.436515878038     1.007825032230
         H            2.280946439931    -0.497860737697    -1.637515878038     1.007825032230
         H            1.707946439931     0.976139262303     1.164484121962     1.007825032230
         H            3.082946439931     1.148139262303     0.053484121962     1.007825032230
         H            0.573266439931    -0.568020737697    -2.111426878038     1.007825032230
         H            2.108136439931     2.582579262303     0.471254121962     1.007825032230

  Running in c1 symmetry.

  Rotational constants: A =      0.25263  B =      0.04109  C =      0.03794 [cm^-1]
  Rotational constants: A =   7573.77967  B =   1231.70765  C =   1137.45574 [MHz]
  Nuclear repulsion =  180.461383736530877

  Charge       = 0
  Multiplicity = 1
  Electrons    = 44
  Nalpha       = 22
  Nbeta        = 22

  ==> Algorithm <==

  SCF Algorithm Type is PK.
  DIIS enabled.
  MOM disabled.
  Fractional occupation disabled.
  Guess Type is SAD.
  Energy threshold   = 1.00e-06
  Density threshold  = 1.00e-10
  Integral threshold = 0.00e+00

  ==> Primary Basis <==

  Basis Set: CC-PVDZ
    Blend: CC-PVDZ
    Number of shells: 72
    Number of basis function: 140
    Number of Cartesian functions: 145
    Spherical Harmonics?: true
    Max angular momentum: 2

  ==> Pre-Iterations <==

   -------------------------------------------------------
    Irrep   Nso     Nmo     Nalpha   Nbeta   Ndocc  Nsocc
   -------------------------------------------------------
     A        140     140       0       0       0       0
   -------------------------------------------------------
    Total     140     140      22      22      22       0
   -------------------------------------------------------

  ==> Integral Setup <==

  Using integral reordering PK algorithm.
  Sizing the integral batches needed.
  Building batch lookup table.
   Calculation information:
      Number of atoms:                  19
      Number of AO shells:              72
      Number of primitives:            180
      Number of atomic orbitals:       145
      Number of basis functions:       140

      Integral cutoff                 1.00e-12
      Number of threads:                 1

	Batch   1 pq = [       0,    9405] index = [             0,44231715] size =     44231715
	Batch   2 pq = [    9405,    9870] index = [      44231715,48713385] size =      4481670
  Task number: 5
  Buffer size: 11059200
  Buffer per thread: 2
  We computed 2944006 shell quartets total.
  Whereas there are 3454506 unique shell quartets.

  ==> DiskJK: Disk-Based J/K Matrices <==

    J tasked:                  Yes
    K tasked:                  Yes
    wK tasked:                  No
    Memory [MiB]:              375
    Schwarz Cutoff:          1E-12

    OpenMP threads:              1

  Minimum eigenvalue in the overlap matrix is 5.4640944635E-03.
  Using Symmetric Orthogonalization.

  SCF Guess: Superposition of Atomic Densities via on-the-fly atomic UHF.

  ==> Iterations <==

                        Total Energy        Delta E     RMS |[F,P]|

   @RHF iter SAD:  -196.42260531697534   -1.96423e+02   0.00000e+00
   @RHF iter   1:  -197.30892866276503   -8.86323e-01   3.82598e-03 DIIS
   @RHF iter   2:  -197.47068834652310   -1.61760e-01   1.65211e-03 DIIS
   @RHF iter   3:  -197.49948232232151   -2.87940e-02   3.28191e-04 DIIS
   @RHF iter   4:  -197.50172962133809   -2.24730e-03   5.02276e-05 DIIS
   @RHF iter   5:  -197.50176993414897   -4.03128e-05   1.54198e-05 DIIS
   @RHF iter   6:  -197.50177353053158   -3.59638e-06   2.33502e-06 DIIS
   @RHF iter   7:  -197.50177363294125   -1.02410e-07   4.53761e-07 DIIS
   @RHF iter   8:  -197.50177363693996   -3.99871e-09   1.18646e-07 DIIS
   @RHF iter   9:  -197.50177363720266   -2.62702e-10   3.46462e-08 DIIS
   @RHF iter  10:  -197.50177363723020   -2.75406e-11   7.34825e-09 DIIS
   @RHF iter  11:  -197.50177363723125   -1.05160e-12   1.40439e-09 DIIS
   @RHF iter  12:  -197.50177363723179   -5.40012e-13   2.72152e-10 DIIS
   @RHF iter  13:  -197.50177363723196   -1.70530e-13   5.30489e-11 DIIS
  Energy and wave function converged.

  ==> Post-Iterations <==

    Orbital Energies [Eh]
    ---------------------

    Doubly Occupied:

       1A    -11.218192     2A    -11.217587     3A    -11.216259
       4A    -11.214773     5A    -11.214038     6A     -1.056015
       7A     -1.019849     8A     -0.922708     9A     -0.839503
      10A     -0.796008    11A     -0.628573    12A     -0.600715
      13A     -0.598537    14A     -0.594786    15A     -0.545152
      16A     -0.530835    17A     -0.502572    18A     -0.489381
      19A     -0.482807    20A     -0.475120    21A     -0.466922
      22A     -0.465298

    Virtual:

      23A      0.172677    24A      0.194232    25A      0.219130
      26A      0.225579    27A      0.228490    28A      0.251458
      29A      0.261729    30A      0.267897    31A      0.276843
      32A      0.279437    33A      0.301354    34A      0.311167
      35A      0.331064    36A      0.343799    37A      0.378753
      38A      0.399660    39A      0.436267    40A      0.564093
      41A      0.581662    42A      0.595760    43A      0.598945
      44A      0.615453    45A      0.618206    46A      0.629260
      47A      0.680915    48A      0.698748    49A      0.754850
      50A      0.803416    51A      0.830819    52A      0.852882
      53A      0.860457    54A      0.876849    55A      0.887624
      56A      0.892873    57A      0.894665    58A      0.903121
      59A      0.907546    60A      0.913475    61A      0.920987
      62A      0.933379    63A      0.941295    64A      0.955758
      65A      0.958582    66A      0.971944    67A      0.990884
      68A      1.024441    69A      1.124483    70A      1.130147
      71A      1.136547    72A      1.151826    73A      1.201866
      74A      1.251165    75A      1.365824    76A      1.465476
      77A      1.479959    78A      1.481151    79A      1.500276
      80A      1.549105    81A      1.595168    82A      1.612522
      83A      1.674136    84A      1.684298    85A      1.695114
      86A      1.705009    87A      1.708938    88A      1.841296
      89A      1.859781    90A      1.872364    91A      1.880115
      92A      1.899795    93A      1.903585    94A      1.918514
      95A      1.939074    96A      1.943222    97A      1.950721
      98A      1.957171    99A      1.959466   100A      1.968150
     101A      1.974551   102A      1.987342   103A      1.988539
     104A      2.013560   105A      2.031690   106A      2.044641
     107A      2.072150   108A      2.097594   109A      2.128440
     110A      2.139187   111A      2.167548   112A      2.291974
     113A      2.303194   114A      2.315177   115A      2.320906
     116A      2.336327   117A      2.359878   118A      2.458301
     119A      2.475984   120A      2.505497   121A      2.533811
     122A      2.558338   123A      2.577121   124A      2.595199
     125A      2.620356   126A      2.637965   127A      2.762647
     128A      2.766397   129A      2.775248   130A      2.794749
     131A      2.803834   132A      2.827875   133A      2.861074
     134A      2.877490   135A      2.917664   136A      2.949864
     137A      2.970444   138A      2.981373   139A      2.993384
     140A      3.064431

    Final Occupation by Irrep:
              A
    DOCC [    22 ]

  @RHF Final Energy:  -197.50177363723196

   => Energetics <=

    Nuclear Repulsion Energy =            180.4613837365308768
    One-Electron Energy =                -621.7350577922235288
    Two-Electron Energy =                 243.7719004184606888
    Total Energy =                       -197.5017736372319632

Computation Completed

Properties will be evaluated at   0.000000,   0.000000,   0.000000 [a0]

Properties computed using the SCF density matrix

  Nuclear Dipole Moment: [e a0]
     X:    -0.8119      Y:    -0.8896      Z:     0.7878

  Electronic Dipole Moment: [e a0]
     X:     0.8003      Y:     0.9000      Z:    -0.7825

  Dipole Moment: [e a0]
     X:    -0.0115      Y:     0.0104      Z:     0.0053     Total:     0.0164

  Dipole Moment: [D]
     X:    -0.0293      Y:     0.0265      Z:     0.0135     Total:     0.0417

*** tstop() called on ds3 at Sun Apr 26 18:52:46 2020
Module time:
	user time   =      15.56 seconds =       0.26 minutes
	system time =       5.65 seconds =       0.09 minutes
	total time  =         25 seconds =       0.42 minutes
Total time:
	user time   =      15.56 seconds =       0.26 minutes
	system time =       5.65 seconds =       0.09 minutes
	total time  =         25 seconds =       0.42 minutes
                                     G D M A

                                 by Anthony Stone

                           version 2.2.06, 22 June 2011

               Distributed Multipoles from Gaussian wavefunctions

Starting at 18:52:46 on 26 Apr 2020

Using SCF density matrix from file ./SSI/SSI-158ILE-164LYS-2-dimer.test.23414.fchk

                         Distributed Multipole Analysis

Standard DMA

Positions and radii in angstrom
Multipole moments in atomic units, ea_0^k for rank k

C          x = -1.512054  y = -0.968861  z =  0.726484 angstrom
           Maximum rank =  0   Radius =  0.650 angstrom
                   Q00  =  -0.245214

C          x = -2.935054  y = -1.351861  z =  1.122484 angstrom
           Maximum rank =  0   Radius =  0.650 angstrom
                   Q00  =  -0.230830

H          x = -1.534054  y = -0.282861  z = -0.113516 angstrom
           Maximum rank =  0   Radius =  0.325 angstrom
                   Q00  =   0.081244

H          x = -1.042054  y = -0.454861  z =  1.564484 angstrom
           Maximum rank =  0   Radius =  0.325 angstrom
                   Q00  =   0.077108

H          x = -0.909054  y = -1.841861  z =  0.491484 angstrom
           Maximum rank =  0   Radius =  0.325 angstrom
                   Q00  =   0.081604

H          x = -3.510054  y = -0.450861  z =  1.335484 angstrom
           Maximum rank =  0   Radius =  0.325 angstrom
                   Q00  =   0.080431

H          x = -2.882054  y = -1.918861  z =  2.053484 angstrom
           Maximum rank =  0   Radius =  0.325 angstrom
                   Q00  =   0.075482

H          x = -3.449824  y = -1.970021  z =  0.372224 angstrom
           Maximum rank =  0   Radius =  0.325 angstrom
                   Q00  =   0.082106

C          x =  1.177946  y =  1.189139  z = -0.892516 angstrom
           Maximum rank =  0   Radius =  0.650 angstrom
                   Q00  =  -0.081366

C          x =  1.267946  y = -0.288861  z = -1.305516 angstrom
           Maximum rank =  0   Radius =  0.650 angstrom
                   Q00  =  -0.255112

C          x =  2.073946  y =  1.500139  z =  0.278484 angstrom
           Maximum rank =  0   Radius =  0.650 angstrom
                   Q00  =  -0.225335

H          x =  1.486946  y =  1.811139  z = -1.732516 angstrom
           Maximum rank =  0   Radius =  0.325 angstrom
                   Q00  =   0.044564

H          x =  0.146946  y =  1.435139  z = -0.634516 angstrom
           Maximum rank =  0   Radius =  0.325 angstrom
                   Q00  =   0.046725

H          x =  1.073946  y = -0.916861  z = -0.436516 angstrom
           Maximum rank =  0   Radius =  0.325 angstrom
                   Q00  =   0.077469

H          x =  2.280946  y = -0.497861  z = -1.637516 angstrom
           Maximum rank =  0   Radius =  0.325 angstrom
                   Q00  =   0.075659

H          x =  1.707946  y =  0.976139  z =  1.164484 angstrom
           Maximum rank =  0   Radius =  0.325 angstrom
                   Q00  =   0.075510

H          x =  3.082946  y =  1.148139  z =  0.053484 angstrom
           Maximum rank =  0   Radius =  0.325 angstrom
                   Q00  =   0.072342

H          x =  0.573266  y = -0.568021  z = -2.111427 angstrom
           Maximum rank =  0   Radius =  0.325 angstrom
                   Q00  =   0.085342

H          x =  2.108136  y =  2.582579  z =  0.471254 angstrom
           Maximum rank =  0   Radius =  0.325 angstrom
                   Q00  =   0.082270

Total multipoles referred to origin at
           x =   0.000000,  y =    0.000000,  z =    0.000000 angstrom
                   Q00  =  -0.000000

Finished at 18:52:46 on 26 Apr 2020

  DMA results are available in the Python driver through the
	  variable('DMA DISTRIBUTED MULTIPOLES')
  and
	  variable('DMA TOTAL MULTIPOLES')
  commands.

    Psi4 stopped on: Sunday, 26 April 2020 06:52PM
    Psi4 wall time for execution: 0:00:25.38

*** Psi4 exiting successfully. Buy a developer a beer!
