                               Psi4 1.3.2 release

  ==> Input File <==

--------------------------------------------------------------------------
import numpy as np
set {scf_type pk
basis cc-pvdz
d_convergence 10
gdma_switch   0
gdma_limit    0
gdma_origin   [ 0.0,  0.0,  0.0 ]
}
molecule test {
    units Angstrom
    0 1
    --
    0 1
    C                3.529308296097776     0.450475216983826     2.717910812130392
    C                4.819308296097776     0.120475216983826     3.459910812130391
    H                2.905308296097776     1.110475216983825     3.319910812130392
    H                3.778308296097777     0.945475216983826     1.779910812130391
    H                2.969308296097776    -0.444524783016174     2.460910812130392
    H                5.411308296097776    -0.551524783016174     2.839910812130392
    H                4.604890296097776    -0.371465783016174     4.420128812130391
    H                5.411276296097776     1.033303216983826     3.622142812130392
    C               -1.187691703902223    -1.138524783016174    -3.475089187869608
    C               -1.433691703902224    -0.065524783016174     0.121910812130392
    C               -0.721691703902224    -0.101524783016174    -1.088089187869608
    C               -1.508691703902224    -0.836524783016174    -2.031089187869608
    C               -2.617691703902223    -1.209524783016174    -1.376089187869608
    C                0.237308296097776     1.225475216983825     1.130910812130391
    C               -0.979691703902224     0.605475216983826     1.236910812130392
    C                0.967308296097776     1.213475216983825    -0.052089187869608
    C                0.489308296097776     0.587475216983826    -1.171089187869608
    N               -2.582691703902224    -0.752524783016174    -0.094089187869608
    H                0.633308296097776     1.760475216983826     1.983910812130392
    H               -1.568691703902224     0.691475216983826     2.135910812130392
    H                1.916308296097776     1.727475216983825    -0.095089187869608
    H                1.039308296097776     0.612475216983826    -2.098089187869609
    H               -3.351691703902224    -0.853524783016174     0.558910812130392
    H               -3.438691703902224    -1.769524783016174    -1.816089187869608
    H               -0.807691703902224    -0.232524783016174    -3.948089187869609
    H               -2.117691703902224    -1.374524783016174    -3.984089187869609
    H               -0.472279703902224    -1.963115783016175    -3.610126787869608

}
e, wfn = energy('scf', return_wfn=True)
gdma(wfn)
dmavals = variable('DMA DISTRIBUTED MULTIPOLES')
charges = np.array(dmavals)
print(charges)
np.save('SSI-005LEU-010TRP-1-dimer.npy', np.array(charges))--------------------------------------------------------------------------

*** tstart() called on ds3
*** at Tue Apr 28 11:56:44 2020

   => Loading Basis Set <=

    Name: CC-PVDZ
    Role: ORBITAL
    Keyword: BASIS
    atoms 1-2, 9-17  entry C          line   138 file /theoryfs2/ds/metcalf/miniconda2/envs/tf2gpu/share/psi4/basis/cc-pvdz.gbs
    atoms 3-8, 19-27 entry H          line    22 file /theoryfs2/ds/metcalf/miniconda2/envs/tf2gpu/share/psi4/basis/cc-pvdz.gbs
    atoms 18         entry N          line   168 file /theoryfs2/ds/metcalf/miniconda2/envs/tf2gpu/share/psi4/basis/cc-pvdz.gbs

         ---------------------------------------------------------
                                   SCF
               by Justin Turney, Rob Parrish, Andy Simmonett
                          and Daniel G. A. Smith
                              RHF Reference
                        1 Threads,    500 MiB Core
         ---------------------------------------------------------

  ==> Geometry <==

    Molecular point group: c1
    Full point group: C1

    Geometry (in Angstrom), charge = 0, multiplicity = 1:

       Center              X                  Y                   Z               Mass
    ------------   -----------------  -----------------  -----------------  -----------------
         C            3.529308296098     0.450475216984     2.717910812130    12.000000000000
         C            4.819308296098     0.120475216984     3.459910812130    12.000000000000
         H            2.905308296098     1.110475216984     3.319910812130     1.007825032230
         H            3.778308296098     0.945475216984     1.779910812130     1.007825032230
         H            2.969308296098    -0.444524783016     2.460910812130     1.007825032230
         H            5.411308296098    -0.551524783016     2.839910812130     1.007825032230
         H            4.604890296098    -0.371465783016     4.420128812130     1.007825032230
         H            5.411276296098     1.033303216984     3.622142812130     1.007825032230
         C           -1.187691703902    -1.138524783016    -3.475089187870    12.000000000000
         C           -1.433691703902    -0.065524783016     0.121910812130    12.000000000000
         C           -0.721691703902    -0.101524783016    -1.088089187870    12.000000000000
         C           -1.508691703902    -0.836524783016    -2.031089187870    12.000000000000
         C           -2.617691703902    -1.209524783016    -1.376089187870    12.000000000000
         C            0.237308296098     1.225475216984     1.130910812130    12.000000000000
         C           -0.979691703902     0.605475216984     1.236910812130    12.000000000000
         C            0.967308296098     1.213475216984    -0.052089187870    12.000000000000
         C            0.489308296098     0.587475216984    -1.171089187870    12.000000000000
         N           -2.582691703902    -0.752524783016    -0.094089187870    14.003074004430
         H            0.633308296098     1.760475216984     1.983910812130     1.007825032230
         H           -1.568691703902     0.691475216984     2.135910812130     1.007825032230
         H            1.916308296098     1.727475216984    -0.095089187870     1.007825032230
         H            1.039308296098     0.612475216984    -2.098089187870     1.007825032230
         H           -3.351691703902    -0.853524783016     0.558910812130     1.007825032230
         H           -3.438691703902    -1.769524783016    -1.816089187870     1.007825032230
         H           -0.807691703902    -0.232524783016    -3.948089187870     1.007825032230
         H           -2.117691703902    -1.374524783016    -3.984089187870     1.007825032230
         H           -0.472279703902    -1.963115783016    -3.610126787870     1.007825032230

  Running in c1 symmetry.

  Rotational constants: A =      0.05990  B =      0.01203  C =      0.01100 [cm^-1]
  Rotational constants: A =   1795.61630  B =    360.60808  C =    329.70157 [MHz]
  Nuclear repulsion =  639.135708692683579

  Charge       = 0
  Multiplicity = 1
  Electrons    = 88
  Nalpha       = 44
  Nbeta        = 44

  ==> Algorithm <==

  SCF Algorithm Type is PK.
  DIIS enabled.
  MOM disabled.
  Fractional occupation disabled.
  Guess Type is SAD.
  Energy threshold   = 1.00e-06
  Density threshold  = 1.00e-10
  Integral threshold = 0.00e+00

  ==> Primary Basis <==

  Basis Set: CC-PVDZ
    Blend: CC-PVDZ
    Number of shells: 117
    Number of basis function: 243
    Number of Cartesian functions: 255
    Spherical Harmonics?: true
    Max angular momentum: 2

  ==> Pre-Iterations <==

   -------------------------------------------------------
    Irrep   Nso     Nmo     Nalpha   Nbeta   Ndocc  Nsocc
   -------------------------------------------------------
     A        243     243       0       0       0       0
   -------------------------------------------------------
    Total     243     243      44      44      44       0
   -------------------------------------------------------

  ==> Integral Setup <==

  Using integral reordering PK algorithm.
  Sizing the integral batches needed.
  Building batch lookup table.
   Calculation information:
      Number of atoms:                  27
      Number of AO shells:             117
      Number of primitives:            339
      Number of atomic orbitals:       255
      Number of basis functions:       243

      Integral cutoff                 1.00e-12
      Number of threads:                 1

	Batch   1 pq = [       0,    9405] index = [             0,44231715] size =     44231715
	Batch   2 pq = [    9405,   13301] index = [      44231715,88464951] size =     44233236
	Batch   3 pq = [   13301,   16290] index = [      88464951,132690195] size =     44225244
	Batch   4 pq = [   16290,   18810] index = [     132690195,176917455] size =     44227260
	Batch   5 pq = [   18810,   21030] index = [     176917455,221140965] size =     44223510
	Batch   6 pq = [   21030,   23037] index = [     221140965,265363203] size =     44222238
	Batch   7 pq = [   23037,   24883] index = [     265363203,309594286] size =     44231083
	Batch   8 pq = [   24883,   26601] index = [     309594286,353819901] size =     44225615
	Batch   9 pq = [   26601,   28214] index = [     353819901,398029005] size =     44209104
	Batch  10 pq = [   28214,   29646] index = [     398029005,439457481] size =     41428476
  Task number: 40
  Buffer size: 11059200
  Buffer per thread: 2
  We computed 19533884 shell quartets total.
  Whereas there are 23829156 unique shell quartets.

  ==> DiskJK: Disk-Based J/K Matrices <==

    J tasked:                  Yes
    K tasked:                  Yes
    wK tasked:                  No
    Memory [MiB]:              375
    Schwarz Cutoff:          1E-12

    OpenMP threads:              1

  Minimum eigenvalue in the overlap matrix is 2.2589242643E-04.
  Using Symmetric Orthogonalization.

  SCF Guess: Superposition of Atomic Densities via on-the-fly atomic UHF.

  ==> Iterations <==

                        Total Energy        Delta E     RMS |[F,P]|

   @RHF iter SAD:  -479.27901119743603   -4.79279e+02   0.00000e+00
   @RHF iter   1:  -479.48249022813252   -2.03479e-01   2.64799e-03 DIIS
   @RHF iter   2:  -479.72032552361441   -2.37835e-01   1.17756e-03 DIIS
   @RHF iter   3:  -479.76347436492654   -4.31488e-02   2.98088e-04 DIIS
   @RHF iter   4:  -479.76718891727774   -3.71455e-03   1.35399e-04 DIIS
   @RHF iter   5:  -479.76779827467163   -6.09357e-04   2.00085e-05 DIIS
   @RHF iter   6:  -479.76782615248555   -2.78778e-05   8.93759e-06 DIIS
   @RHF iter   7:  -479.76783163168699   -5.47920e-06   3.63329e-06 DIIS
   @RHF iter   8:  -479.76783310719418   -1.47551e-06   1.43038e-06 DIIS
   @RHF iter   9:  -479.76783340388198   -2.96688e-07   6.21702e-07 DIIS
   @RHF iter  10:  -479.76783345915118   -5.52692e-08   2.83691e-07 DIIS
   @RHF iter  11:  -479.76783347285686   -1.37057e-08   1.07683e-07 DIIS
   @RHF iter  12:  -479.76783347476965   -1.91278e-09   3.37029e-08 DIIS
   @RHF iter  13:  -479.76783347489135   -1.21702e-10   8.55975e-09 DIIS
   @RHF iter  14:  -479.76783347489550   -4.14957e-12   3.10398e-09 DIIS
   @RHF iter  15:  -479.76783347490345   -7.95808e-12   1.36098e-09 DIIS
   @RHF iter  16:  -479.76783347490357   -1.13687e-13   7.09031e-10 DIIS
   @RHF iter  17:  -479.76783347489959    3.97904e-12   2.86966e-10 DIIS
   @RHF iter  18:  -479.76783347489891    6.82121e-13   1.30249e-10 DIIS
   @RHF iter  19:  -479.76783347490039   -1.47793e-12   3.82164e-11 DIIS
  Energy and wave function converged.

  ==> Post-Iterations <==

    Orbital Energies [Eh]
    ---------------------

    Doubly Occupied:

       1A    -15.597844     2A    -11.257850     3A    -11.257563
       4A    -11.226125     5A    -11.225362     6A    -11.224855
       7A    -11.223219     8A    -11.214854     9A    -11.214475
      10A    -11.213940    11A    -11.212154    12A    -11.210455
      13A     -1.303995    14A     -1.134932    15A     -1.074798
      16A     -1.014476    17A     -1.001296    18A     -0.989639
      19A     -0.931811    20A     -0.841803    21A     -0.832060
      22A     -0.803927    23A     -0.755252    24A     -0.721282
      25A     -0.662874    26A     -0.642087    27A     -0.604037
      28A     -0.595623    29A     -0.594977    30A     -0.592211
      31A     -0.591276    32A     -0.565503    33A     -0.554994
      34A     -0.533918    35A     -0.525591    36A     -0.498194
      37A     -0.493091    38A     -0.481126    39A     -0.478911
      40A     -0.472089    41A     -0.464435    42A     -0.374440
      43A     -0.295577    44A     -0.276738

    Virtual:

      45A      0.130469    46A      0.175009    47A      0.179881
      48A      0.183797    49A      0.192095    50A      0.205009
      51A      0.223795    52A      0.226657    53A      0.232615
      54A      0.247247    55A      0.258060    56A      0.262022
      57A      0.275947    58A      0.284919    59A      0.287541
      60A      0.293438    61A      0.319163    62A      0.334784
      63A      0.376819    64A      0.389158    65A      0.398892
      66A      0.410071    67A      0.431245    68A      0.455111
      69A      0.478952    70A      0.486314    71A      0.498640
      72A      0.513790    73A      0.593390    74A      0.600795
      75A      0.602882    76A      0.605590    77A      0.624893
      78A      0.635639    79A      0.649541    80A      0.671707
      81A      0.683917    82A      0.689552    83A      0.701338
      84A      0.714035    85A      0.725604    86A      0.729621
      87A      0.741613    88A      0.744593    89A      0.749022
      90A      0.756747    91A      0.767222    92A      0.773728
      93A      0.788640    94A      0.798938    95A      0.808523
      96A      0.837656    97A      0.851024    98A      0.874397
      99A      0.880565   100A      0.889665   101A      0.893164
     102A      0.895836   103A      0.898937   104A      0.901071
     105A      0.910525   106A      0.917053   107A      0.920998
     108A      0.941612   109A      0.945994   110A      0.950207
     111A      0.959224   112A      0.970851   113A      0.984764
     114A      0.997159   115A      1.001754   116A      1.022084
     117A      1.059990   118A      1.071889   119A      1.095365
     120A      1.124595   121A      1.130978   122A      1.134896
     123A      1.148177   124A      1.154219   125A      1.172014
     126A      1.178577   127A      1.212432   128A      1.223377
     129A      1.231211   130A      1.246423   131A      1.256954
     132A      1.261602   133A      1.281046   134A      1.300130
     135A      1.316960   136A      1.339315   137A      1.347736
     138A      1.367515   139A      1.377843   140A      1.414539
     141A      1.448527   142A      1.476716   143A      1.487120
     144A      1.524346   145A      1.555966   146A      1.583139
     147A      1.591602   148A      1.602379   149A      1.631341
     150A      1.643044   151A      1.647479   152A      1.685491
     153A      1.690412   154A      1.701409   155A      1.702646
     156A      1.745547   157A      1.767387   158A      1.784223
     159A      1.793148   160A      1.819689   161A      1.831472
     162A      1.840907   163A      1.871431   164A      1.874472
     165A      1.886184   166A      1.897680   167A      1.903749
     168A      1.912420   169A      1.917818   170A      1.930635
     171A      1.942842   172A      1.946026   173A      1.948505
     174A      1.954409   175A      1.956407   176A      1.964991
     177A      1.976984   178A      1.989692   179A      2.004335
     180A      2.014664   181A      2.024290   182A      2.037656
     183A      2.065600   184A      2.086471   185A      2.088183
     186A      2.097037   187A      2.102962   188A      2.115884
     189A      2.120267   190A      2.123132   191A      2.131958
     192A      2.156359   193A      2.168106   194A      2.186500
     195A      2.204223   196A      2.243045   197A      2.258219
     198A      2.293541   199A      2.312617   200A      2.317282
     201A      2.329475   202A      2.340695   203A      2.353003
     204A      2.361995   205A      2.401930   206A      2.422474
     207A      2.457666   208A      2.464861   209A      2.470558
     210A      2.484596   211A      2.542413   212A      2.560199
     213A      2.579515   214A      2.604865   215A      2.613920
     216A      2.643882   217A      2.677418   218A      2.693842
     219A      2.722204   220A      2.762949   221A      2.778801
     222A      2.789380   223A      2.794717   224A      2.803935
     225A      2.819369   226A      2.841357   227A      2.863013
     228A      2.869419   229A      2.881389   230A      2.889284
     231A      2.934334   232A      2.959507   233A      2.961644
     234A      2.981732   235A      3.042424   236A      3.082088
     237A      3.101790   238A      3.150816   239A      3.223371
     240A      3.335975   241A      3.412829   242A      3.764315
     243A      3.999322

    Final Occupation by Irrep:
              A
    DOCC [    44 ]

  @RHF Final Energy:  -479.76783347490039

   => Energetics <=

    Nuclear Repulsion Energy =            639.1357086926835791
    One-Electron Energy =               -1916.2437606782996227
    Two-Electron Energy =                 797.3402185107155447
    Total Energy =                       -479.7678334749003852

Computation Completed

Properties will be evaluated at   0.000000,   0.000000,   0.000000 [a0]

Properties computed using the SCF density matrix

  Nuclear Dipole Moment: [e a0]
     X:    15.8625      Y:     0.3026      Z:     7.0970

  Electronic Dipole Moment: [e a0]
     X:   -16.6498      Y:    -0.5623      Z:    -6.9831

  Dipole Moment: [e a0]
     X:    -0.7873      Y:    -0.2597      Z:     0.1139     Total:     0.8368

  Dipole Moment: [D]
     X:    -2.0011      Y:    -0.6602      Z:     0.2896     Total:     2.1270

*** tstop() called on ds3 at Tue Apr 28 12:00:57 2020
Module time:
	user time   =     166.55 seconds =       2.78 minutes
	system time =      78.50 seconds =       1.31 minutes
	total time  =        253 seconds =       4.22 minutes
Total time:
	user time   =     166.55 seconds =       2.78 minutes
	system time =      78.50 seconds =       1.31 minutes
	total time  =        253 seconds =       4.22 minutes
                                     G D M A

                                 by Anthony Stone

                           version 2.2.06, 22 June 2011

               Distributed Multipoles from Gaussian wavefunctions

Starting at 12:0:57 on 28 Apr 2020

Using SCF density matrix from file ./SSI/SSI-005LEU-010TRP-1-dimer.test.22451.fchk

                         Distributed Multipole Analysis

Standard DMA

Positions and radii in angstrom
Multipole moments in atomic units, ea_0^k for rank k

C          x =  3.529308  y =  0.450475  z =  2.717911 angstrom
           Maximum rank =  0   Radius =  0.650 angstrom
                   Q00  =  -0.238354

C          x =  4.819308  y =  0.120475  z =  3.459911 angstrom
           Maximum rank =  0   Radius =  0.650 angstrom
                   Q00  =  -0.231225

H          x =  2.905308  y =  1.110475  z =  3.319911 angstrom
           Maximum rank =  0   Radius =  0.325 angstrom
                   Q00  =   0.073854

H          x =  3.778308  y =  0.945475  z =  1.779911 angstrom
           Maximum rank =  0   Radius =  0.325 angstrom
                   Q00  =   0.075593

H          x =  2.969308  y = -0.444525  z =  2.460911 angstrom
           Maximum rank =  0   Radius =  0.325 angstrom
                   Q00  =   0.087723

H          x =  5.411308  y = -0.551525  z =  2.839911 angstrom
           Maximum rank =  0   Radius =  0.325 angstrom
                   Q00  =   0.078230

H          x =  4.604890  y = -0.371466  z =  4.420129 angstrom
           Maximum rank =  0   Radius =  0.325 angstrom
                   Q00  =   0.078383

H          x =  5.411276  y =  1.033303  z =  3.622143 angstrom
           Maximum rank =  0   Radius =  0.325 angstrom
                   Q00  =   0.077015

C          x = -1.187692  y = -1.138525  z = -3.475089 angstrom
           Maximum rank =  0   Radius =  0.650 angstrom
                   Q00  =  -0.211641

C          x = -1.433692  y = -0.065525  z =  0.121911 angstrom
           Maximum rank =  0   Radius =  0.650 angstrom
                   Q00  =   0.256465

C          x = -0.721692  y = -0.101525  z = -1.088089 angstrom
           Maximum rank =  0   Radius =  0.650 angstrom
                   Q00  =  -0.059276

C          x = -1.508692  y = -0.836525  z = -2.031089 angstrom
           Maximum rank =  0   Radius =  0.650 angstrom
                   Q00  =  -0.129445

C          x = -2.617692  y = -1.209525  z = -1.376089 angstrom
           Maximum rank =  0   Radius =  0.650 angstrom
                   Q00  =   0.075216

C          x =  0.237308  y =  1.225475  z =  1.130911 angstrom
           Maximum rank =  0   Radius =  0.650 angstrom
                   Q00  =  -0.002149

C          x = -0.979692  y =  0.605475  z =  1.236911 angstrom
           Maximum rank =  0   Radius =  0.650 angstrom
                   Q00  =  -0.119896

C          x =  0.967308  y =  1.213475  z = -0.052089 angstrom
           Maximum rank =  0   Radius =  0.650 angstrom
                   Q00  =  -0.099429

C          x =  0.489308  y =  0.587475  z = -1.171089 angstrom
           Maximum rank =  0   Radius =  0.650 angstrom
                   Q00  =  -0.088536

N          x = -2.582692  y = -0.752525  z = -0.094089 angstrom
           Maximum rank =  0   Radius =  0.650 angstrom
                   Q00  =  -0.491110

H          x =  0.633308  y =  1.760475  z =  1.983911 angstrom
           Maximum rank =  0   Radius =  0.325 angstrom
                   Q00  =   0.061079

H          x = -1.568692  y =  0.691475  z =  2.135911 angstrom
           Maximum rank =  0   Radius =  0.325 angstrom
                   Q00  =   0.072151

H          x =  1.916308  y =  1.727475  z = -0.095089 angstrom
           Maximum rank =  0   Radius =  0.325 angstrom
                   Q00  =   0.055948

H          x =  1.039308  y =  0.612475  z = -2.098089 angstrom
           Maximum rank =  0   Radius =  0.325 angstrom
                   Q00  =   0.066159

H          x = -3.351692  y = -0.853525  z =  0.558911 angstrom
           Maximum rank =  0   Radius =  0.325 angstrom
                   Q00  =   0.212098

H          x = -3.438692  y = -1.769525  z = -1.816089 angstrom
           Maximum rank =  0   Radius =  0.325 angstrom
                   Q00  =   0.097708

H          x = -0.807692  y = -0.232525  z = -3.948089 angstrom
           Maximum rank =  0   Radius =  0.325 angstrom
                   Q00  =   0.100394

H          x = -2.117692  y = -1.374525  z = -3.984089 angstrom
           Maximum rank =  0   Radius =  0.325 angstrom
                   Q00  =   0.102529

H          x = -0.472280  y = -1.963116  z = -3.610127 angstrom
           Maximum rank =  0   Radius =  0.325 angstrom
                   Q00  =   0.100515

Total multipoles referred to origin at
           x =   0.000000,  y =    0.000000,  z =    0.000000 angstrom
                   Q00  =  -0.000000

Finished at 12:0:57 on 28 Apr 2020

  DMA results are available in the Python driver through the
	  variable('DMA DISTRIBUTED MULTIPOLES')
  and
	  variable('DMA TOTAL MULTIPOLES')
  commands.

    Psi4 stopped on: Tuesday, 28 April 2020 12:00PM
    Psi4 wall time for execution: 0:04:12.42

*** Psi4 exiting successfully. Buy a developer a beer!
