                               Psi4 1.3.2 release

  ==> Input File <==

--------------------------------------------------------------------------
import numpy as np
set {scf_type pk
basis cc-pvdz
d_convergence 10
gdma_switch   0
gdma_limit    0
gdma_origin   [ 0.0,  0.0,  0.0 ]
}
molecule test {
    units Angstrom
    0 1
    --
    0 1
    C               -1.562668219650529     0.828001115026657    -0.316618639308870
    C               -2.786668219650529     0.862001115026657     0.600381360691130
    H               -1.348668219650530    -0.195998884973343    -0.620618639308870
    H               -1.751668219650530     1.438001115026657    -1.201618639308871
    H               -0.688668219650529     1.239001115026657     0.185381360691130
    H               -2.900668219650530     1.874001115026657     0.990381360691130
    H               -2.663268219650529     0.154416115026657     1.433501360691130
    H               -3.684338219650529     0.599462115026657     0.021361360691130
    C                2.131331780349470    -0.152998884973343    -0.450618639308870
    C                2.220331780349470    -1.539998884973343     0.171381360691130
    H                3.106331780349470     0.152001115026657    -0.832618639308870
    H                1.418331780349471    -0.168998884973343    -1.274618639308871
    H                1.788331780349470     0.567001115026657     0.292381360691130
    H                1.220331780349470    -1.842998884973343     0.472381360691130
    H                2.884621780349470    -1.514917884973343     1.047791360691130
    H                2.591621780349471    -2.265301884973343    -0.567588639308870

}
e, wfn = energy('scf', return_wfn=True)
gdma(wfn)
dmavals = variable('DMA DISTRIBUTED MULTIPOLES')
charges = np.array(dmavals)
print(charges)
np.save('SSI-143VAL-147LEU-1-dimer.npy', np.array(charges))--------------------------------------------------------------------------

*** tstart() called on ds3
*** at Mon Apr 27 23:41:09 2020

   => Loading Basis Set <=

    Name: CC-PVDZ
    Role: ORBITAL
    Keyword: BASIS
    atoms 1-2, 9-10  entry C          line   138 file /theoryfs2/ds/metcalf/miniconda2/envs/tf2gpu/share/psi4/basis/cc-pvdz.gbs
    atoms 3-8, 11-16 entry H          line    22 file /theoryfs2/ds/metcalf/miniconda2/envs/tf2gpu/share/psi4/basis/cc-pvdz.gbs

         ---------------------------------------------------------
                                   SCF
               by Justin Turney, Rob Parrish, Andy Simmonett
                          and Daniel G. A. Smith
                              RHF Reference
                        1 Threads,    500 MiB Core
         ---------------------------------------------------------

  ==> Geometry <==

    Molecular point group: c1
    Full point group: C1

    Geometry (in Angstrom), charge = 0, multiplicity = 1:

       Center              X                  Y                   Z               Mass
    ------------   -----------------  -----------------  -----------------  -----------------
         C           -1.562668219651     0.828001115027    -0.316618639309    12.000000000000
         C           -2.786668219651     0.862001115027     0.600381360691    12.000000000000
         H           -1.348668219651    -0.195998884973    -0.620618639309     1.007825032230
         H           -1.751668219651     1.438001115027    -1.201618639309     1.007825032230
         H           -0.688668219651     1.239001115027     0.185381360691     1.007825032230
         H           -2.900668219651     1.874001115027     0.990381360691     1.007825032230
         H           -2.663268219651     0.154416115027     1.433501360691     1.007825032230
         H           -3.684338219651     0.599462115027     0.021361360691     1.007825032230
         C            2.131331780349    -0.152998884973    -0.450618639309    12.000000000000
         C            2.220331780349    -1.539998884973     0.171381360691    12.000000000000
         H            3.106331780349     0.152001115027    -0.832618639309     1.007825032230
         H            1.418331780349    -0.168998884973    -1.274618639309     1.007825032230
         H            1.788331780349     0.567001115027     0.292381360691     1.007825032230
         H            1.220331780349    -1.842998884973     0.472381360691     1.007825032230
         H            2.884621780349    -1.514917884973     1.047791360691     1.007825032230
         H            2.591621780349    -2.265301884973    -0.567588639309     1.007825032230

  Running in c1 symmetry.

  Rotational constants: A =      0.47063  B =      0.04722  C =      0.04479 [cm^-1]
  Rotational constants: A =  14109.25827  B =   1415.70090  C =   1342.67071 [MHz]
  Nuclear repulsion =  121.433169614016549

  Charge       = 0
  Multiplicity = 1
  Electrons    = 36
  Nalpha       = 18
  Nbeta        = 18

  ==> Algorithm <==

  SCF Algorithm Type is PK.
  DIIS enabled.
  MOM disabled.
  Fractional occupation disabled.
  Guess Type is SAD.
  Energy threshold   = 1.00e-06
  Density threshold  = 1.00e-10
  Integral threshold = 0.00e+00

  ==> Primary Basis <==

  Basis Set: CC-PVDZ
    Blend: CC-PVDZ
    Number of shells: 60
    Number of basis function: 116
    Number of Cartesian functions: 120
    Spherical Harmonics?: true
    Max angular momentum: 2

  ==> Pre-Iterations <==

   -------------------------------------------------------
    Irrep   Nso     Nmo     Nalpha   Nbeta   Ndocc  Nsocc
   -------------------------------------------------------
     A        116     116       0       0       0       0
   -------------------------------------------------------
    Total     116     116      18      18      18       0
   -------------------------------------------------------

  ==> Integral Setup <==

  Using integral reordering PK algorithm.
  Sizing the integral batches needed.
  Building batch lookup table.
   Calculation information:
      Number of atoms:                  16
      Number of AO shells:              60
      Number of primitives:            148
      Number of atomic orbitals:       120
      Number of basis functions:       116

      Integral cutoff                 1.00e-12
      Number of threads:                 1

	Batch   1 pq = [       0,    6786] index = [             0,23028291] size =     23028291
  Task number: 3
  Buffer size: 11059200
  Buffer per thread: 2
  We computed 1406459 shell quartets total.
  Whereas there are 1675365 unique shell quartets.

  ==> DiskJK: Disk-Based J/K Matrices <==

    J tasked:                  Yes
    K tasked:                  Yes
    wK tasked:                  No
    Memory [MiB]:              375
    Schwarz Cutoff:          1E-12

    OpenMP threads:              1

  Minimum eigenvalue in the overlap matrix is 7.2652482678E-03.
  Using Symmetric Orthogonalization.

  SCF Guess: Superposition of Atomic Densities via on-the-fly atomic UHF.

  ==> Iterations <==

                        Total Energy        Delta E     RMS |[F,P]|

   @RHF iter SAD:  -157.35028219573039   -1.57350e+02   0.00000e+00
   @RHF iter   1:  -158.30737332213474   -9.57091e-01   4.22613e-03 DIIS
   @RHF iter   2:  -158.44129970671827   -1.33926e-01   1.80771e-03 DIIS
   @RHF iter   3:  -158.46497687218729   -2.36772e-02   3.50005e-04 DIIS
   @RHF iter   4:  -158.46680950609723   -1.83263e-03   3.86399e-05 DIIS
   @RHF iter   5:  -158.46683295351053   -2.34474e-05   6.43383e-06 DIIS
   @RHF iter   6:  -158.46683357543793   -6.21927e-07   9.35192e-07 DIIS
   @RHF iter   7:  -158.46683358456582   -9.12789e-09   2.95299e-07 DIIS
   @RHF iter   8:  -158.46683358529202   -7.26203e-10   3.71740e-08 DIIS
   @RHF iter   9:  -158.46683358531294   -2.09184e-11   6.64641e-09 DIIS
   @RHF iter  10:  -158.46683358531405   -1.10845e-12   1.82614e-09 DIIS
   @RHF iter  11:  -158.46683358531436   -3.12639e-13   5.22593e-10 DIIS
   @RHF iter  12:  -158.46683358531416    1.98952e-13   1.32099e-10 DIIS
   @RHF iter  13:  -158.46683358531359    5.68434e-13   2.09279e-11 DIIS
  Energy and wave function converged.

  ==> Post-Iterations <==

    Orbital Energies [Eh]
    ---------------------

    Doubly Occupied:

       1A    -11.219786     2A    -11.218271     3A    -11.216666
       4A    -11.215402     5A     -1.020068     6A     -1.017677
       7A     -0.838015     8A     -0.833682     9A     -0.602179
      10A     -0.600202    11A     -0.597767    12A     -0.594212
      13A     -0.502919    14A     -0.497261    15A     -0.488652
      16A     -0.487289    17A     -0.484278    18A     -0.480741

    Virtual:

      19A      0.169067    20A      0.197943    21A      0.224216
      22A      0.230248    23A      0.242515    24A      0.255516
      25A      0.265038    26A      0.274671    27A      0.281000
      28A      0.289353    29A      0.312057    30A      0.346875
      31A      0.395619    32A      0.404829    33A      0.571060
      34A      0.591685    35A      0.596970    36A      0.602981
      37A      0.611741    38A      0.627690    39A      0.669391
      40A      0.684300    41A      0.684735    42A      0.779823
      43A      0.847493    44A      0.860775    45A      0.886236
      46A      0.889159    47A      0.891644    48A      0.897669
      49A      0.902253    50A      0.905697    51A      0.910316
      52A      0.916511    53A      0.930780    54A      0.962072
      55A      0.974316    56A      0.984815    57A      1.122353
      58A      1.127925    59A      1.128104    60A      1.146815
      61A      1.224513    62A      1.253467    63A      1.473252
      64A      1.476481    65A      1.480170    66A      1.491548
      67A      1.556487    68A      1.580217    69A      1.678843
      70A      1.680582    71A      1.692983    72A      1.701555
      73A      1.850876    74A      1.855824    75A      1.863120
      76A      1.881220    77A      1.900582    78A      1.916816
      79A      1.936238    80A      1.942618    81A      1.943688
      82A      1.945002    83A      1.951344    84A      1.958452
      85A      1.962739    86A      1.964387    87A      1.973621
      88A      2.022783    89A      2.100922    90A      2.113239
      91A      2.117393    92A      2.119321    93A      2.290287
      94A      2.299106    95A      2.314824    96A      2.318213
      97A      2.447107    98A      2.451947    99A      2.461442
     100A      2.474853   101A      2.563710   102A      2.567313
     103A      2.573007   104A      2.576981   105A      2.759272
     106A      2.762897   107A      2.789625   108A      2.796031
     109A      2.843462   110A      2.845873   111A      2.853674
     112A      2.856579   113A      2.940476   114A      2.950730
     115A      2.961028   116A      2.975580

    Final Occupation by Irrep:
              A
    DOCC [    18 ]

  @RHF Final Energy:  -158.46683358531359

   => Energetics <=

    Nuclear Repulsion Energy =            121.4331696140165491
    One-Electron Energy =                -451.9698705467806121
    Two-Electron Energy =                 172.0698673474504687
    Total Energy =                       -158.4668335853135943

Computation Completed

Properties will be evaluated at   0.000000,   0.000000,   0.000000 [a0]

Properties computed using the SCF density matrix

  Nuclear Dipole Moment: [e a0]
     X:    -0.0260      Y:     0.0334      Z:    -0.0505

  Electronic Dipole Moment: [e a0]
     X:     0.0216      Y:    -0.0180      Z:     0.0401

  Dipole Moment: [e a0]
     X:    -0.0044      Y:     0.0154      Z:    -0.0104     Total:     0.0191

  Dipole Moment: [D]
     X:    -0.0112      Y:     0.0393      Z:    -0.0265     Total:     0.0487

*** tstop() called on ds3 at Mon Apr 27 23:41:26 2020
Module time:
	user time   =      12.91 seconds =       0.22 minutes
	system time =       4.01 seconds =       0.07 minutes
	total time  =         17 seconds =       0.28 minutes
Total time:
	user time   =      12.91 seconds =       0.22 minutes
	system time =       4.01 seconds =       0.07 minutes
	total time  =         17 seconds =       0.28 minutes
                                     G D M A

                                 by Anthony Stone

                           version 2.2.06, 22 June 2011

               Distributed Multipoles from Gaussian wavefunctions

Starting at 23:41:26 on 27 Apr 2020

Using SCF density matrix from file ./SSI/SSI-143VAL-147LEU-1-dimer.test.3696.fchk

                         Distributed Multipole Analysis

Standard DMA

Positions and radii in angstrom
Multipole moments in atomic units, ea_0^k for rank k

C          x = -1.562668  y =  0.828001  z = -0.316619 angstrom
           Maximum rank =  0   Radius =  0.650 angstrom
                   Q00  =  -0.234113

C          x = -2.786668  y =  0.862001  z =  0.600381 angstrom
           Maximum rank =  0   Radius =  0.650 angstrom
                   Q00  =  -0.239606

H          x = -1.348668  y = -0.195999  z = -0.620619 angstrom
           Maximum rank =  0   Radius =  0.325 angstrom
                   Q00  =   0.078019

H          x = -1.751668  y =  1.438001  z = -1.201619 angstrom
           Maximum rank =  0   Radius =  0.325 angstrom
                   Q00  =   0.078496

H          x = -0.688668  y =  1.239001  z =  0.185381 angstrom
           Maximum rank =  0   Radius =  0.325 angstrom
                   Q00  =   0.080529

H          x = -2.900668  y =  1.874001  z =  0.990381 angstrom
           Maximum rank =  0   Radius =  0.325 angstrom
                   Q00  =   0.079479

H          x = -2.663268  y =  0.154416  z =  1.433501 angstrom
           Maximum rank =  0   Radius =  0.325 angstrom
                   Q00  =   0.079265

H          x = -3.684338  y =  0.599462  z =  0.021361 angstrom
           Maximum rank =  0   Radius =  0.325 angstrom
                   Q00  =   0.078535

C          x =  2.131332  y = -0.152999  z = -0.450619 angstrom
           Maximum rank =  0   Radius =  0.650 angstrom
                   Q00  =  -0.232175

C          x =  2.220332  y = -1.539999  z =  0.171381 angstrom
           Maximum rank =  0   Radius =  0.650 angstrom
                   Q00  =  -0.237336

H          x =  3.106332  y =  0.152001  z = -0.832619 angstrom
           Maximum rank =  0   Radius =  0.325 angstrom
                   Q00  =   0.077308

H          x =  1.418332  y = -0.168999  z = -1.274619 angstrom
           Maximum rank =  0   Radius =  0.325 angstrom
                   Q00  =   0.079647

H          x =  1.788332  y =  0.567001  z =  0.292381 angstrom
           Maximum rank =  0   Radius =  0.325 angstrom
                   Q00  =   0.078715

H          x =  1.220332  y = -1.842999  z =  0.472381 angstrom
           Maximum rank =  0   Radius =  0.325 angstrom
                   Q00  =   0.077386

H          x =  2.884622  y = -1.514918  z =  1.047791 angstrom
           Maximum rank =  0   Radius =  0.325 angstrom
                   Q00  =   0.078048

H          x =  2.591622  y = -2.265302  z = -0.567589 angstrom
           Maximum rank =  0   Radius =  0.325 angstrom
                   Q00  =   0.077805

Total multipoles referred to origin at
           x =   0.000000,  y =    0.000000,  z =    0.000000 angstrom
                   Q00  =  -0.000000

Finished at 23:41:26 on 27 Apr 2020

  DMA results are available in the Python driver through the
	  variable('DMA DISTRIBUTED MULTIPOLES')
  and
	  variable('DMA TOTAL MULTIPOLES')
  commands.

    Psi4 stopped on: Monday, 27 April 2020 11:41PM
    Psi4 wall time for execution: 0:00:16.77

*** Psi4 exiting successfully. Buy a developer a beer!
