                               Psi4 1.3.2 release

  ==> Input File <==

--------------------------------------------------------------------------
import numpy as np
set {scf_type pk
basis cc-pvdz
d_convergence 10
gdma_switch   0
gdma_limit    0
gdma_origin   [ 0.0,  0.0,  0.0 ]
}
molecule test {
    units Angstrom
    0 1
    --
    0 1
    C               -0.138943246725871     1.373170665600578     0.995699810853192
    C               -1.570943246725871     0.201170665600578    -1.027300189146808
    S               -0.792943246725871     1.790170665600578    -0.616300189146808
    H                0.604056753274129     0.584170665600578     0.902699810853192
    H                0.350056753274129     2.253170665600578     1.414699810853192
    H               -0.932943246725871     1.066170665600578     1.674699810853192
    H               -0.813943246725871    -0.583829334399422    -1.035300189146808
    H               -1.973943246725871     0.277170665600578    -2.033300189146809
    H               -2.368663246725871    -0.071859334399422    -0.320831189146808
    C                1.586056753274129    -1.977829334399422     0.284699810853192
    C                1.813056753274129    -3.329829334399422     1.008699810853192
    H                1.559056753274129    -2.120829334399422    -0.796300189146808
    H                0.628056753274129    -1.569829334399422     0.605699810853192
    H                2.366056753274129    -1.258829334399422     0.536699810853192
    H                1.974056753274129    -3.137829334399422     2.068699810853192
    H                2.715766753274129    -3.790149334399422     0.580648810853192
    H                0.934246753274129    -3.986629334399422     0.929259810853192

}
e, wfn = energy('scf', return_wfn=True)
gdma(wfn)
dmavals = variable('DMA DISTRIBUTED MULTIPOLES')
charges = np.array(dmavals)
print(charges)
np.save('SSI-141MET-155ILE-1-dimer.npy', np.array(charges))--------------------------------------------------------------------------

*** tstart() called on ds3
*** at Mon Apr 27 20:33:49 2020

   => Loading Basis Set <=

    Name: CC-PVDZ
    Role: ORBITAL
    Keyword: BASIS
    atoms 1-2, 10-11 entry C          line   138 file /theoryfs2/ds/metcalf/miniconda2/envs/tf2gpu/share/psi4/basis/cc-pvdz.gbs
    atoms 3          entry S          line   598 file /theoryfs2/ds/metcalf/miniconda2/envs/tf2gpu/share/psi4/basis/cc-pvdz.gbs
    atoms 4-9, 12-17 entry H          line    22 file /theoryfs2/ds/metcalf/miniconda2/envs/tf2gpu/share/psi4/basis/cc-pvdz.gbs

         ---------------------------------------------------------
                                   SCF
               by Justin Turney, Rob Parrish, Andy Simmonett
                          and Daniel G. A. Smith
                              RHF Reference
                        1 Threads,    500 MiB Core
         ---------------------------------------------------------

  ==> Geometry <==

    Molecular point group: c1
    Full point group: C1

    Geometry (in Angstrom), charge = 0, multiplicity = 1:

       Center              X                  Y                   Z               Mass
    ------------   -----------------  -----------------  -----------------  -----------------
         C           -0.138943246726     1.373170665601     0.995699810853    12.000000000000
         C           -1.570943246726     0.201170665601    -1.027300189147    12.000000000000
         S           -0.792943246726     1.790170665601    -0.616300189147    31.972071174400
         H            0.604056753274     0.584170665601     0.902699810853     1.007825032230
         H            0.350056753274     2.253170665601     1.414699810853     1.007825032230
         H           -0.932943246726     1.066170665601     1.674699810853     1.007825032230
         H           -0.813943246726    -0.583829334399    -1.035300189147     1.007825032230
         H           -1.973943246726     0.277170665601    -2.033300189147     1.007825032230
         H           -2.368663246726    -0.071859334399    -0.320831189147     1.007825032230
         C            1.586056753274    -1.977829334399     0.284699810853    12.000000000000
         C            1.813056753274    -3.329829334399     1.008699810853    12.000000000000
         H            1.559056753274    -2.120829334399    -0.796300189147     1.007825032230
         H            0.628056753274    -1.569829334399     0.605699810853     1.007825032230
         H            2.366056753274    -1.258829334399     0.536699810853     1.007825032230
         H            1.974056753274    -3.137829334399     2.068699810853     1.007825032230
         H            2.715766753274    -3.790149334399     0.580648810853     1.007825032230
         H            0.934246753274    -3.986629334399     0.929259810853     1.007825032230

  Running in c1 symmetry.

  Rotational constants: A =      0.20029  B =      0.03272  C =      0.02993 [cm^-1]
  Rotational constants: A =   6004.60092  B =    980.85684  C =    897.38905 [MHz]
  Nuclear repulsion =  221.463734594829077

  Charge       = 0
  Multiplicity = 1
  Electrons    = 52
  Nalpha       = 26
  Nbeta        = 26

  ==> Algorithm <==

  SCF Algorithm Type is PK.
  DIIS enabled.
  MOM disabled.
  Fractional occupation disabled.
  Guess Type is SAD.
  Energy threshold   = 1.00e-06
  Density threshold  = 1.00e-10
  Integral threshold = 0.00e+00

  ==> Primary Basis <==

  Basis Set: CC-PVDZ
    Blend: CC-PVDZ
    Number of shells: 68
    Number of basis function: 134
    Number of Cartesian functions: 139
    Spherical Harmonics?: true
    Max angular momentum: 2

  ==> Pre-Iterations <==

   -------------------------------------------------------
    Irrep   Nso     Nmo     Nalpha   Nbeta   Ndocc  Nsocc
   -------------------------------------------------------
     A        134     134       0       0       0       0
   -------------------------------------------------------
    Total     134     134      26      26      26       0
   -------------------------------------------------------

  ==> Integral Setup <==

  Using integral reordering PK algorithm.
  Sizing the integral batches needed.
  Building batch lookup table.
   Calculation information:
      Number of atoms:                  17
      Number of AO shells:              68
      Number of primitives:            198
      Number of atomic orbitals:       139
      Number of basis functions:       134

      Integral cutoff                 1.00e-12
      Number of threads:                 1

	Batch   1 pq = [       0,    9045] index = [             0,40910535] size =     40910535
  Task number: 4
  Buffer size: 11059200
  Buffer per thread: 2
  We computed 2297584 shell quartets total.
  Whereas there are 2753031 unique shell quartets.

  ==> DiskJK: Disk-Based J/K Matrices <==

    J tasked:                  Yes
    K tasked:                  Yes
    wK tasked:                  No
    Memory [MiB]:              375
    Schwarz Cutoff:          1E-12

    OpenMP threads:              1

  Minimum eigenvalue in the overlap matrix is 6.9709807904E-03.
  Using Symmetric Orthogonalization.

  SCF Guess: Superposition of Atomic Densities via on-the-fly atomic UHF.

  ==> Iterations <==

                        Total Energy        Delta E     RMS |[F,P]|

   @RHF iter SAD:  -554.88465920548128   -5.54885e+02   0.00000e+00
   @RHF iter   1:  -555.84789501916748   -9.63236e-01   3.33054e-03 DIIS
   @RHF iter   2:  -555.96904371445521   -1.21149e-01   1.30303e-03 DIIS
   @RHF iter   3:  -555.98631577751564   -1.72721e-02   3.13803e-04 DIIS
   @RHF iter   4:  -555.98816531254863   -1.84954e-03   4.79192e-05 DIIS
   @RHF iter   5:  -555.98820438076871   -3.90682e-05   1.13254e-05 DIIS
   @RHF iter   6:  -555.98820655492659   -2.17416e-06   2.78500e-06 DIIS
   @RHF iter   7:  -555.98820668444432   -1.29518e-07   7.13697e-07 DIIS
   @RHF iter   8:  -555.98820669349766   -9.05334e-09   1.74438e-07 DIIS
   @RHF iter   9:  -555.98820669426289   -7.65226e-10   5.00404e-08 DIIS
   @RHF iter  10:  -555.98820669432462   -6.17320e-11   1.37980e-08 DIIS
   @RHF iter  11:  -555.98820669432951   -4.88853e-12   3.33467e-09 DIIS
   @RHF iter  12:  -555.98820669432837    1.13687e-12   1.09656e-09 DIIS
   @RHF iter  13:  -555.98820669433110   -2.72848e-12   2.69032e-10 DIIS
   @RHF iter  14:  -555.98820669433076    3.41061e-13   6.97326e-11 DIIS
  Energy and wave function converged.

  ==> Post-Iterations <==

    Orbital Energies [Eh]
    ---------------------

    Doubly Occupied:

       1A    -91.934683     2A    -11.254965     3A    -11.251070
       4A    -11.226058     5A    -11.224582     6A     -8.938324
       7A     -6.620389     8A     -6.618817     9A     -6.616537
      10A     -1.060868    11A     -1.019196    12A     -0.949274
      13A     -0.845083    14A     -0.804149    15A     -0.610061
      16A     -0.601082    17A     -0.599877    18A     -0.594869
      19A     -0.572342    20A     -0.560252    21A     -0.504474
      22A     -0.492407    23A     -0.491907    24A     -0.490482
      25A     -0.427874    26A     -0.330452

    Virtual:

      27A      0.170386    28A      0.185247    29A      0.195440
      30A      0.220053    31A      0.236147    32A      0.242180
      33A      0.254436    34A      0.256724    35A      0.270188
      36A      0.281083    37A      0.286850    38A      0.291473
      39A      0.315032    40A      0.318577    41A      0.394409
      42A      0.529066    43A      0.564655    44A      0.585391
      45A      0.589987    46A      0.594983    47A      0.621153
      48A      0.631763    49A      0.655559    50A      0.695208
      51A      0.720860    52A      0.723198    53A      0.739088
      54A      0.786494    55A      0.808091    56A      0.813168
      57A      0.836897    58A      0.860132    59A      0.871905
      60A      0.876173    61A      0.884841    62A      0.886910
      63A      0.890550    64A      0.898652    65A      0.908307
      66A      0.914527    67A      0.919230    68A      0.923759
      69A      0.936233    70A      0.978065    71A      0.993499
      72A      1.029270    73A      1.121316    74A      1.179157
      75A      1.225345    76A      1.248911    77A      1.265519
      78A      1.302465    79A      1.315739    80A      1.362786
      81A      1.402836    82A      1.458628    83A      1.469063
      84A      1.481288    85A      1.489015    86A      1.571128
      87A      1.665289    88A      1.675340    89A      1.678984
      90A      1.696528    91A      1.862202    92A      1.867612
      93A      1.875127    94A      1.885392    95A      1.898634
      96A      1.902549    97A      1.919414    98A      1.926418
      99A      1.933447   100A      1.944260   101A      1.950500
     102A      1.969369   103A      1.984559   104A      1.994453
     105A      2.000407   106A      2.023849   107A      2.034166
     108A      2.065386   109A      2.090151   110A      2.128816
     111A      2.225459   112A      2.245631   113A      2.296713
     114A      2.300387   115A      2.401977   116A      2.427636
     117A      2.443240   118A      2.447444   119A      2.464412
     120A      2.477477   121A      2.544717   122A      2.581955
     123A      2.732206   124A      2.756508   125A      2.760188
     126A      2.775720   127A      2.792688   128A      2.795588
     129A      2.820881   130A      2.824982   131A      2.843227
     132A      2.853800   133A      2.938618   134A      2.971396

    Final Occupation by Irrep:
              A
    DOCC [    26 ]

  @RHF Final Energy:  -555.98820669433076

   => Energetics <=

    Nuclear Repulsion Energy =            221.4637345948290772
    One-Electron Energy =               -1201.6237375023579261
    Two-Electron Energy =                 424.1717962131980926
    Total Energy =                       -555.9882066943307564

Computation Completed

Properties will be evaluated at   0.000000,   0.000000,   0.000000 [a0]

Properties computed using the SCF density matrix

  Nuclear Dipole Moment: [e a0]
     X:     4.7057      Y:   -11.5203      Z:     4.2280

  Electronic Dipole Moment: [e a0]
     X:    -4.6828      Y:    10.9188      Z:    -3.8829

  Dipole Moment: [e a0]
     X:     0.0228      Y:    -0.6015      Z:     0.3451     Total:     0.6938

  Dipole Moment: [D]
     X:     0.0581      Y:    -1.5287      Z:     0.8772     Total:     1.7635

*** tstop() called on ds3 at Mon Apr 27 20:34:10 2020
Module time:
	user time   =      16.33 seconds =       0.27 minutes
	system time =       5.21 seconds =       0.09 minutes
	total time  =         21 seconds =       0.35 minutes
Total time:
	user time   =      16.33 seconds =       0.27 minutes
	system time =       5.21 seconds =       0.09 minutes
	total time  =         21 seconds =       0.35 minutes
                                     G D M A

                                 by Anthony Stone

                           version 2.2.06, 22 June 2011

               Distributed Multipoles from Gaussian wavefunctions

Starting at 20:34:10 on 27 Apr 2020

Using SCF density matrix from file ./SSI/SSI-141MET-155ILE-1-dimer.test.15383.fchk

                         Distributed Multipole Analysis

Standard DMA

Positions and radii in angstrom
Multipole moments in atomic units, ea_0^k for rank k

C          x = -0.138943  y =  1.373171  z =  0.995700 angstrom
           Maximum rank =  0   Radius =  0.650 angstrom
                   Q00  =  -0.360970

C          x = -1.570943  y =  0.201171  z = -1.027300 angstrom
           Maximum rank =  0   Radius =  0.650 angstrom
                   Q00  =  -0.365150

S          x = -0.792943  y =  1.790171  z = -0.616300 angstrom
           Maximum rank =  0   Radius =  0.650 angstrom
                   Q00  =   0.128898

H          x =  0.604057  y =  0.584171  z =  0.902700 angstrom
           Maximum rank =  0   Radius =  0.325 angstrom
                   Q00  =   0.093408

H          x =  0.350057  y =  2.253171  z =  1.414700 angstrom
           Maximum rank =  0   Radius =  0.325 angstrom
                   Q00  =   0.117946

H          x = -0.932943  y =  1.066171  z =  1.674700 angstrom
           Maximum rank =  0   Radius =  0.325 angstrom
                   Q00  =   0.084644

H          x = -0.813943  y = -0.583829  z = -1.035300 angstrom
           Maximum rank =  0   Radius =  0.325 angstrom
                   Q00  =   0.090038

H          x = -1.973943  y =  0.277171  z = -2.033300 angstrom
           Maximum rank =  0   Radius =  0.325 angstrom
                   Q00  =   0.120456

H          x = -2.368663  y = -0.071859  z = -0.320831 angstrom
           Maximum rank =  0   Radius =  0.325 angstrom
                   Q00  =   0.088720

C          x =  1.586057  y = -1.977829  z =  0.284700 angstrom
           Maximum rank =  0   Radius =  0.650 angstrom
                   Q00  =  -0.252771

C          x =  1.813057  y = -3.329829  z =  1.008700 angstrom
           Maximum rank =  0   Radius =  0.650 angstrom
                   Q00  =  -0.233187

H          x =  1.559057  y = -2.120829  z = -0.796300 angstrom
           Maximum rank =  0   Radius =  0.325 angstrom
                   Q00  =   0.083871

H          x =  0.628057  y = -1.569829  z =  0.605700 angstrom
           Maximum rank =  0   Radius =  0.325 angstrom
                   Q00  =   0.073617

H          x =  2.366057  y = -1.258829  z =  0.536700 angstrom
           Maximum rank =  0   Radius =  0.325 angstrom
                   Q00  =   0.084088

H          x =  1.974057  y = -3.137829  z =  2.068700 angstrom
           Maximum rank =  0   Radius =  0.325 angstrom
                   Q00  =   0.081073

H          x =  2.715767  y = -3.790149  z =  0.580649 angstrom
           Maximum rank =  0   Radius =  0.325 angstrom
                   Q00  =   0.081662

H          x =  0.934247  y = -3.986629  z =  0.929260 angstrom
           Maximum rank =  0   Radius =  0.325 angstrom
                   Q00  =   0.083657

Total multipoles referred to origin at
           x =   0.000000,  y =    0.000000,  z =    0.000000 angstrom
                   Q00  =  -0.000000

Finished at 20:34:10 on 27 Apr 2020

  DMA results are available in the Python driver through the
	  variable('DMA DISTRIBUTED MULTIPOLES')
  and
	  variable('DMA TOTAL MULTIPOLES')
  commands.

    Psi4 stopped on: Monday, 27 April 2020 08:34PM
    Psi4 wall time for execution: 0:00:21.70

*** Psi4 exiting successfully. Buy a developer a beer!
