                               Psi4 1.3.2 release

  ==> Input File <==

--------------------------------------------------------------------------
import numpy as np
set {scf_type pk
basis cc-pvdz
d_convergence 10
gdma_switch   0
gdma_limit    0
gdma_origin   [ 0.0,  0.0,  0.0 ]
}
molecule test {
    units Angstrom
    -1 1
    --
    -1 1
    C                1.147091658416751    -1.767553621141671     2.162528576144481
    C                1.840091658416751    -2.554553621141671     3.269528576144481
    H                1.833091658416752    -1.604553621141671     1.329528576144481
    H                0.276091658416751    -2.318553621141671     1.804528576144481
    H                0.815091658416751    -0.802553621141671     2.548528576144481
    H                1.122091658416752    -2.725553621141671     4.074528576144480
    H                2.700771658416752    -1.990584621141671     3.658342576144481
    H                2.186191658416751    -3.525644621141670     2.885860576144481
    C               -0.433908341583249     0.323446378858329    -0.221471423855519
    C               -1.533908341583248     0.952446378858329     0.642528576144481
    C               -0.377908341583249     0.900446378858329    -1.626471423855519
    O               -1.443908341583249     1.221446378858329    -2.191471423855520
    O                0.739091658416752     1.016446378858329    -2.172471423855519
    H                0.525091658416751     0.486446378858329     0.273528576144481
    H               -0.601908341583249    -0.752553621141671    -0.281471423855519
    H               -1.377908341583248     0.568446378858329     1.650528576144481
    H               -2.525408341583249     0.655222378858329     0.270248276144481
    H               -1.404978341583249     2.042193378858329     0.718875676144481

}
e, wfn = energy('scf', return_wfn=True)
gdma(wfn)
dmavals = variable('DMA DISTRIBUTED MULTIPOLES')
charges = np.array(dmavals)
print(charges)
np.save('SSI-044ALA-052ASP-1-dimer.npy', np.array(charges))--------------------------------------------------------------------------

*** tstart() called on ds3
*** at Mon Apr 27 19:42:19 2020

   => Loading Basis Set <=

    Name: CC-PVDZ
    Role: ORBITAL
    Keyword: BASIS
    atoms 1-2, 9-11  entry C          line   138 file /theoryfs2/ds/metcalf/miniconda2/envs/tf2gpu/share/psi4/basis/cc-pvdz.gbs
    atoms 3-8, 14-18 entry H          line    22 file /theoryfs2/ds/metcalf/miniconda2/envs/tf2gpu/share/psi4/basis/cc-pvdz.gbs
    atoms 12-13      entry O          line   198 file /theoryfs2/ds/metcalf/miniconda2/envs/tf2gpu/share/psi4/basis/cc-pvdz.gbs

         ---------------------------------------------------------
                                   SCF
               by Justin Turney, Rob Parrish, Andy Simmonett
                          and Daniel G. A. Smith
                              RHF Reference
                        1 Threads,    500 MiB Core
         ---------------------------------------------------------

  ==> Geometry <==

    Molecular point group: c1
    Full point group: C1

    Geometry (in Angstrom), charge = -1, multiplicity = 1:

       Center              X                  Y                   Z               Mass
    ------------   -----------------  -----------------  -----------------  -----------------
         C            1.147091658417    -1.767553621142     2.162528576144    12.000000000000
         C            1.840091658417    -2.554553621142     3.269528576144    12.000000000000
         H            1.833091658417    -1.604553621142     1.329528576144     1.007825032230
         H            0.276091658417    -2.318553621142     1.804528576144     1.007825032230
         H            0.815091658417    -0.802553621142     2.548528576144     1.007825032230
         H            1.122091658417    -2.725553621142     4.074528576144     1.007825032230
         H            2.700771658417    -1.990584621142     3.658342576144     1.007825032230
         H            2.186191658417    -3.525644621142     2.885860576144     1.007825032230
         C           -0.433908341583     0.323446378858    -0.221471423856    12.000000000000
         C           -1.533908341583     0.952446378858     0.642528576144    12.000000000000
         C           -0.377908341583     0.900446378858    -1.626471423856    12.000000000000
         O           -1.443908341583     1.221446378858    -2.191471423856    15.994914619570
         O            0.739091658417     1.016446378858    -2.172471423856    15.994914619570
         H            0.525091658417     0.486446378858     0.273528576144     1.007825032230
         H           -0.601908341583    -0.752553621142    -0.281471423856     1.007825032230
         H           -1.377908341583     0.568446378858     1.650528576144     1.007825032230
         H           -2.525408341583     0.655222378858     0.270248276144     1.007825032230
         H           -1.404978341583     2.042193378858     0.718875676144     1.007825032230

  Running in c1 symmetry.

  Rotational constants: A =      0.14764  B =      0.02397  C =      0.02135 [cm^-1]
  Rotational constants: A =   4426.26822  B =    718.71706  C =    640.05834 [MHz]
  Nuclear repulsion =  283.660465840691359

  Charge       = -1
  Multiplicity = 1
  Electrons    = 58
  Nalpha       = 29
  Nbeta        = 29

  ==> Algorithm <==

  SCF Algorithm Type is PK.
  DIIS enabled.
  MOM disabled.
  Fractional occupation disabled.
  Guess Type is SAD.
  Energy threshold   = 1.00e-06
  Density threshold  = 1.00e-10
  Integral threshold = 0.00e+00

  ==> Primary Basis <==

  Basis Set: CC-PVDZ
    Blend: CC-PVDZ
    Number of shells: 75
    Number of basis function: 153
    Number of Cartesian functions: 160
    Spherical Harmonics?: true
    Max angular momentum: 2

  ==> Pre-Iterations <==

   -------------------------------------------------------
    Irrep   Nso     Nmo     Nalpha   Nbeta   Ndocc  Nsocc
   -------------------------------------------------------
     A        153     153       0       0       0       0
   -------------------------------------------------------
    Total     153     153      29      29      29       0
   -------------------------------------------------------

  ==> Integral Setup <==

  Using integral reordering PK algorithm.
  Sizing the integral batches needed.
  Building batch lookup table.
   Calculation information:
      Number of atoms:                  18
      Number of AO shells:              75
      Number of primitives:            209
      Number of atomic orbitals:       160
      Number of basis functions:       153

      Integral cutoff                 1.00e-12
      Number of threads:                 1

	Batch   1 pq = [       0,    9405] index = [             0,44231715] size =     44231715
	Batch   2 pq = [    9405,   11781] index = [      44231715,69401871] size =     25170156
  Task number: 7
  Buffer size: 11059200
  Buffer per thread: 2
  We computed 3237216 shell quartets total.
  Whereas there are 4062675 unique shell quartets.

  ==> DiskJK: Disk-Based J/K Matrices <==

    J tasked:                  Yes
    K tasked:                  Yes
    wK tasked:                  No
    Memory [MiB]:              375
    Schwarz Cutoff:          1E-12

    OpenMP threads:              1

  Minimum eigenvalue in the overlap matrix is 3.6054491302E-03.
  Using Symmetric Orthogonalization.

  SCF Guess: Superposition of Atomic Densities via on-the-fly atomic UHF.

  ==> Iterations <==

                        Total Energy        Delta E     RMS |[F,P]|

   @RHF iter SAD:  -343.87094945644623   -3.43871e+02   0.00000e+00
   @RHF iter   1:  -345.21872449221308   -1.34778e+00   4.90868e-03 DIIS
   @RHF iter   2:  -345.44116622519920   -2.22442e-01   2.69373e-03 DIIS
   @RHF iter   3:  -345.50500812846201   -6.38419e-02   4.22423e-04 DIIS
   @RHF iter   4:  -345.50799207239174   -2.98394e-03   1.66294e-04 DIIS
   @RHF iter   5:  -345.50842254986134   -4.30477e-04   2.40701e-05 DIIS
   @RHF iter   6:  -345.50843551388783   -1.29640e-05   5.52143e-06 DIIS
   @RHF iter   7:  -345.50843610424170   -5.90354e-07   2.25479e-06 DIIS
   @RHF iter   8:  -345.50843617487249   -7.06308e-08   7.02985e-07 DIIS
   @RHF iter   9:  -345.50843618372028   -8.84779e-09   2.65237e-07 DIIS
   @RHF iter  10:  -345.50843618523407   -1.51380e-09   6.32614e-08 DIIS
   @RHF iter  11:  -345.50843618538227   -1.48191e-10   2.05601e-08 DIIS
   @RHF iter  12:  -345.50843618539750   -1.52340e-11   7.41728e-09 DIIS
   @RHF iter  13:  -345.50843618539977   -2.27374e-12   2.58530e-09 DIIS
   @RHF iter  14:  -345.50843618540029   -5.11591e-13   7.01797e-10 DIIS
   @RHF iter  15:  -345.50843618539966    6.25278e-13   2.51876e-10 DIIS
   @RHF iter  16:  -345.50843618540040   -7.38964e-13   7.98530e-11 DIIS
  Energy and wave function converged.

  ==> Post-Iterations <==

    Orbital Energies [Eh]
    ---------------------

    Doubly Occupied:

       1A    -20.251584     2A    -20.249004     3A    -11.140043
       4A    -11.124002     5A    -11.104827     6A    -11.072855
       7A    -11.048840     8A     -1.143098     9A     -1.028183
      10A     -0.933556    11A     -0.868043    12A     -0.749215
      13A     -0.698286    14A     -0.514103    15A     -0.512702
      16A     -0.502616    17A     -0.457207    18A     -0.425178
      19A     -0.412342    20A     -0.399433    21A     -0.398778
      22A     -0.380641    23A     -0.362254    24A     -0.354867
      25A     -0.319459    26A     -0.294691    27A     -0.173954
      28A     -0.163403    29A     -0.152795

    Virtual:

      30A      0.265961    31A      0.307270    32A      0.329199
      33A      0.333826    34A      0.354996    35A      0.360987
      36A      0.379227    37A      0.401243    38A      0.417756
      39A      0.426686    40A      0.447440    41A      0.479158
      42A      0.489700    43A      0.554192    44A      0.607096
      45A      0.682359    46A      0.686517    47A      0.691967
      48A      0.711676    49A      0.736300    50A      0.770237
      51A      0.787287    52A      0.797477    53A      0.829179
      54A      0.877973    55A      0.926515    56A      0.962811
      57A      0.969284    58A      0.970696    59A      0.981992
      60A      0.994154    61A      1.006376    62A      1.013371
      63A      1.022731    64A      1.030635    65A      1.047516
      66A      1.052402    67A      1.064582    68A      1.074536
      69A      1.085758    70A      1.106701    71A      1.140707
      72A      1.157825    73A      1.217072    74A      1.229749
      75A      1.243266    76A      1.301110    77A      1.315838
      78A      1.354574    79A      1.398595    80A      1.488465
      81A      1.532959    82A      1.552436    83A      1.563019
      84A      1.569532    85A      1.607886    86A      1.612482
      87A      1.648889    88A      1.666364    89A      1.674993
      90A      1.714276    91A      1.756852    92A      1.786253
      93A      1.793118    94A      1.822149    95A      1.883330
      96A      1.931937    97A      1.952041    98A      1.963684
      99A      1.997025   100A      2.021873   101A      2.030499
     102A      2.032213   103A      2.037146   104A      2.048992
     105A      2.054547   106A      2.079666   107A      2.096036
     108A      2.131289   109A      2.134046   110A      2.151630
     111A      2.181532   112A      2.184081   113A      2.195550
     114A      2.238988   115A      2.249445   116A      2.289938
     117A      2.365707   118A      2.385631   119A      2.393451
     120A      2.448341   121A      2.463057   122A      2.495866
     123A      2.544563   124A      2.549889   125A      2.574682
     126A      2.585995   127A      2.641944   128A      2.646459
     129A      2.660809   130A      2.714869   131A      2.765125
     132A      2.829409   133A      2.841785   134A      2.881875
     135A      2.919935   136A      2.934541   137A      2.935471
     138A      2.979865   139A      3.010797   140A      3.037041
     141A      3.037961   142A      3.075064   143A      3.121867
     144A      3.256619   145A      3.294761   146A      3.313987
     147A      3.372338   148A      3.650056   149A      3.793350
     150A      3.838192   151A      4.064776   152A      4.090472
     153A      4.215456

    Final Occupation by Irrep:
              A
    DOCC [    29 ]

  @RHF Final Energy:  -345.50843618540040

   => Energetics <=

    Nuclear Repulsion Energy =            283.6604658406913586
    One-Electron Energy =               -1043.8658907401686520
    Two-Electron Energy =                 414.6969887140768947
    Total Energy =                       -345.5084361854003987

Computation Completed

Properties will be evaluated at   0.000000,   0.000000,   0.000000 [a0]

Properties computed using the SCF density matrix

  Nuclear Dipole Moment: [e a0]
     X:     3.3230      Y:    -9.3337      Z:    17.7282

  Electronic Dipole Moment: [e a0]
     X:    -2.6436      Y:     7.2063      Z:   -13.7510

  Dipole Moment: [e a0]
     X:     0.6794      Y:    -2.1273      Z:     3.9772     Total:     4.5613

  Dipole Moment: [D]
     X:     1.7268      Y:    -5.4071      Z:    10.1091     Total:    11.5936

*** tstop() called on ds3 at Mon Apr 27 19:42:50 2020
Module time:
	user time   =      21.90 seconds =       0.37 minutes
	system time =       9.96 seconds =       0.17 minutes
	total time  =         31 seconds =       0.52 minutes
Total time:
	user time   =      21.90 seconds =       0.37 minutes
	system time =       9.96 seconds =       0.17 minutes
	total time  =         31 seconds =       0.52 minutes
                                     G D M A

                                 by Anthony Stone

                           version 2.2.06, 22 June 2011

               Distributed Multipoles from Gaussian wavefunctions

Starting at 19:42:50 on 27 Apr 2020

Using SCF density matrix from file ./SSI/SSI-044ALA-052ASP-1-dimer.test.9126.fchk

                         Distributed Multipole Analysis

Standard DMA

Positions and radii in angstrom
Multipole moments in atomic units, ea_0^k for rank k

C          x =  1.147092  y = -1.767554  z =  2.162529 angstrom
           Maximum rank =  0   Radius =  0.650 angstrom
                   Q00  =  -0.215935

C          x =  1.840092  y = -2.554554  z =  3.269529 angstrom
           Maximum rank =  0   Radius =  0.650 angstrom
                   Q00  =  -0.241965

H          x =  1.833092  y = -1.604554  z =  1.329529 angstrom
           Maximum rank =  0   Radius =  0.325 angstrom
                   Q00  =   0.092810

H          x =  0.276092  y = -2.318554  z =  1.804529 angstrom
           Maximum rank =  0   Radius =  0.325 angstrom
                   Q00  =   0.078504

H          x =  0.815092  y = -0.802554  z =  2.548529 angstrom
           Maximum rank =  0   Radius =  0.325 angstrom
                   Q00  =   0.082617

H          x =  1.122092  y = -2.725554  z =  4.074529 angstrom
           Maximum rank =  0   Radius =  0.325 angstrom
                   Q00  =   0.066357

H          x =  2.700772  y = -1.990585  z =  3.658343 angstrom
           Maximum rank =  0   Radius =  0.325 angstrom
                   Q00  =   0.070622

H          x =  2.186192  y = -3.525645  z =  2.885861 angstrom
           Maximum rank =  0   Radius =  0.325 angstrom
                   Q00  =   0.068535

C          x = -0.433908  y =  0.323446  z = -0.221471 angstrom
           Maximum rank =  0   Radius =  0.650 angstrom
                   Q00  =  -0.126135

C          x = -1.533908  y =  0.952446  z =  0.642529 angstrom
           Maximum rank =  0   Radius =  0.650 angstrom
                   Q00  =  -0.224710

C          x = -0.377908  y =  0.900446  z = -1.626471 angstrom
           Maximum rank =  0   Radius =  0.650 angstrom
                   Q00  =   1.033808

O          x = -1.443908  y =  1.221446  z = -2.191471 angstrom
           Maximum rank =  0   Radius =  0.650 angstrom
                   Q00  =  -0.967204

O          x =  0.739092  y =  1.016446  z = -2.172471 angstrom
           Maximum rank =  0   Radius =  0.650 angstrom
                   Q00  =  -0.947697

H          x =  0.525092  y =  0.486446  z =  0.273529 angstrom
           Maximum rank =  0   Radius =  0.325 angstrom
                   Q00  =   0.017349

H          x = -0.601908  y = -0.752554  z = -0.281471 angstrom
           Maximum rank =  0   Radius =  0.325 angstrom
                   Q00  =   0.050818

H          x = -1.377908  y =  0.568446  z =  1.650529 angstrom
           Maximum rank =  0   Radius =  0.325 angstrom
                   Q00  =   0.005983

H          x = -2.525408  y =  0.655222  z =  0.270248 angstrom
           Maximum rank =  0   Radius =  0.325 angstrom
                   Q00  =   0.083896

H          x = -1.404978  y =  2.042193  z =  0.718876 angstrom
           Maximum rank =  0   Radius =  0.325 angstrom
                   Q00  =   0.072347

Total multipoles referred to origin at
           x =   0.000000,  y =    0.000000,  z =    0.000000 angstrom
                   Q00  =  -1.000000

Finished at 19:42:50 on 27 Apr 2020

  DMA results are available in the Python driver through the
	  variable('DMA DISTRIBUTED MULTIPOLES')
  and
	  variable('DMA TOTAL MULTIPOLES')
  commands.

    Psi4 stopped on: Monday, 27 April 2020 07:42PM
    Psi4 wall time for execution: 0:00:31.51

*** Psi4 exiting successfully. Buy a developer a beer!
