                               Psi4 1.3.2 release

  ==> Input File <==

--------------------------------------------------------------------------
import numpy as np
set {scf_type pk
basis cc-pvdz
d_convergence 10
gdma_switch   0
gdma_limit    0
gdma_origin   [ 0.0,  0.0,  0.0 ]
}
molecule test {
    units Angstrom
    0 1
    --
    0 1
    C               -3.788083701285159     0.928234300088274    -0.630865100519238
    C               -2.046083701285159     0.183234300088274     1.040134899480762
    C               -2.594083701285159     1.201234300088274     0.249134899480762
    C               -0.980083701285159     0.444234300088274     1.903134899480762
    C               -2.058083701285159     2.493234300088274     0.348134899480762
    C               -0.449083701285159     1.734234300088274     1.985134899480762
    C               -0.986083701285159     2.761234300088274     1.212134899480762
    O                0.582916298714841     2.021234300088274     2.825134899480763
    H               -2.460083701285159    -0.814765699911726     0.988134899480762
    H               -0.557083701285159    -0.341765699911726     2.508134899480762
    H               -4.320083701285158     1.863234300088274    -0.801865100519238
    H               -4.465083701285159     0.294234300088274    -0.055865100519238
    H               -2.477083701285159     3.296234300088273    -0.242865100519238
    H               -0.584083701285159     3.761234300088273     1.280134899480762
    H                0.932916298714841     2.891234300088274     2.616134899480762
    H               -3.600274701285159     0.434874300088274    -1.595916100519238
    C                0.760916298714841    -3.375765699911726    -3.269865100519238
    C                0.875916298714841    -0.244765699911726    -1.068865100519238
    C                1.862916298714841    -0.602765699911726    -0.145865100519238
    C                0.509916298714841    -1.137765699911726    -2.078865100519238
    C                1.113916298714841    -2.398765699911726    -2.169865100519238
    C                2.475916298714841    -1.855765699911726    -0.233865100519238
    C                2.093916298714841    -2.744765699911726    -1.232865100519238
    O                2.233916298714841     0.287234300088274     0.824134899480762
    H                0.393916298714841     0.714234300088274    -0.980865100519238
    H               -0.231083701285159    -0.827765699911726    -2.791865100519237
    H                3.235916298714841    -2.139765699911726     0.481134899480762
    H                2.910916298714842    -0.066765699911726     1.406134899480762
    H                1.154916298714841    -4.366765699911725    -3.032865100519238
    H                1.295916298714841    -3.028765699911727    -4.155865100519238
    H                2.572916298714841    -3.714765699911726    -1.288865100519238
    H               -0.308578701285159    -3.458205699911726    -3.513556100519237

}
e, wfn = energy('scf', return_wfn=True)
gdma(wfn)
dmavals = variable('DMA DISTRIBUTED MULTIPOLES')
charges = np.array(dmavals)
print(charges)
np.save('SSI-026TYR-069TYR-1-dimer.npy', np.array(charges))--------------------------------------------------------------------------

*** tstart() called on ds3
*** at Mon Apr 27 18:15:47 2020

   => Loading Basis Set <=

    Name: CC-PVDZ
    Role: ORBITAL
    Keyword: BASIS
    atoms 1-7, 17-23  entry C          line   138 file /theoryfs2/ds/metcalf/miniconda2/envs/tf2gpu/share/psi4/basis/cc-pvdz.gbs
    atoms 8, 24       entry O          line   198 file /theoryfs2/ds/metcalf/miniconda2/envs/tf2gpu/share/psi4/basis/cc-pvdz.gbs
    atoms 9-16, 25-32 entry H          line    22 file /theoryfs2/ds/metcalf/miniconda2/envs/tf2gpu/share/psi4/basis/cc-pvdz.gbs

         ---------------------------------------------------------
                                   SCF
               by Justin Turney, Rob Parrish, Andy Simmonett
                          and Daniel G. A. Smith
                              RHF Reference
                        1 Threads,    500 MiB Core
         ---------------------------------------------------------

  ==> Geometry <==

    Molecular point group: c1
    Full point group: C1

    Geometry (in Angstrom), charge = 0, multiplicity = 1:

       Center              X                  Y                   Z               Mass
    ------------   -----------------  -----------------  -----------------  -----------------
         C           -3.788083701285     0.928234300088    -0.630865100519    12.000000000000
         C           -2.046083701285     0.183234300088     1.040134899481    12.000000000000
         C           -2.594083701285     1.201234300088     0.249134899481    12.000000000000
         C           -0.980083701285     0.444234300088     1.903134899481    12.000000000000
         C           -2.058083701285     2.493234300088     0.348134899481    12.000000000000
         C           -0.449083701285     1.734234300088     1.985134899481    12.000000000000
         C           -0.986083701285     2.761234300088     1.212134899481    12.000000000000
         O            0.582916298715     2.021234300088     2.825134899481    15.994914619570
         H           -2.460083701285    -0.814765699912     0.988134899481     1.007825032230
         H           -0.557083701285    -0.341765699912     2.508134899481     1.007825032230
         H           -4.320083701285     1.863234300088    -0.801865100519     1.007825032230
         H           -4.465083701285     0.294234300088    -0.055865100519     1.007825032230
         H           -2.477083701285     3.296234300088    -0.242865100519     1.007825032230
         H           -0.584083701285     3.761234300088     1.280134899481     1.007825032230
         H            0.932916298715     2.891234300088     2.616134899481     1.007825032230
         H           -3.600274701285     0.434874300088    -1.595916100519     1.007825032230
         C            0.760916298715    -3.375765699912    -3.269865100519    12.000000000000
         C            0.875916298715    -0.244765699912    -1.068865100519    12.000000000000
         C            1.862916298715    -0.602765699912    -0.145865100519    12.000000000000
         C            0.509916298715    -1.137765699912    -2.078865100519    12.000000000000
         C            1.113916298715    -2.398765699912    -2.169865100519    12.000000000000
         C            2.475916298715    -1.855765699912    -0.233865100519    12.000000000000
         C            2.093916298715    -2.744765699912    -1.232865100519    12.000000000000
         O            2.233916298715     0.287234300088     0.824134899481    15.994914619570
         H            0.393916298715     0.714234300088    -0.980865100519     1.007825032230
         H           -0.231083701285    -0.827765699912    -2.791865100519     1.007825032230
         H            3.235916298715    -2.139765699912     0.481134899481     1.007825032230
         H            2.910916298715    -0.066765699912     1.406134899481     1.007825032230
         H            1.154916298715    -4.366765699912    -3.032865100519     1.007825032230
         H            1.295916298715    -3.028765699912    -4.155865100519     1.007825032230
         H            2.572916298715    -3.714765699912    -1.288865100519     1.007825032230
         H           -0.308578701285    -3.458205699912    -3.513556100519     1.007825032230

  Running in c1 symmetry.

  Rotational constants: A =      0.02480  B =      0.01094  C =      0.00831 [cm^-1]
  Rotational constants: A =    743.44651  B =    327.84262  C =    249.11577 [MHz]
  Nuclear repulsion = 1027.262275454078463

  Charge       = 0
  Multiplicity = 1
  Electrons    = 116
  Nalpha       = 58
  Nbeta        = 58

  ==> Algorithm <==

  SCF Algorithm Type is PK.
  DIIS enabled.
  MOM disabled.
  Fractional occupation disabled.
  Guess Type is SAD.
  Energy threshold   = 1.00e-06
  Density threshold  = 1.00e-10
  Integral threshold = 0.00e+00

  ==> Primary Basis <==

  Basis Set: CC-PVDZ
    Blend: CC-PVDZ
    Number of shells: 144
    Number of basis function: 304
    Number of Cartesian functions: 320
    Spherical Harmonics?: true
    Max angular momentum: 2

  ==> Pre-Iterations <==

   -------------------------------------------------------
    Irrep   Nso     Nmo     Nalpha   Nbeta   Ndocc  Nsocc
   -------------------------------------------------------
     A        304     304       0       0       0       0
   -------------------------------------------------------
    Total     304     304      58      58      58       0
   -------------------------------------------------------

  ==> Integral Setup <==

  Using integral reordering PK algorithm.
  Sizing the integral batches needed.
  Building batch lookup table.
   Calculation information:
      Number of atoms:                  32
      Number of AO shells:             144
      Number of primitives:            432
      Number of atomic orbitals:       320
      Number of basis functions:       304

      Integral cutoff                 1.00e-12
      Number of threads:                 1

	Batch   1 pq = [       0,    9405] index = [             0,44231715] size =     44231715
	Batch   2 pq = [    9405,   13301] index = [      44231715,88464951] size =     44233236
	Batch   3 pq = [   13301,   16290] index = [      88464951,132690195] size =     44225244
	Batch   4 pq = [   16290,   18810] index = [     132690195,176917455] size =     44227260
	Batch   5 pq = [   18810,   21030] index = [     176917455,221140965] size =     44223510
	Batch   6 pq = [   21030,   23037] index = [     221140965,265363203] size =     44222238
	Batch   7 pq = [   23037,   24883] index = [     265363203,309594286] size =     44231083
	Batch   8 pq = [   24883,   26601] index = [     309594286,353819901] size =     44225615
	Batch   9 pq = [   26601,   28214] index = [     353819901,398029005] size =     44209104
	Batch  10 pq = [   28214,   29740] index = [     398029005,442248670] size =     44219665
	Batch  11 pq = [   29740,   31191] index = [     442248670,486454836] size =     44206166
	Batch  12 pq = [   31191,   32578] index = [     486454836,530679331] size =     44224495
	Batch  13 pq = [   32578,   33908] index = [     530679331,574893186] size =     44213855
	Batch  14 pq = [   33908,   35188] index = [     574893186,619115266] size =     44222080
	Batch  15 pq = [   35188,   36423] index = [     619115266,663335676] size =     44220410
	Batch  16 pq = [   36423,   37617] index = [     663335676,707538153] size =     44202477
	Batch  17 pq = [   37617,   38775] index = [     707538153,751769700] size =     44231547
	Batch  18 pq = [   38775,   39899] index = [     751769700,795985050] size =     44215350
	Batch  19 pq = [   39899,   40992] index = [     795985050,840192528] size =     44207478
	Batch  20 pq = [   40992,   42057] index = [     840192528,884416653] size =     44224125
	Batch  21 pq = [   42057,   43095] index = [     884416653,928611060] size =     44194407
	Batch  22 pq = [   43095,   44109] index = [     928611060,972823995] size =     44212935
	Batch  23 pq = [   44109,   45100] index = [     972823995,1017027550] size =     44203555
	Batch  24 pq = [   45100,   46070] index = [    1017027550,1061245485] size =     44217935
	Batch  25 pq = [   46070,   46360] index = [    1061245485,1074647980] size =     13402495
  Task number: 98
  Buffer size: 11059200
  Buffer per thread: 2
  We computed 56793155 shell quartets total.
  Whereas there are 54502020 unique shell quartets.
     4.20 percent of shell quartets recomputed by reordering.

  ==> DiskJK: Disk-Based J/K Matrices <==

    J tasked:                  Yes
    K tasked:                  Yes
    wK tasked:                  No
    Memory [MiB]:              375
    Schwarz Cutoff:          1E-12

    OpenMP threads:              1

  Minimum eigenvalue in the overlap matrix is 3.2089443819E-04.
  Using Symmetric Orthogonalization.

  SCF Guess: Superposition of Atomic Densities via on-the-fly atomic UHF.

  ==> Iterations <==

                        Total Energy        Delta E     RMS |[F,P]|

   @RHF iter SAD:  -687.90262926706396   -6.87903e+02   0.00000e+00
   @RHF iter   1:  -688.89486348717446   -9.92234e-01   2.41822e-03 DIIS
   @RHF iter   2:  -689.19295826117002   -2.98095e-01   1.01489e-03 DIIS
   @RHF iter   3:  -689.23879794857703   -4.58397e-02   2.42903e-04 DIIS
   @RHF iter   4:  -689.24276912444770   -3.97118e-03   1.05768e-04 DIIS
   @RHF iter   5:  -689.24337942937848   -6.10305e-04   1.81541e-05 DIIS
   @RHF iter   6:  -689.24340769132459   -2.82619e-05   6.89427e-06 DIIS
   @RHF iter   7:  -689.24341157415563   -3.88283e-06   2.26744e-06 DIIS
   @RHF iter   8:  -689.24341221581335   -6.41658e-07   8.48137e-07 DIIS
   @RHF iter   9:  -689.24341233020027   -1.14387e-07   3.72662e-07 DIIS
   @RHF iter  10:  -689.24341235751933   -2.73191e-08   1.70124e-07 DIIS
   @RHF iter  11:  -689.24341236617374   -8.65441e-09   7.59697e-08 DIIS
   @RHF iter  12:  -689.24341236747057   -1.29683e-09   2.82855e-08 DIIS
   @RHF iter  13:  -689.24341236762302   -1.52454e-10   8.11720e-09 DIIS
   @RHF iter  14:  -689.24341236763564   -1.26192e-11   2.74158e-09 DIIS
   @RHF iter  15:  -689.24341236763132    4.32010e-12   1.03618e-09 DIIS
   @RHF iter  16:  -689.24341236763860   -7.27596e-12   5.46438e-10 DIIS
   @RHF iter  17:  -689.24341236763280    5.79803e-12   2.67902e-10 DIIS
   @RHF iter  18:  -689.24341236763689   -4.09273e-12   1.03169e-10 DIIS
   @RHF iter  19:  -689.24341236763405    2.84217e-12   4.06539e-11 DIIS
  Energy and wave function converged.

  ==> Post-Iterations <==

    Orbital Energies [Eh]
    ---------------------

    Doubly Occupied:

       1A    -20.575950     2A    -20.575360     3A    -11.293282
       4A    -11.293281     5A    -11.236452     6A    -11.233967
       7A    -11.233481     8A    -11.232453     9A    -11.230947
      10A    -11.230265    11A    -11.228553    12A    -11.228149
      13A    -11.226018    14A    -11.225025    15A    -11.224921
      16A    -11.223611    17A     -1.394397    18A     -1.390290
      19A     -1.142444    20A     -1.141385    21A     -1.030578
      22A     -1.029824    23A     -1.011213    24A     -1.009772
      25A     -0.920868    26A     -0.920352    27A     -0.838019
      28A     -0.836083    29A     -0.796124    30A     -0.795119
      31A     -0.725056    32A     -0.723180    33A     -0.662356
      34A     -0.661028    35A     -0.637426    36A     -0.636192
      37A     -0.602121    38A     -0.597512    39A     -0.586244
      40A     -0.581528    41A     -0.579630    42A     -0.575571
      43A     -0.567827    44A     -0.563085    45A     -0.561791
      46A     -0.557194    47A     -0.522092    48A     -0.519733
      49A     -0.493245    50A     -0.491896    51A     -0.480332
      52A     -0.478281    53A     -0.461398    54A     -0.456163
      55A     -0.337790    56A     -0.326327    57A     -0.295424
      58A     -0.293121

    Virtual:

      59A      0.132515    60A      0.137767    61A      0.160039
      62A      0.161883    63A      0.178972    64A      0.179356
      65A      0.191416    66A      0.197560    67A      0.214545
      68A      0.220722    69A      0.229313    70A      0.234592
      71A      0.260253    72A      0.269682    73A      0.271469
      74A      0.276383    75A      0.282472    76A      0.294893
      77A      0.299860    78A      0.301196    79A      0.368979
      80A      0.373379    81A      0.376078    82A      0.384329
      83A      0.424394    84A      0.444366    85A      0.457448
      86A      0.459732    87A      0.480777    88A      0.485291
      89A      0.496721    90A      0.502489    91A      0.506120
      92A      0.521836    93A      0.615780    94A      0.616707
      95A      0.626294    96A      0.630547    97A      0.639495
      98A      0.649907    99A      0.659799   100A      0.665737
     101A      0.675657   102A      0.687433   103A      0.690305
     104A      0.702526   105A      0.703429   106A      0.717802
     107A      0.732113   108A      0.736112   109A      0.742298
     110A      0.745272   111A      0.751998   112A      0.762925
     113A      0.767528   114A      0.772311   115A      0.777327
     116A      0.781816   117A      0.792174   118A      0.799739
     119A      0.815248   120A      0.824126   121A      0.838527
     122A      0.843230   123A      0.855121   124A      0.871461
     125A      0.877369   126A      0.881988   127A      0.883502
     128A      0.890212   129A      0.893976   130A      0.901720
     131A      0.903259   132A      0.913881   133A      0.916626
     134A      0.924913   135A      0.930260   136A      0.938370
     137A      0.943870   138A      0.948537   139A      0.952042
     140A      0.953684   141A      0.968532   142A      0.988379
     143A      1.013903   144A      1.026136   145A      1.030170
     146A      1.044198   147A      1.068186   148A      1.088109
     149A      1.123231   150A      1.129731   151A      1.139742
     152A      1.146275   153A      1.151782   154A      1.171742
     155A      1.178984   156A      1.180631   157A      1.214010
     158A      1.217120   159A      1.240035   160A      1.248262
     161A      1.250198   162A      1.259629   163A      1.272577
     164A      1.283833   165A      1.288554   166A      1.297277
     167A      1.300152   168A      1.306203   169A      1.311406
     170A      1.317781   171A      1.324090   172A      1.346088
     173A      1.352876   174A      1.365084   175A      1.365820
     176A      1.386382   177A      1.405155   178A      1.418646
     179A      1.477628   180A      1.498095   181A      1.502667
     182A      1.514668   183A      1.531712   184A      1.546102
     185A      1.558109   186A      1.573599   187A      1.612231
     188A      1.616021   189A      1.633492   190A      1.667116
     191A      1.682685   192A      1.697936   193A      1.704203
     194A      1.710443   195A      1.741476   196A      1.742157
     197A      1.749407   198A      1.762977   199A      1.782679
     200A      1.785441   201A      1.813982   202A      1.818012
     203A      1.820461   204A      1.831442   205A      1.873510
     206A      1.882316   207A      1.889110   208A      1.896634
     209A      1.901398   210A      1.906294   211A      1.912867
     212A      1.915484   213A      1.919039   214A      1.925018
     215A      1.929142   216A      1.940670   217A      1.950914
     218A      1.955578   219A      1.957646   220A      1.963373
     221A      1.980260   222A      1.982392   223A      1.990389
     224A      1.998982   225A      2.027055   226A      2.041010
     227A      2.054684   228A      2.057730   229A      2.068717
     230A      2.070537   231A      2.073660   232A      2.076313
     233A      2.083601   234A      2.096807   235A      2.131624
     236A      2.141658   237A      2.146937   238A      2.159096
     239A      2.167833   240A      2.178440   241A      2.208931
     242A      2.216706   243A      2.220874   244A      2.231429
     245A      2.262537   246A      2.269149   247A      2.273582
     248A      2.280451   249A      2.306933   250A      2.316197
     251A      2.331759   252A      2.352059   253A      2.392187
     254A      2.407879   255A      2.425338   256A      2.431180
     257A      2.462902   258A      2.467445   259A      2.474706
     260A      2.484247   261A      2.488936   262A      2.501892
     263A      2.535535   264A      2.538477   265A      2.571607
     266A      2.589542   267A      2.603711   268A      2.616697
     269A      2.647011   270A      2.656484   271A      2.741769
     272A      2.749918   273A      2.763970   274A      2.772138
     275A      2.780068   276A      2.793223   277A      2.808971
     278A      2.825726   279A      2.844960   280A      2.861346
     281A      2.895168   282A      2.903235   283A      2.963850
     284A      2.975514   285A      2.998138   286A      3.025432
     287A      3.085967   288A      3.092110   289A      3.109653
     290A      3.140449   291A      3.253448   292A      3.278278
     293A      3.281057   294A      3.287577   295A      3.352578
     296A      3.355342   297A      3.581530   298A      3.596568
     299A      3.680295   300A      3.684544   301A      3.963227
     302A      3.972711   303A      4.185646   304A      4.204640

    Final Occupation by Irrep:
              A
    DOCC [    58 ]

  @RHF Final Energy:  -689.24341236763405

   => Energetics <=

    Nuclear Repulsion Energy =           1027.2622754540784626
    One-Electron Energy =               -2977.5679261929990389
    Two-Electron Energy =                1261.0622383712866394
    Total Energy =                       -689.2434123676339368

Computation Completed

Properties will be evaluated at   0.000000,   0.000000,   0.000000 [a0]

Properties computed using the SCF density matrix

  Nuclear Dipole Moment: [e a0]
     X:    -6.0857      Y:    -5.1488      Z:    -8.5890

  Electronic Dipole Moment: [e a0]
     X:     6.3301      Y:     5.1469      Z:     8.3659

  Dipole Moment: [e a0]
     X:     0.2444      Y:    -0.0019      Z:    -0.2231     Total:     0.3309

  Dipole Moment: [D]
     X:     0.6212      Y:    -0.0049      Z:    -0.5671     Total:     0.8412

*** tstop() called on ds3 at Mon Apr 27 18:37:38 2020
Module time:
	user time   =     502.68 seconds =       8.38 minutes
	system time =     176.09 seconds =       2.93 minutes
	total time  =       1311 seconds =      21.85 minutes
Total time:
	user time   =     502.68 seconds =       8.38 minutes
	system time =     176.09 seconds =       2.93 minutes
	total time  =       1311 seconds =      21.85 minutes
                                     G D M A

                                 by Anthony Stone

                           version 2.2.06, 22 June 2011

               Distributed Multipoles from Gaussian wavefunctions

Starting at 18:37:38 on 27 Apr 2020

Using SCF density matrix from file ./SSI/SSI-026TYR-069TYR-1-dimer.test.19073.fchk

                         Distributed Multipole Analysis

Standard DMA

Positions and radii in angstrom
Multipole moments in atomic units, ea_0^k for rank k

C          x = -3.788084  y =  0.928234  z = -0.630865 angstrom
           Maximum rank =  0   Radius =  0.650 angstrom
                   Q00  =  -0.196592

C          x = -2.046084  y =  0.183234  z =  1.040135 angstrom
           Maximum rank =  0   Radius =  0.650 angstrom
                   Q00  =  -0.012389

C          x = -2.594084  y =  1.201234  z =  0.249135 angstrom
           Maximum rank =  0   Radius =  0.650 angstrom
                   Q00  =  -0.137241

C          x = -0.980084  y =  0.444234  z =  1.903135 angstrom
           Maximum rank =  0   Radius =  0.650 angstrom
                   Q00  =  -0.111340

C          x = -2.058084  y =  2.493234  z =  0.348135 angstrom
           Maximum rank =  0   Radius =  0.650 angstrom
                   Q00  =   0.023121

C          x = -0.449084  y =  1.734234  z =  1.985135 angstrom
           Maximum rank =  0   Radius =  0.650 angstrom
                   Q00  =   0.279254

C          x = -0.986084  y =  2.761234  z =  1.212135 angstrom
           Maximum rank =  0   Radius =  0.650 angstrom
                   Q00  =  -0.185404

O          x =  0.582916  y =  2.021234  z =  2.825135 angstrom
           Maximum rank =  0   Radius =  0.650 angstrom
                   Q00  =  -0.627138

H          x = -2.460084  y = -0.814766  z =  0.988135 angstrom
           Maximum rank =  0   Radius =  0.325 angstrom
                   Q00  =   0.064694

H          x = -0.557084  y = -0.341766  z =  2.508135 angstrom
           Maximum rank =  0   Radius =  0.325 angstrom
                   Q00  =   0.079652

H          x = -4.320084  y =  1.863234  z = -0.801865 angstrom
           Maximum rank =  0   Radius =  0.325 angstrom
                   Q00  =   0.094792

H          x = -4.465084  y =  0.294234  z = -0.055865 angstrom
           Maximum rank =  0   Radius =  0.325 angstrom
                   Q00  =   0.093098

H          x = -2.477084  y =  3.296234  z = -0.242865 angstrom
           Maximum rank =  0   Radius =  0.325 angstrom
                   Q00  =   0.068623

H          x = -0.584084  y =  3.761234  z =  1.280135 angstrom
           Maximum rank =  0   Radius =  0.325 angstrom
                   Q00  =   0.069428

H          x =  0.932916  y =  2.891234  z =  2.616135 angstrom
           Maximum rank =  0   Radius =  0.325 angstrom
                   Q00  =   0.403579

H          x = -3.600275  y =  0.434874  z = -1.595916 angstrom
           Maximum rank =  0   Radius =  0.325 angstrom
                   Q00  =   0.096908

C          x =  0.760916  y = -3.375766  z = -3.269865 angstrom
           Maximum rank =  0   Radius =  0.650 angstrom
                   Q00  =  -0.205381

C          x =  0.875916  y = -0.244766  z = -1.068865 angstrom
           Maximum rank =  0   Radius =  0.650 angstrom
                   Q00  =  -0.107957

C          x =  1.862916  y = -0.602766  z = -0.145865 angstrom
           Maximum rank =  0   Radius =  0.650 angstrom
                   Q00  =   0.317519

C          x =  0.509916  y = -1.137766  z = -2.078865 angstrom
           Maximum rank =  0   Radius =  0.650 angstrom
                   Q00  =  -0.022881

C          x =  1.113916  y = -2.398766  z = -2.169865 angstrom
           Maximum rank =  0   Radius =  0.650 angstrom
                   Q00  =  -0.132694

C          x =  2.475916  y = -1.855766  z = -0.233865 angstrom
           Maximum rank =  0   Radius =  0.650 angstrom
                   Q00  =  -0.188896

C          x =  2.093916  y = -2.744766  z = -1.232865 angstrom
           Maximum rank =  0   Radius =  0.650 angstrom
                   Q00  =   0.028167

O          x =  2.233916  y =  0.287234  z =  0.824135 angstrom
           Maximum rank =  0   Radius =  0.650 angstrom
                   Q00  =  -0.668655

H          x =  0.393916  y =  0.714234  z = -0.980865 angstrom
           Maximum rank =  0   Radius =  0.325 angstrom
                   Q00  =   0.089028

H          x = -0.231084  y = -0.827766  z = -2.791865 angstrom
           Maximum rank =  0   Radius =  0.325 angstrom
                   Q00  =   0.059041

H          x =  3.235916  y = -2.139766  z =  0.481135 angstrom
           Maximum rank =  0   Radius =  0.325 angstrom
                   Q00  =   0.070110

H          x =  2.910916  y = -0.066766  z =  1.406135 angstrom
           Maximum rank =  0   Radius =  0.325 angstrom
                   Q00  =   0.403554

H          x =  1.154916  y = -4.366766  z = -3.032865 angstrom
           Maximum rank =  0   Radius =  0.325 angstrom
                   Q00  =   0.095370

H          x =  1.295916  y = -3.028766  z = -4.155865 angstrom
           Maximum rank =  0   Radius =  0.325 angstrom
                   Q00  =   0.095791

H          x =  2.572916  y = -3.714766  z = -1.288865 angstrom
           Maximum rank =  0   Radius =  0.325 angstrom
                   Q00  =   0.065956

H          x = -0.308579  y = -3.458206  z = -3.513556 angstrom
           Maximum rank =  0   Radius =  0.325 angstrom
                   Q00  =   0.098883

Total multipoles referred to origin at
           x =   0.000000,  y =    0.000000,  z =    0.000000 angstrom
                   Q00  =  -0.000000

Finished at 18:37:38 on 27 Apr 2020

  DMA results are available in the Python driver through the
	  variable('DMA DISTRIBUTED MULTIPOLES')
  and
	  variable('DMA TOTAL MULTIPOLES')
  commands.

    Psi4 stopped on: Monday, 27 April 2020 06:37PM
    Psi4 wall time for execution: 0:21:50.35

*** Psi4 exiting successfully. Buy a developer a beer!
