                               Psi4 1.3.2 release

  ==> Input File <==

--------------------------------------------------------------------------
import numpy as np
set {scf_type pk
basis cc-pvdz
d_convergence 10
gdma_switch   0
gdma_limit    0
gdma_origin   [ 0.0,  0.0,  0.0 ]
}
molecule test {
    units Angstrom
    0 1
    --
    0 1
    C                0.508311990761336    -1.626445151210307     1.207850670058684
    C               -1.003688009238664    -1.425445151210307     1.463850670058684
    H                0.660311990761336    -2.136445151210307     0.257850670058684
    H                0.997311990761336    -0.655445151210307     1.169850670058684
    H                0.963311990761336    -2.208445151210307     2.008850670058684
    H               -1.408688009238664    -0.815445151210307     0.656850670058684
    H               -1.535918009238664    -2.387585151210308     1.495830670058684
    H               -1.172398009238664    -0.849985151210307     2.386010670058684
    C                0.602311990761336     0.862554848789693    -1.452149329941316
    C               -0.104688009238664     2.186554848789693    -1.215149329941316
    H                1.315311990761336     0.661554848789693    -0.656149329941316
    H               -0.124688009238664     0.052554848789693    -1.488149329941316
    H                1.137311990761336     0.894554848789693    -2.401149329941316
    H               -0.724688009238664     2.115554848789693    -0.321149329941316
    H               -0.757688009238664     2.360554848789693    -2.068149329941316
    H                0.623741990761336     3.001684848789693    -1.092919329941316

}
e, wfn = energy('scf', return_wfn=True)
gdma(wfn)
dmavals = variable('DMA DISTRIBUTED MULTIPOLES')
charges = np.array(dmavals)
print(charges)
np.save('SSI-019VAL-027ILE-1-dimer.npy', np.array(charges))--------------------------------------------------------------------------

*** tstart() called on ds3
*** at Mon Apr 27 10:12:19 2020

   => Loading Basis Set <=

    Name: CC-PVDZ
    Role: ORBITAL
    Keyword: BASIS
    atoms 1-2, 9-10  entry C          line   138 file /theoryfs2/ds/metcalf/miniconda2/envs/tf2gpu/share/psi4/basis/cc-pvdz.gbs
    atoms 3-8, 11-16 entry H          line    22 file /theoryfs2/ds/metcalf/miniconda2/envs/tf2gpu/share/psi4/basis/cc-pvdz.gbs

         ---------------------------------------------------------
                                   SCF
               by Justin Turney, Rob Parrish, Andy Simmonett
                          and Daniel G. A. Smith
                              RHF Reference
                        1 Threads,    500 MiB Core
         ---------------------------------------------------------

  ==> Geometry <==

    Molecular point group: c1
    Full point group: C1

    Geometry (in Angstrom), charge = 0, multiplicity = 1:

       Center              X                  Y                   Z               Mass
    ------------   -----------------  -----------------  -----------------  -----------------
         C            0.508311990761    -1.626445151210     1.207850670059    12.000000000000
         C           -1.003688009239    -1.425445151210     1.463850670059    12.000000000000
         H            0.660311990761    -2.136445151210     0.257850670059     1.007825032230
         H            0.997311990761    -0.655445151210     1.169850670059     1.007825032230
         H            0.963311990761    -2.208445151210     2.008850670059     1.007825032230
         H           -1.408688009239    -0.815445151210     0.656850670059     1.007825032230
         H           -1.535918009239    -2.387585151210     1.495830670059     1.007825032230
         H           -1.172398009239    -0.849985151210     2.386010670059     1.007825032230
         C            0.602311990761     0.862554848790    -1.452149329941    12.000000000000
         C           -0.104688009239     2.186554848790    -1.215149329941    12.000000000000
         H            1.315311990761     0.661554848790    -0.656149329941     1.007825032230
         H           -0.124688009239     0.052554848790    -1.488149329941     1.007825032230
         H            1.137311990761     0.894554848790    -2.401149329941     1.007825032230
         H           -0.724688009239     2.115554848790    -0.321149329941     1.007825032230
         H           -0.757688009239     2.360554848790    -2.068149329941     1.007825032230
         H            0.623741990761     3.001684848790    -1.092919329941     1.007825032230

  Running in c1 symmetry.

  Rotational constants: A =      0.37118  B =      0.06212  C =      0.05686 [cm^-1]
  Rotational constants: A =  11127.83864  B =   1862.33907  C =   1704.57601 [MHz]
  Nuclear repulsion =  125.519436745353175

  Charge       = 0
  Multiplicity = 1
  Electrons    = 36
  Nalpha       = 18
  Nbeta        = 18

  ==> Algorithm <==

  SCF Algorithm Type is PK.
  DIIS enabled.
  MOM disabled.
  Fractional occupation disabled.
  Guess Type is SAD.
  Energy threshold   = 1.00e-06
  Density threshold  = 1.00e-10
  Integral threshold = 0.00e+00

  ==> Primary Basis <==

  Basis Set: CC-PVDZ
    Blend: CC-PVDZ
    Number of shells: 60
    Number of basis function: 116
    Number of Cartesian functions: 120
    Spherical Harmonics?: true
    Max angular momentum: 2

  ==> Pre-Iterations <==

   -------------------------------------------------------
    Irrep   Nso     Nmo     Nalpha   Nbeta   Ndocc  Nsocc
   -------------------------------------------------------
     A        116     116       0       0       0       0
   -------------------------------------------------------
    Total     116     116      18      18      18       0
   -------------------------------------------------------

  ==> Integral Setup <==

  Using integral reordering PK algorithm.
  Sizing the integral batches needed.
  Building batch lookup table.
   Calculation information:
      Number of atoms:                  16
      Number of AO shells:              60
      Number of primitives:            148
      Number of atomic orbitals:       120
      Number of basis functions:       116

      Integral cutoff                 1.00e-12
      Number of threads:                 1

	Batch   1 pq = [       0,    6786] index = [             0,23028291] size =     23028291
  Task number: 3
  Buffer size: 11059200
  Buffer per thread: 2
  We computed 1553984 shell quartets total.
  Whereas there are 1675365 unique shell quartets.

  ==> DiskJK: Disk-Based J/K Matrices <==

    J tasked:                  Yes
    K tasked:                  Yes
    wK tasked:                  No
    Memory [MiB]:              375
    Schwarz Cutoff:          1E-12

    OpenMP threads:              1

  Minimum eigenvalue in the overlap matrix is 7.5462605875E-03.
  Using Symmetric Orthogonalization.

  SCF Guess: Superposition of Atomic Densities via on-the-fly atomic UHF.

  ==> Iterations <==

                        Total Energy        Delta E     RMS |[F,P]|

   @RHF iter SAD:  -157.35520788141758   -1.57355e+02   0.00000e+00
   @RHF iter   1:  -158.30719168227600   -9.51984e-01   4.20371e-03 DIIS
   @RHF iter   2:  -158.44030932265855   -1.33118e-01   1.78771e-03 DIIS
   @RHF iter   3:  -158.46351500091430   -2.32057e-02   3.49591e-04 DIIS
   @RHF iter   4:  -158.46533541716968   -1.82042e-03   3.85999e-05 DIIS
   @RHF iter   5:  -158.46535864851211   -2.32313e-05   6.60510e-06 DIIS
   @RHF iter   6:  -158.46535928877773   -6.40266e-07   1.10081e-06 DIIS
   @RHF iter   7:  -158.46535930073551   -1.19578e-08   3.17062e-07 DIIS
   @RHF iter   8:  -158.46535930162034   -8.84825e-10   3.84589e-08 DIIS
   @RHF iter   9:  -158.46535930164083   -2.04921e-11   8.16537e-09 DIIS
   @RHF iter  10:  -158.46535930164220   -1.36424e-12   2.01389e-09 DIIS
   @RHF iter  11:  -158.46535930164137    8.24230e-13   6.31980e-10 DIIS
   @RHF iter  12:  -158.46535930164154   -1.70530e-13   1.84025e-10 DIIS
   @RHF iter  13:  -158.46535930164180   -2.55795e-13   2.31982e-11 DIIS
  Energy and wave function converged.

  ==> Post-Iterations <==

    Orbital Energies [Eh]
    ---------------------

    Doubly Occupied:

       1A    -11.220790     2A    -11.217766     3A    -11.217571
       4A    -11.215011     5A     -1.022272     6A     -1.013340
       7A     -0.840289     8A     -0.835341     9A     -0.606357
      10A     -0.603001    11A     -0.595252    12A     -0.588521
      13A     -0.501961    14A     -0.497126    15A     -0.494769
      16A     -0.486589    17A     -0.485431    18A     -0.478465

    Virtual:

      19A      0.166748    20A      0.205925    21A      0.222037
      22A      0.232621    23A      0.248143    24A      0.258858
      25A      0.263370    26A      0.272278    27A      0.275512
      28A      0.295164    29A      0.336195    30A      0.363613
      31A      0.394088    32A      0.403121    33A      0.564027
      34A      0.585977    35A      0.602529    36A      0.608934
      37A      0.612898    38A      0.628410    39A      0.669601
      40A      0.681265    41A      0.696788    42A      0.820131
      43A      0.835287    44A      0.852163    45A      0.876406
      46A      0.885708    47A      0.892346    48A      0.900543
      49A      0.905672    50A      0.914671    51A      0.918409
      52A      0.926622    53A      0.944307    54A      0.976427
      55A      0.982156    56A      0.990382    57A      1.124063
      58A      1.125841    59A      1.132267    60A      1.160850
      61A      1.220585    62A      1.271036    63A      1.464872
      64A      1.475163    65A      1.477384    66A      1.490319
      67A      1.545471    68A      1.598632    69A      1.679327
      70A      1.683679    71A      1.688029    72A      1.726377
      73A      1.854488    74A      1.862371    75A      1.871455
      76A      1.875962    77A      1.898826    78A      1.921206
      79A      1.936309    80A      1.941378    81A      1.945322
      82A      1.948906    83A      1.953456    84A      1.954086
      85A      1.961142    86A      1.973685    87A      1.979974
      88A      2.035052    89A      2.102053    90A      2.106944
      91A      2.110539    92A      2.129590    93A      2.291495
      94A      2.299281    95A      2.314024    96A      2.322037
      97A      2.445450    98A      2.460811    99A      2.462874
     100A      2.475147   101A      2.556062   102A      2.565730
     103A      2.575153   104A      2.591199   105A      2.762809
     106A      2.769540   107A      2.794576   108A      2.802543
     109A      2.850308   110A      2.852984   111A      2.862454
     112A      2.864068   113A      2.945701   114A      2.947220
     115A      2.969511   116A      2.988756

    Final Occupation by Irrep:
              A
    DOCC [    18 ]

  @RHF Final Energy:  -158.46535930164180

   => Energetics <=

    Nuclear Repulsion Energy =            125.5194367453531754
    One-Electron Energy =                -460.1298893844606255
    Two-Electron Energy =                 176.1450933374656529
    Total Energy =                       -158.4653593016417972

Computation Completed

Properties will be evaluated at   0.000000,   0.000000,   0.000000 [a0]

Properties computed using the SCF density matrix

  Nuclear Dipole Moment: [e a0]
     X:    -0.0251      Y:     0.0310      Z:    -0.0491

  Electronic Dipole Moment: [e a0]
     X:     0.0336      Y:    -0.0285      Z:     0.0368

  Dipole Moment: [e a0]
     X:     0.0085      Y:     0.0026      Z:    -0.0123     Total:     0.0152

  Dipole Moment: [D]
     X:     0.0216      Y:     0.0066      Z:    -0.0313     Total:     0.0386

*** tstop() called on ds3 at Mon Apr 27 10:12:58 2020
Module time:
	user time   =       8.03 seconds =       0.13 minutes
	system time =       2.50 seconds =       0.04 minutes
	total time  =         39 seconds =       0.65 minutes
Total time:
	user time   =       8.03 seconds =       0.13 minutes
	system time =       2.50 seconds =       0.04 minutes
	total time  =         39 seconds =       0.65 minutes
                                     G D M A

                                 by Anthony Stone

                           version 2.2.06, 22 June 2011

               Distributed Multipoles from Gaussian wavefunctions

Starting at 10:12:58 on 27 Apr 2020

Using SCF density matrix from file ./SSI/SSI-019VAL-027ILE-1-dimer.test.2434.fchk

                         Distributed Multipole Analysis

Standard DMA

Positions and radii in angstrom
Multipole moments in atomic units, ea_0^k for rank k

C          x =  0.508312  y = -1.626445  z =  1.207851 angstrom
           Maximum rank =  0   Radius =  0.650 angstrom
                   Q00  =  -0.239583

C          x = -1.003688  y = -1.425445  z =  1.463851 angstrom
           Maximum rank =  0   Radius =  0.650 angstrom
                   Q00  =  -0.244282

H          x =  0.660312  y = -2.136445  z =  0.257851 angstrom
           Maximum rank =  0   Radius =  0.325 angstrom
                   Q00  =   0.081833

H          x =  0.997312  y = -0.655445  z =  1.169851 angstrom
           Maximum rank =  0   Radius =  0.325 angstrom
                   Q00  =   0.081378

H          x =  0.963312  y = -2.208445  z =  2.008851 angstrom
           Maximum rank =  0   Radius =  0.325 angstrom
                   Q00  =   0.080518

H          x = -1.408688  y = -0.815445  z =  0.656851 angstrom
           Maximum rank =  0   Radius =  0.325 angstrom
                   Q00  =   0.077743

H          x = -1.535918  y = -2.387585  z =  1.495831 angstrom
           Maximum rank =  0   Radius =  0.325 angstrom
                   Q00  =   0.083016

H          x = -1.172398  y = -0.849985  z =  2.386011 angstrom
           Maximum rank =  0   Radius =  0.325 angstrom
                   Q00  =   0.079998

C          x =  0.602312  y =  0.862555  z = -1.452149 angstrom
           Maximum rank =  0   Radius =  0.650 angstrom
                   Q00  =  -0.235209

C          x = -0.104688  y =  2.186555  z = -1.215149 angstrom
           Maximum rank =  0   Radius =  0.650 angstrom
                   Q00  =  -0.232912

H          x =  1.315312  y =  0.661555  z = -0.656149 angstrom
           Maximum rank =  0   Radius =  0.325 angstrom
                   Q00  =   0.078426

H          x = -0.124688  y =  0.052555  z = -1.488149 angstrom
           Maximum rank =  0   Radius =  0.325 angstrom
                   Q00  =   0.077443

H          x =  1.137312  y =  0.894555  z = -2.401149 angstrom
           Maximum rank =  0   Radius =  0.325 angstrom
                   Q00  =   0.077147

H          x = -0.724688  y =  2.115555  z = -0.321149 angstrom
           Maximum rank =  0   Radius =  0.325 angstrom
                   Q00  =   0.076966

H          x = -0.757688  y =  2.360555  z = -2.068149 angstrom
           Maximum rank =  0   Radius =  0.325 angstrom
                   Q00  =   0.077668

H          x =  0.623742  y =  3.001685  z = -1.092919 angstrom
           Maximum rank =  0   Radius =  0.325 angstrom
                   Q00  =   0.079849

Total multipoles referred to origin at
           x =   0.000000,  y =    0.000000,  z =    0.000000 angstrom
                   Q00  =  -0.000000

Finished at 10:12:58 on 27 Apr 2020

  DMA results are available in the Python driver through the
	  variable('DMA DISTRIBUTED MULTIPOLES')
  and
	  variable('DMA TOTAL MULTIPOLES')
  commands.

    Psi4 stopped on: Monday, 27 April 2020 10:12AM
    Psi4 wall time for execution: 0:00:38.91

*** Psi4 exiting successfully. Buy a developer a beer!
