                               Psi4 1.3.2 release

  ==> Input File <==

--------------------------------------------------------------------------
import numpy as np
set {scf_type pk
basis cc-pvdz
d_convergence 10
gdma_switch   0
gdma_limit    0
gdma_origin   [ 0.0,  0.0,  0.0 ]
}
molecule test {
    units Angstrom
    0 1
    --
    0 1
    C                4.564075706352866    -0.239282180955501     0.365425047779832
    C                0.792075706352865    -0.440282180955501     0.517425047779832
    C                2.075075706352865    -0.041282180955501     0.189425047779832
    C                0.589075706352865    -1.456282180955501     1.431425047779832
    C                3.171075706352865    -0.653282180955501     0.774425047779832
    C                1.673075706352865    -2.068282180955501     2.024425047779832
    C                2.960075706352864    -1.684282180955502     1.682425047779832
    H               -0.056924293647135     0.031717819044499     0.055425047779832
    H                2.215075706352864     0.752717819044499    -0.530574952220168
    H               -0.413924293647135    -1.774282180955502     1.675425047779832
    H                1.514075706352865    -2.859282180955502     2.743425047779832
    H                4.523075706352865     0.093717819044499    -0.674574952220168
    H                5.221075706352866    -1.110282180955502     0.393425047779832
    H                3.801075706352865    -2.173282180955501     2.146425047779832
    H                4.991355706352865     0.569007819044499     0.977065047779832
    C               -1.267924293647135     0.976717819044499    -3.190574952220167
    C               -2.156924293647136     1.872717819044498     0.373425047779832
    C               -3.086924293647136     0.897717819044499     0.684425047779832
    C               -1.566924293647135     1.898717819044498    -0.880574952220168
    C               -1.896924293647135     0.939717819044499    -1.827574952220168
    C               -3.427924293647135    -0.058282180955501    -0.260574952220168
    C               -2.838924293647135    -0.031282180955501    -1.513574952220168
    H               -1.890924293647135     2.614717819044498     1.112425047779832
    H               -3.565924293647135     0.912717819044499     1.651425047779832
    H               -0.833924293647135     2.651717819044499    -1.110574952220168
    H               -4.157924293647135    -0.819282180955501    -0.020574952220168
    H               -1.182924293647135    -0.040282180955501    -3.578574952220167
    H               -0.252924293647135     1.367717819044499    -3.101574952220167
    H               -3.106924293647136    -0.784282180955501    -2.241574952220168
    H               -1.827074293647135     1.602247819044498    -3.901954952220168

}
e, wfn = energy('scf', return_wfn=True)
gdma(wfn)
dmavals = variable('DMA DISTRIBUTED MULTIPOLES')
charges = np.array(dmavals)
print(charges)
np.save('SSI-035PHE-111PHE-1-dimer.npy', np.array(charges))--------------------------------------------------------------------------

*** tstart() called on ds3
*** at Tue Apr 28 11:17:25 2020

   => Loading Basis Set <=

    Name: CC-PVDZ
    Role: ORBITAL
    Keyword: BASIS
    atoms 1-7, 16-22  entry C          line   138 file /theoryfs2/ds/metcalf/miniconda2/envs/tf2gpu/share/psi4/basis/cc-pvdz.gbs
    atoms 8-15, 23-30 entry H          line    22 file /theoryfs2/ds/metcalf/miniconda2/envs/tf2gpu/share/psi4/basis/cc-pvdz.gbs

         ---------------------------------------------------------
                                   SCF
               by Justin Turney, Rob Parrish, Andy Simmonett
                          and Daniel G. A. Smith
                              RHF Reference
                        1 Threads,    500 MiB Core
         ---------------------------------------------------------

  ==> Geometry <==

    Molecular point group: c1
    Full point group: C1

    Geometry (in Angstrom), charge = 0, multiplicity = 1:

       Center              X                  Y                   Z               Mass
    ------------   -----------------  -----------------  -----------------  -----------------
         C            4.564075706353    -0.239282180956     0.365425047780    12.000000000000
         C            0.792075706353    -0.440282180956     0.517425047780    12.000000000000
         C            2.075075706353    -0.041282180956     0.189425047780    12.000000000000
         C            0.589075706353    -1.456282180956     1.431425047780    12.000000000000
         C            3.171075706353    -0.653282180956     0.774425047780    12.000000000000
         C            1.673075706353    -2.068282180956     2.024425047780    12.000000000000
         C            2.960075706353    -1.684282180956     1.682425047780    12.000000000000
         H           -0.056924293647     0.031717819044     0.055425047780     1.007825032230
         H            2.215075706353     0.752717819044    -0.530574952220     1.007825032230
         H           -0.413924293647    -1.774282180956     1.675425047780     1.007825032230
         H            1.514075706353    -2.859282180956     2.743425047780     1.007825032230
         H            4.523075706353     0.093717819044    -0.674574952220     1.007825032230
         H            5.221075706353    -1.110282180956     0.393425047780     1.007825032230
         H            3.801075706353    -2.173282180956     2.146425047780     1.007825032230
         H            4.991355706353     0.569007819044     0.977065047780     1.007825032230
         C           -1.267924293647     0.976717819044    -3.190574952220    12.000000000000
         C           -2.156924293647     1.872717819044     0.373425047780    12.000000000000
         C           -3.086924293647     0.897717819044     0.684425047780    12.000000000000
         C           -1.566924293647     1.898717819044    -0.880574952220    12.000000000000
         C           -1.896924293647     0.939717819044    -1.827574952220    12.000000000000
         C           -3.427924293647    -0.058282180956    -0.260574952220    12.000000000000
         C           -2.838924293647    -0.031282180956    -1.513574952220    12.000000000000
         H           -1.890924293647     2.614717819044     1.112425047780     1.007825032230
         H           -3.565924293647     0.912717819044     1.651425047780     1.007825032230
         H           -0.833924293647     2.651717819044    -1.110574952220     1.007825032230
         H           -4.157924293647    -0.819282180956    -0.020574952220     1.007825032230
         H           -1.182924293647    -0.040282180956    -3.578574952220     1.007825032230
         H           -0.252924293647     1.367717819044    -3.101574952220     1.007825032230
         H           -3.106924293647    -0.784282180956    -2.241574952220     1.007825032230
         H           -1.827074293647     1.602247819044    -3.901954952220     1.007825032230

  Running in c1 symmetry.

  Rotational constants: A =      0.03906  B =      0.01075  C =      0.00953 [cm^-1]
  Rotational constants: A =   1171.02772  B =    322.27731  C =    285.68426 [MHz]
  Nuclear repulsion =  781.191011128729770

  Charge       = 0
  Multiplicity = 1
  Electrons    = 100
  Nalpha       = 50
  Nbeta        = 50

  ==> Algorithm <==

  SCF Algorithm Type is PK.
  DIIS enabled.
  MOM disabled.
  Fractional occupation disabled.
  Guess Type is SAD.
  Energy threshold   = 1.00e-06
  Density threshold  = 1.00e-10
  Integral threshold = 0.00e+00

  ==> Primary Basis <==

  Basis Set: CC-PVDZ
    Blend: CC-PVDZ
    Number of shells: 132
    Number of basis function: 276
    Number of Cartesian functions: 290
    Spherical Harmonics?: true
    Max angular momentum: 2

  ==> Pre-Iterations <==

   -------------------------------------------------------
    Irrep   Nso     Nmo     Nalpha   Nbeta   Ndocc  Nsocc
   -------------------------------------------------------
     A        276     276       0       0       0       0
   -------------------------------------------------------
    Total     276     276      50      50      50       0
   -------------------------------------------------------

  ==> Integral Setup <==

  Using integral reordering PK algorithm.
  Sizing the integral batches needed.
  Building batch lookup table.
   Calculation information:
      Number of atoms:                  30
      Number of AO shells:             132
      Number of primitives:            388
      Number of atomic orbitals:       290
      Number of basis functions:       276

      Integral cutoff                 1.00e-12
      Number of threads:                 1

	Batch   1 pq = [       0,    9405] index = [             0,44231715] size =     44231715
	Batch   2 pq = [    9405,   13301] index = [      44231715,88464951] size =     44233236
	Batch   3 pq = [   13301,   16290] index = [      88464951,132690195] size =     44225244
	Batch   4 pq = [   16290,   18810] index = [     132690195,176917455] size =     44227260
	Batch   5 pq = [   18810,   21030] index = [     176917455,221140965] size =     44223510
	Batch   6 pq = [   21030,   23037] index = [     221140965,265363203] size =     44222238
	Batch   7 pq = [   23037,   24883] index = [     265363203,309594286] size =     44231083
	Batch   8 pq = [   24883,   26601] index = [     309594286,353819901] size =     44225615
	Batch   9 pq = [   26601,   28214] index = [     353819901,398029005] size =     44209104
	Batch  10 pq = [   28214,   29740] index = [     398029005,442248670] size =     44219665
	Batch  11 pq = [   29740,   31191] index = [     442248670,486454836] size =     44206166
	Batch  12 pq = [   31191,   32578] index = [     486454836,530679331] size =     44224495
	Batch  13 pq = [   32578,   33908] index = [     530679331,574893186] size =     44213855
	Batch  14 pq = [   33908,   35188] index = [     574893186,619115266] size =     44222080
	Batch  15 pq = [   35188,   36423] index = [     619115266,663335676] size =     44220410
	Batch  16 pq = [   36423,   37617] index = [     663335676,707538153] size =     44202477
	Batch  17 pq = [   37617,   38226] index = [     707538153,730632651] size =     23094498
  Task number: 67
  Buffer size: 11059200
  Buffer per thread: 2
  We computed 38039307 shell quartets total.
  Whereas there are 38531031 unique shell quartets.

  ==> DiskJK: Disk-Based J/K Matrices <==

    J tasked:                  Yes
    K tasked:                  Yes
    wK tasked:                  No
    Memory [MiB]:              375
    Schwarz Cutoff:          1E-12

    OpenMP threads:              1

  Minimum eigenvalue in the overlap matrix is 2.8325598866E-04.
  Using Symmetric Orthogonalization.

  SCF Guess: Superposition of Atomic Densities via on-the-fly atomic UHF.

  ==> Iterations <==

                        Total Energy        Delta E     RMS |[F,P]|

   @RHF iter SAD:  -538.57649116694324   -5.38576e+02   0.00000e+00
   @RHF iter   1:  -539.22364465395003   -6.47153e-01   2.32509e-03 DIIS
   @RHF iter   2:  -539.47876672812913   -2.55122e-01   9.45827e-04 DIIS
   @RHF iter   3:  -539.51598645572858   -3.72197e-02   2.13755e-04 DIIS
   @RHF iter   4:  -539.51909934422986   -3.11289e-03   4.60849e-05 DIIS
   @RHF iter   5:  -539.51920748078055   -1.08137e-04   1.36217e-05 DIIS
   @RHF iter   6:  -539.51921649194060   -9.01116e-06   4.13577e-06 DIIS
   @RHF iter   7:  -539.51921742923764   -9.37297e-07   1.11423e-06 DIIS
   @RHF iter   8:  -539.51921751110444   -8.18668e-08   2.81441e-07 DIIS
   @RHF iter   9:  -539.51921752064061   -9.53617e-09   1.21783e-07 DIIS
   @RHF iter  10:  -539.51921752244857   -1.80796e-09   5.85590e-08 DIIS
   @RHF iter  11:  -539.51921752308988   -6.41307e-10   2.53997e-08 DIIS
   @RHF iter  12:  -539.51921752322312   -1.33241e-10   1.18129e-08 DIIS
   @RHF iter  13:  -539.51921752324358   -2.04636e-11   3.79616e-09 DIIS
   @RHF iter  14:  -539.51921752324552   -1.93268e-12   1.06334e-09 DIIS
   @RHF iter  15:  -539.51921752324336    2.16005e-12   3.44640e-10 DIIS
   @RHF iter  16:  -539.51921752324370   -3.41061e-13   1.27393e-10 DIIS
   @RHF iter  17:  -539.51921752324847   -4.77485e-12   5.91874e-11 DIIS
  Energy and wave function converged.

  ==> Post-Iterations <==

    Orbital Energies [Eh]
    ---------------------

    Doubly Occupied:

       1A    -11.241534     2A    -11.237669     3A    -11.235881
       4A    -11.232612     5A    -11.232154     6A    -11.231967
       7A    -11.230707     8A    -11.230653     9A    -11.225822
      10A    -11.225580    11A    -11.221804    12A    -11.220623
      13A    -11.219524    14A    -11.218416    15A     -1.160470
      16A     -1.149989    17A     -1.049131    18A     -1.039256
      19A     -1.017637    20A     -1.006277    21A     -0.934252
      22A     -0.926165    23A     -0.829202    24A     -0.818839
      25A     -0.799264    26A     -0.789311    27A     -0.695839
      28A     -0.686104    29A     -0.636248    30A     -0.631730
      31A     -0.626460    32A     -0.621715    33A     -0.586902
      34A     -0.583076    35A     -0.573666    36A     -0.572764
      37A     -0.565493    38A     -0.556076    39A     -0.536135
      40A     -0.529103    41A     -0.495425    42A     -0.487372
      43A     -0.484485    44A     -0.483160    45A     -0.475825
      46A     -0.471154    47A     -0.337906    48A     -0.327708
      49A     -0.324712    50A     -0.316213

    Virtual:

      51A      0.132349    52A      0.136262    53A      0.146709
      54A      0.150921    55A      0.171037    56A      0.192862
      57A      0.197759    58A      0.210826    59A      0.214210
      60A      0.235316    61A      0.239857    62A      0.251626
      63A      0.259180    64A      0.263362    65A      0.267533
      66A      0.279873    67A      0.285570    68A      0.287792
      69A      0.305681    70A      0.326717    71A      0.365501
      72A      0.375272    73A      0.376982    74A      0.383165
      75A      0.451892    76A      0.461411    77A      0.467087
      78A      0.469837    79A      0.481003    80A      0.486599
      81A      0.488240    82A      0.500436    83A      0.559212
      84A      0.566844    85A      0.587067    86A      0.605368
      87A      0.641332    88A      0.648482    89A      0.663881
      90A      0.678685    91A      0.684895    92A      0.687962
      93A      0.693857    94A      0.708654    95A      0.719636
      96A      0.722858    97A      0.734007    98A      0.736320
      99A      0.741007   100A      0.744572   101A      0.746623
     102A      0.758119   103A      0.761812   104A      0.765348
     105A      0.769836   106A      0.781651   107A      0.784501
     108A      0.792098   109A      0.804717   110A      0.823710
     111A      0.838489   112A      0.847827   113A      0.855281
     114A      0.862022   115A      0.870156   116A      0.873894
     117A      0.876554   118A      0.880052   119A      0.893558
     120A      0.896247   121A      0.896795   122A      0.904061
     123A      0.918157   124A      0.920236   125A      0.932161
     126A      0.935284   127A      0.943316   128A      0.948559
     129A      0.955717   130A      0.977049   131A      0.992068
     132A      1.007490   133A      1.014100   134A      1.033121
     135A      1.047796   136A      1.113109   137A      1.127126
     138A      1.129481   139A      1.146229   140A      1.153886
     141A      1.164003   142A      1.165391   143A      1.174966
     144A      1.185020   145A      1.207276   146A      1.235266
     147A      1.238898   148A      1.247007   149A      1.253555
     150A      1.255470   151A      1.264616   152A      1.265991
     153A      1.278599   154A      1.297234   155A      1.301933
     156A      1.311017   157A      1.320521   158A      1.324262
     159A      1.333084   160A      1.336579   161A      1.341068
     162A      1.377886   163A      1.418726   164A      1.479358
     165A      1.508019   166A      1.514270   167A      1.518179
     168A      1.549216   169A      1.558460   170A      1.566689
     171A      1.601357   172A      1.615430   173A      1.674273
     174A      1.688279   175A      1.701656   176A      1.705535
     177A      1.733608   178A      1.739442   179A      1.754022
     180A      1.759574   181A      1.763237   182A      1.773041
     183A      1.789514   184A      1.801475   185A      1.820875
     186A      1.840069   187A      1.860644   188A      1.869424
     189A      1.882204   190A      1.896483   191A      1.899339
     192A      1.906015   193A      1.917609   194A      1.921184
     195A      1.921961   196A      1.926121   197A      1.933006
     198A      1.937601   199A      1.944739   200A      1.947409
     201A      1.959826   202A      1.965876   203A      1.976318
     204A      1.987947   205A      1.991454   206A      2.001142
     207A      2.004452   208A      2.012647   209A      2.046078
     210A      2.049644   211A      2.069417   212A      2.075278
     213A      2.078161   214A      2.089876   215A      2.113099
     216A      2.120651   217A      2.146543   218A      2.159964
     219A      2.163798   220A      2.167066   221A      2.168339
     222A      2.173225   223A      2.182013   224A      2.194265
     225A      2.203359   226A      2.216518   227A      2.259922
     228A      2.268634   229A      2.285690   230A      2.287587
     231A      2.297799   232A      2.302580   233A      2.304822
     234A      2.311484   235A      2.317313   236A      2.324722
     237A      2.336009   238A      2.385745   239A      2.469410
     240A      2.477418   241A      2.490314   242A      2.492113
     243A      2.502873   244A      2.513350   245A      2.547340
     246A      2.557252   247A      2.624024   248A      2.636117
     249A      2.751761   250A      2.757822   251A      2.761804
     252A      2.766598   253A      2.772396   254A      2.790372
     255A      2.796186   256A      2.807321   257A      2.813409
     258A      2.847248   259A      2.860230   260A      2.867490
     261A      2.878096   262A      2.906448   263A      2.997666
     264A      3.004969   265A      3.025242   266A      3.029898
     267A      3.034110   268A      3.049840   269A      3.161462
     270A      3.177053   271A      3.213377   272A      3.227779
     273A      3.312058   274A      3.339463   275A      3.991584
     276A      4.008387

    Final Occupation by Irrep:
              A
    DOCC [    50 ]

  @RHF Final Energy:  -539.51921752324847

   => Energetics <=

    Nuclear Repulsion Energy =            781.1910111287297696
    One-Electron Energy =               -2278.7604489109930910
    Two-Electron Energy =                 958.0502202590148499
    Total Energy =                       -539.5192175232484715

Computation Completed

Properties will be evaluated at   0.000000,   0.000000,   0.000000 [a0]

Properties computed using the SCF density matrix

  Nuclear Dipole Moment: [e a0]
     X:     4.6652      Y:     0.9706      Z:    -4.1295

  Electronic Dipole Moment: [e a0]
     X:    -4.7007      Y:    -0.8868      Z:     3.9350

  Dipole Moment: [e a0]
     X:    -0.0356      Y:     0.0838      Z:    -0.1945     Total:     0.2148

  Dipole Moment: [D]
     X:    -0.0904      Y:     0.2130      Z:    -0.4945     Total:     0.5459

*** tstop() called on ds3 at Tue Apr 28 11:25:15 2020
Module time:
	user time   =     314.93 seconds =       5.25 minutes
	system time =     117.33 seconds =       1.96 minutes
	total time  =        470 seconds =       7.83 minutes
Total time:
	user time   =     314.93 seconds =       5.25 minutes
	system time =     117.33 seconds =       1.96 minutes
	total time  =        470 seconds =       7.83 minutes
                                     G D M A

                                 by Anthony Stone

                           version 2.2.06, 22 June 2011

               Distributed Multipoles from Gaussian wavefunctions

Starting at 11:25:15 on 28 Apr 2020

Using SCF density matrix from file ./SSI/SSI-035PHE-111PHE-1-dimer.test.9930.fchk

                         Distributed Multipole Analysis

Standard DMA

Positions and radii in angstrom
Multipole moments in atomic units, ea_0^k for rank k

C          x =  4.564076  y = -0.239282  z =  0.365425 angstrom
           Maximum rank =  0   Radius =  0.650 angstrom
                   Q00  =  -0.204304

C          x =  0.792076  y = -0.440282  z =  0.517425 angstrom
           Maximum rank =  0   Radius =  0.650 angstrom
                   Q00  =  -0.007162

C          x =  2.075076  y = -0.041282  z =  0.189425 angstrom
           Maximum rank =  0   Radius =  0.650 angstrom
                   Q00  =  -0.092013

C          x =  0.589076  y = -1.456282  z =  1.431425 angstrom
           Maximum rank =  0   Radius =  0.650 angstrom
                   Q00  =  -0.074496

C          x =  3.171076  y = -0.653282  z =  0.774425 angstrom
           Maximum rank =  0   Radius =  0.650 angstrom
                   Q00  =  -0.098571

C          x =  1.673076  y = -2.068282  z =  2.024425 angstrom
           Maximum rank =  0   Radius =  0.650 angstrom
                   Q00  =  -0.079258

C          x =  2.960076  y = -1.684282  z =  1.682425 angstrom
           Maximum rank =  0   Radius =  0.650 angstrom
                   Q00  =  -0.032564

H          x = -0.056924  y =  0.031718  z =  0.055425 angstrom
           Maximum rank =  0   Radius =  0.325 angstrom
                   Q00  =   0.078363

H          x =  2.215076  y =  0.752718  z = -0.530575 angstrom
           Maximum rank =  0   Radius =  0.325 angstrom
                   Q00  =   0.043846

H          x = -0.413924  y = -1.774282  z =  1.675425 angstrom
           Maximum rank =  0   Radius =  0.325 angstrom
                   Q00  =   0.052947

H          x =  1.514076  y = -2.859282  z =  2.743425 angstrom
           Maximum rank =  0   Radius =  0.325 angstrom
                   Q00  =   0.058948

H          x =  4.523076  y =  0.093718  z = -0.674575 angstrom
           Maximum rank =  0   Radius =  0.325 angstrom
                   Q00  =   0.093840

H          x =  5.221076  y = -1.110282  z =  0.393425 angstrom
           Maximum rank =  0   Radius =  0.325 angstrom
                   Q00  =   0.097490

H          x =  3.801076  y = -2.173282  z =  2.146425 angstrom
           Maximum rank =  0   Radius =  0.325 angstrom
                   Q00  =   0.052545

H          x =  4.991356  y =  0.569008  z =  0.977065 angstrom
           Maximum rank =  0   Radius =  0.325 angstrom
                   Q00  =   0.103940

C          x = -1.267924  y =  0.976718  z = -3.190575 angstrom
           Maximum rank =  0   Radius =  0.650 angstrom
                   Q00  =  -0.197898

C          x = -2.156924  y =  1.872718  z =  0.373425 angstrom
           Maximum rank =  0   Radius =  0.650 angstrom
                   Q00  =  -0.043501

C          x = -3.086924  y =  0.897718  z =  0.684425 angstrom
           Maximum rank =  0   Radius =  0.650 angstrom
                   Q00  =  -0.090748

C          x = -1.566924  y =  1.898718  z = -0.880575 angstrom
           Maximum rank =  0   Radius =  0.650 angstrom
                   Q00  =  -0.095365

C          x = -1.896924  y =  0.939718  z = -1.827575 angstrom
           Maximum rank =  0   Radius =  0.650 angstrom
                   Q00  =  -0.107265

C          x = -3.427924  y = -0.058282  z = -0.260575 angstrom
           Maximum rank =  0   Radius =  0.650 angstrom
                   Q00  =  -0.076393

C          x = -2.838924  y = -0.031282  z = -1.513575 angstrom
           Maximum rank =  0   Radius =  0.650 angstrom
                   Q00  =   0.009570

H          x = -1.890924  y =  2.614718  z =  1.112425 angstrom
           Maximum rank =  0   Radius =  0.325 angstrom
                   Q00  =   0.066311

H          x = -3.565924  y =  0.912718  z =  1.651425 angstrom
           Maximum rank =  0   Radius =  0.325 angstrom
                   Q00  =   0.061962

H          x = -0.833924  y =  2.651718  z = -1.110575 angstrom
           Maximum rank =  0   Radius =  0.325 angstrom
                   Q00  =   0.054813

H          x = -4.157924  y = -0.819282  z = -0.020575 angstrom
           Maximum rank =  0   Radius =  0.325 angstrom
                   Q00  =   0.065256

H          x = -1.182924  y = -0.040282  z = -3.578575 angstrom
           Maximum rank =  0   Radius =  0.325 angstrom
                   Q00  =   0.100049

H          x = -0.252924  y =  1.367718  z = -3.101575 angstrom
           Maximum rank =  0   Radius =  0.325 angstrom
                   Q00  =   0.096055

H          x = -3.106924  y = -0.784282  z = -2.241575 angstrom
           Maximum rank =  0   Radius =  0.325 angstrom
                   Q00  =   0.057564

H          x = -1.827074  y =  1.602248  z = -3.901955 angstrom
           Maximum rank =  0   Radius =  0.325 angstrom
                   Q00  =   0.106039

Total multipoles referred to origin at
           x =   0.000000,  y =    0.000000,  z =    0.000000 angstrom
                   Q00  =  -0.000000

Finished at 11:25:15 on 28 Apr 2020

  DMA results are available in the Python driver through the
	  variable('DMA DISTRIBUTED MULTIPOLES')
  and
	  variable('DMA TOTAL MULTIPOLES')
  commands.

    Psi4 stopped on: Tuesday, 28 April 2020 11:25AM
    Psi4 wall time for execution: 0:07:49.78

*** Psi4 exiting successfully. Buy a developer a beer!
