                               Psi4 1.3.2 release

  ==> Input File <==

--------------------------------------------------------------------------
import numpy as np
set {scf_type pk
basis cc-pvdz
d_convergence 10
gdma_switch   0
gdma_limit    0
gdma_origin   [ 0.0,  0.0,  0.0 ]
}
molecule test {
    units Angstrom
    0 1
    --
    0 1
    C               -0.054179391117738    -4.666057657567894    -0.719463063727984
    C               -1.021179391117738    -0.684057657567894     0.627536936272016
    C               -0.790179391117738    -0.929057657567894    -0.713463063727984
    C               -0.926179391117738    -1.721057657567894     1.540536936272016
    C               -0.465179391117738    -2.214057657567893    -1.143463063727984
    C               -0.597179391117738    -3.007057657567894     1.109536936272016
    C               -0.354179391117738    -3.264057657567894    -0.238463063727984
    O               -1.341179391117738     0.577942342432106     1.024536936272016
    H               -1.201179391117738     1.214942342432106     0.315536936272016
    H               -0.863179391117738    -0.123057657567894    -1.430463063727984
    H               -1.208179391117738    -1.504057657567893     2.549536936272016
    H               -0.295179391117738    -2.394057657567894    -2.197463063727984
    H               -0.550179391117738    -3.815057657567893     1.826536936272016
    H                0.452820608882262    -5.204057657567894     0.075536936272016
    H                0.602820608882262    -4.602057657567895    -1.584463063727984
    H               -0.968329391117738    -5.209936657567894    -0.999687063727984
    C                2.428820608882261     3.936942342432106    -1.181463063727984
    C                1.246820608882262     3.486942342432107    -0.327463063727984
    O                0.834820608882262     2.325942342432106    -0.325463063727984
    N                0.675820608882262     4.435942342432106     0.405536936272016
    H                3.101820608882262     4.527942342432105    -0.564463063727984
    H                2.031820608882262     4.596942342432105    -1.953463063727984
    H               -0.107179391117738     4.184942342432106     0.989536936272016
    H                1.016820608882262     5.383942342432106     0.369536936272016
    H                2.975245608882262     3.116230342432107    -1.669163063727984

}
e, wfn = energy('scf', return_wfn=True)
gdma(wfn)
dmavals = variable('DMA DISTRIBUTED MULTIPOLES')
charges = np.array(dmavals)
print(charges)
np.save('SSI-049TYR-102ASN-1-dimer.npy', np.array(charges))--------------------------------------------------------------------------

*** tstart() called on ds3
*** at Sun Apr 26 18:01:19 2020

   => Loading Basis Set <=

    Name: CC-PVDZ
    Role: ORBITAL
    Keyword: BASIS
    atoms 1-7, 17-18  entry C          line   138 file /theoryfs2/ds/metcalf/miniconda2/envs/tf2gpu/share/psi4/basis/cc-pvdz.gbs
    atoms 8, 19       entry O          line   198 file /theoryfs2/ds/metcalf/miniconda2/envs/tf2gpu/share/psi4/basis/cc-pvdz.gbs
    atoms 9-16, 21-25 entry H          line    22 file /theoryfs2/ds/metcalf/miniconda2/envs/tf2gpu/share/psi4/basis/cc-pvdz.gbs
    atoms 20          entry N          line   168 file /theoryfs2/ds/metcalf/miniconda2/envs/tf2gpu/share/psi4/basis/cc-pvdz.gbs

         ---------------------------------------------------------
                                   SCF
               by Justin Turney, Rob Parrish, Andy Simmonett
                          and Daniel G. A. Smith
                              RHF Reference
                        1 Threads,    500 MiB Core
         ---------------------------------------------------------

  ==> Geometry <==

    Molecular point group: c1
    Full point group: C1

    Geometry (in Angstrom), charge = 0, multiplicity = 1:

       Center              X                  Y                   Z               Mass
    ------------   -----------------  -----------------  -----------------  -----------------
         C           -0.054179391118    -4.666057657568    -0.719463063728    12.000000000000
         C           -1.021179391118    -0.684057657568     0.627536936272    12.000000000000
         C           -0.790179391118    -0.929057657568    -0.713463063728    12.000000000000
         C           -0.926179391118    -1.721057657568     1.540536936272    12.000000000000
         C           -0.465179391118    -2.214057657568    -1.143463063728    12.000000000000
         C           -0.597179391118    -3.007057657568     1.109536936272    12.000000000000
         C           -0.354179391118    -3.264057657568    -0.238463063728    12.000000000000
         O           -1.341179391118     0.577942342432     1.024536936272    15.994914619570
         H           -1.201179391118     1.214942342432     0.315536936272     1.007825032230
         H           -0.863179391118    -0.123057657568    -1.430463063728     1.007825032230
         H           -1.208179391118    -1.504057657568     2.549536936272     1.007825032230
         H           -0.295179391118    -2.394057657568    -2.197463063728     1.007825032230
         H           -0.550179391118    -3.815057657568     1.826536936272     1.007825032230
         H            0.452820608882    -5.204057657568     0.075536936272     1.007825032230
         H            0.602820608882    -4.602057657568    -1.584463063728     1.007825032230
         H           -0.968329391118    -5.209936657568    -0.999687063728     1.007825032230
         C            2.428820608882     3.936942342432    -1.181463063728    12.000000000000
         C            1.246820608882     3.486942342432    -0.327463063728    12.000000000000
         O            0.834820608882     2.325942342432    -0.325463063728    15.994914619570
         N            0.675820608882     4.435942342432     0.405536936272    14.003074004430
         H            3.101820608882     4.527942342432    -0.564463063728     1.007825032230
         H            2.031820608882     4.596942342432    -1.953463063728     1.007825032230
         H           -0.107179391118     4.184942342432     0.989536936272     1.007825032230
         H            1.016820608882     5.383942342432     0.369536936272     1.007825032230
         H            2.975245608882     3.116230342432    -1.669163063728     1.007825032230

  Running in c1 symmetry.

  Rotational constants: A =      0.06625  B =      0.01025  C =      0.00932 [cm^-1]
  Rotational constants: A =   1985.97642  B =    307.15782  C =    279.46628 [MHz]
  Nuclear repulsion =  636.193531286280290

  Charge       = 0
  Multiplicity = 1
  Electrons    = 90
  Nalpha       = 45
  Nbeta        = 45

  ==> Algorithm <==

  SCF Algorithm Type is PK.
  DIIS enabled.
  MOM disabled.
  Fractional occupation disabled.
  Guess Type is SAD.
  Energy threshold   = 1.00e-06
  Density threshold  = 1.00e-10
  Integral threshold = 0.00e+00

  ==> Primary Basis <==

  Basis Set: CC-PVDZ
    Blend: CC-PVDZ
    Number of shells: 111
    Number of basis function: 233
    Number of Cartesian functions: 245
    Spherical Harmonics?: true
    Max angular momentum: 2

  ==> Pre-Iterations <==

   -------------------------------------------------------
    Irrep   Nso     Nmo     Nalpha   Nbeta   Ndocc  Nsocc
   -------------------------------------------------------
     A        233     233       0       0       0       0
   -------------------------------------------------------
    Total     233     233      45      45      45       0
   -------------------------------------------------------

  ==> Integral Setup <==

  Using integral reordering PK algorithm.
  Sizing the integral batches needed.
  Building batch lookup table.
   Calculation information:
      Number of atoms:                  25
      Number of AO shells:             111
      Number of primitives:            329
      Number of atomic orbitals:       245
      Number of basis functions:       233

      Integral cutoff                 1.00e-12
      Number of threads:                 1

	Batch   1 pq = [       0,    9405] index = [             0,44231715] size =     44231715
	Batch   2 pq = [    9405,   13301] index = [      44231715,88464951] size =     44233236
	Batch   3 pq = [   13301,   16290] index = [      88464951,132690195] size =     44225244
	Batch   4 pq = [   16290,   18810] index = [     132690195,176917455] size =     44227260
	Batch   5 pq = [   18810,   21030] index = [     176917455,221140965] size =     44223510
	Batch   6 pq = [   21030,   23037] index = [     221140965,265363203] size =     44222238
	Batch   7 pq = [   23037,   24883] index = [     265363203,309594286] size =     44231083
	Batch   8 pq = [   24883,   26601] index = [     309594286,353819901] size =     44225615
	Batch   9 pq = [   26601,   27261] index = [     353819901,371594691] size =     17774790
  Task number: 34
  Buffer size: 11059200
  Buffer per thread: 2
  We computed 13374348 shell quartets total.
  Whereas there are 19322436 unique shell quartets.

  ==> DiskJK: Disk-Based J/K Matrices <==

    J tasked:                  Yes
    K tasked:                  Yes
    wK tasked:                  No
    Memory [MiB]:              375
    Schwarz Cutoff:          1E-12

    OpenMP threads:              1

  Minimum eigenvalue in the overlap matrix is 3.2526041562E-04.
  Using Symmetric Orthogonalization.

  SCF Guess: Superposition of Atomic Densities via on-the-fly atomic UHF.

  ==> Iterations <==

                        Total Energy        Delta E     RMS |[F,P]|

   @RHF iter SAD:  -551.27669462526478   -5.51277e+02   0.00000e+00
   @RHF iter   1:  -552.30571647255590   -1.02902e+00   3.19171e-03 DIIS
   @RHF iter   2:  -552.56007756916563   -2.54361e-01   1.64225e-03 DIIS
   @RHF iter   3:  -552.61748164804442   -5.74041e-02   3.83473e-04 DIIS
   @RHF iter   4:  -552.62204574943462   -4.56410e-03   1.54956e-04 DIIS
   @RHF iter   5:  -552.62280418580656   -7.58436e-04   2.42453e-05 DIIS
   @RHF iter   6:  -552.62284191821561   -3.77324e-05   1.17936e-05 DIIS
   @RHF iter   7:  -552.62284889031969   -6.97210e-06   4.37191e-06 DIIS
   @RHF iter   8:  -552.62285033915202   -1.44883e-06   1.77425e-06 DIIS
   @RHF iter   9:  -552.62285054414724   -2.04995e-07   6.81330e-07 DIIS
   @RHF iter  10:  -552.62285057623831   -3.20911e-08   2.12681e-07 DIIS
   @RHF iter  11:  -552.62285057953341   -3.29510e-09   7.03589e-08 DIIS
   @RHF iter  12:  -552.62285057988913   -3.55726e-10   2.99072e-08 DIIS
   @RHF iter  13:  -552.62285057996144   -7.23048e-11   1.25930e-08 DIIS
   @RHF iter  14:  -552.62285057998179   -2.03499e-11   6.02337e-09 DIIS
   @RHF iter  15:  -552.62285057998974   -7.95808e-12   2.34966e-09 DIIS
   @RHF iter  16:  -552.62285057998315    6.59384e-12   8.67957e-10 DIIS
   @RHF iter  17:  -552.62285057998827   -5.11591e-12   2.91735e-10 DIIS
   @RHF iter  18:  -552.62285057998690    1.36424e-12   7.95670e-11 DIIS
  Energy and wave function converged.

  ==> Post-Iterations <==

    Orbital Energies [Eh]
    ---------------------

    Doubly Occupied:

       1A    -20.554309     2A    -20.519213     3A    -15.598390
       4A    -11.361916     5A    -11.275192     6A    -11.252140
       7A    -11.221840     8A    -11.219839     9A    -11.216257
      10A    -11.215626    11A    -11.210585    12A    -11.210192
      13A     -1.379374    14A     -1.372848    15A     -1.227433
      16A     -1.133625    17A     -1.021460    18A     -1.008188
      19A     -0.998477    20A     -0.911360    21A     -0.827023
      22A     -0.809234    23A     -0.781876    24A     -0.738294
      25A     -0.710602    26A     -0.665148    27A     -0.648203
      28A     -0.624602    29A     -0.621632    30A     -0.590170
      31A     -0.582400    32A     -0.569797    33A     -0.567255
      34A     -0.564614    35A     -0.554692    36A     -0.547313
      37A     -0.531392    38A     -0.512269    39A     -0.479769
      40A     -0.465422    41A     -0.448716    42A     -0.422444
      43A     -0.416607    44A     -0.319528    45A     -0.283690

    Virtual:

      46A      0.148218    47A      0.156481    48A      0.175663
      49A      0.188943    50A      0.199241    51A      0.203543
      52A      0.222309    53A      0.227663    54A      0.232508
      55A      0.248542    56A      0.261802    57A      0.269103
      58A      0.272287    59A      0.286097    60A      0.299116
      61A      0.311786    62A      0.370143    63A      0.381777
      64A      0.394446    65A      0.452503    66A      0.463716
      67A      0.472461    68A      0.503955    69A      0.514851
      70A      0.520615    71A      0.534883    72A      0.618951
      73A      0.628310    74A      0.632402    75A      0.648627
      76A      0.664427    77A      0.677810    78A      0.689675
      79A      0.698672    80A      0.707417    81A      0.723412
      82A      0.727238    83A      0.732917    84A      0.734086
      85A      0.751240    86A      0.755605    87A      0.759232
      88A      0.786351    89A      0.790399    90A      0.806785
      91A      0.811738    92A      0.838054    93A      0.849040
      94A      0.851739    95A      0.865730    96A      0.872622
      97A      0.883871    98A      0.890432    99A      0.897823
     100A      0.905105   101A      0.910781   102A      0.919031
     103A      0.937263   104A      0.950629   105A      0.953456
     106A      0.954784   107A      0.966292   108A      0.993838
     109A      1.003717   110A      1.027900   111A      1.043894
     112A      1.058250   113A      1.070985   114A      1.120599
     115A      1.141766   116A      1.146304   117A      1.158843
     118A      1.166505   119A      1.188687   120A      1.216827
     121A      1.249248   122A      1.266122   123A      1.289495
     124A      1.296146   125A      1.315633   126A      1.324584
     127A      1.329936   128A      1.335136   129A      1.353068
     130A      1.358202   131A      1.376419   132A      1.386857
     133A      1.404297   134A      1.407197   135A      1.439496
     136A      1.469649   137A      1.488538   138A      1.510903
     139A      1.527189   140A      1.553394   141A      1.577734
     142A      1.636770   143A      1.647920   144A      1.651095
     145A      1.664879   146A      1.686648   147A      1.714965
     148A      1.727779   149A      1.747656   150A      1.759832
     151A      1.786891   152A      1.799707   153A      1.823807
     154A      1.829740   155A      1.843597   156A      1.874141
     157A      1.891602   158A      1.895122   159A      1.899660
     160A      1.909448   161A      1.916642   162A      1.930065
     163A      1.936134   164A      1.940665   165A      1.945121
     166A      1.960153   167A      1.972066   168A      1.976102
     169A      1.994124   170A      2.005319   171A      2.024598
     172A      2.051238   173A      2.066826   174A      2.068824
     175A      2.071722   176A      2.085335   177A      2.098552
     178A      2.119137   179A      2.158676   180A      2.168759
     181A      2.184718   182A      2.222678   183A      2.230283
     184A      2.243807   185A      2.255307   186A      2.285218
     187A      2.291160   188A      2.308405   189A      2.341294
     190A      2.387763   191A      2.398794   192A      2.436236
     193A      2.440656   194A      2.484981   195A      2.487714
     196A      2.493965   197A      2.519014   198A      2.542145
     199A      2.550940   200A      2.561427   201A      2.574733
     202A      2.604102   203A      2.618015   204A      2.673773
     205A      2.688310   206A      2.733558   207A      2.776710
     208A      2.785904   209A      2.789917   210A      2.810643
     211A      2.833182   212A      2.850824   213A      2.870074
     214A      2.913569   215A      2.972277   216A      2.974073
     217A      3.034511   218A      3.073604   219A      3.105748
     220A      3.120023   221A      3.123654   222A      3.279735
     223A      3.290169   224A      3.313461   225A      3.384658
     226A      3.490883   227A      3.518174   228A      3.604590
     229A      3.700196   230A      3.843056   231A      3.916593
     232A      4.007296   233A      4.226863

    Final Occupation by Irrep:
              A
    DOCC [    45 ]

  @RHF Final Energy:  -552.62285057998690

   => Energetics <=

    Nuclear Repulsion Energy =            636.1935312862802903
    One-Electron Energy =               -2015.2508549981967008
    Two-Electron Energy =                 826.4344731319296216
    Total Energy =                       -552.6228505799869026

Computation Completed

Properties will be evaluated at   0.000000,   0.000000,   0.000000 [a0]

Properties computed using the SCF density matrix

  Nuclear Dipole Moment: [e a0]
     X:     4.6716      Y:     0.1629      Z:    -4.0036

  Electronic Dipole Moment: [e a0]
     X:    -4.0757      Y:     1.8926      Z:     3.5822

  Dipole Moment: [e a0]
     X:     0.5960      Y:     2.0555      Z:    -0.4213     Total:     2.1813

  Dipole Moment: [D]
     X:     1.5148      Y:     5.2247      Z:    -1.0710     Total:     5.5442

*** tstop() called on ds3 at Sun Apr 26 18:04:24 2020
Module time:
	user time   =     110.99 seconds =       1.85 minutes
	system time =      59.66 seconds =       0.99 minutes
	total time  =        185 seconds =       3.08 minutes
Total time:
	user time   =     110.99 seconds =       1.85 minutes
	system time =      59.66 seconds =       0.99 minutes
	total time  =        185 seconds =       3.08 minutes
                                     G D M A

                                 by Anthony Stone

                           version 2.2.06, 22 June 2011

               Distributed Multipoles from Gaussian wavefunctions

Starting at 18:4:24 on 26 Apr 2020

Using SCF density matrix from file ./SSI/SSI-049TYR-102ASN-1-dimer.test.15952.fchk

                         Distributed Multipole Analysis

Standard DMA

Positions and radii in angstrom
Multipole moments in atomic units, ea_0^k for rank k

C          x = -0.054179  y = -4.666058  z = -0.719463 angstrom
           Maximum rank =  0   Radius =  0.650 angstrom
                   Q00  =  -0.194924

C          x = -1.021179  y = -0.684058  z =  0.627537 angstrom
           Maximum rank =  0   Radius =  0.650 angstrom
                   Q00  =   0.293993

C          x = -0.790179  y = -0.929058  z = -0.713463 angstrom
           Maximum rank =  0   Radius =  0.650 angstrom
                   Q00  =  -0.165589

C          x = -0.926179  y = -1.721058  z =  1.540537 angstrom
           Maximum rank =  0   Radius =  0.650 angstrom
                   Q00  =  -0.107708

C          x = -0.465179  y = -2.214058  z = -1.143463 angstrom
           Maximum rank =  0   Radius =  0.650 angstrom
                   Q00  =   0.055709

C          x = -0.597179  y = -3.007058  z =  1.109537 angstrom
           Maximum rank =  0   Radius =  0.650 angstrom
                   Q00  =  -0.055770

C          x = -0.354179  y = -3.264058  z = -0.238463 angstrom
           Maximum rank =  0   Radius =  0.650 angstrom
                   Q00  =  -0.147945

O          x = -1.341179  y =  0.577942  z =  1.024537 angstrom
           Maximum rank =  0   Radius =  0.650 angstrom
                   Q00  =  -0.666037

H          x = -1.201179  y =  1.214942  z =  0.315537 angstrom
           Maximum rank =  0   Radius =  0.325 angstrom
                   Q00  =   0.431185

H          x = -0.863179  y = -0.123058  z = -1.430463 angstrom
           Maximum rank =  0   Radius =  0.325 angstrom
                   Q00  =   0.075422

H          x = -1.208179  y = -1.504058  z =  2.549537 angstrom
           Maximum rank =  0   Radius =  0.325 angstrom
                   Q00  =   0.074539

H          x = -0.295179  y = -2.394058  z = -2.197463 angstrom
           Maximum rank =  0   Radius =  0.325 angstrom
                   Q00  =   0.060148

H          x = -0.550179  y = -3.815058  z =  1.826537 angstrom
           Maximum rank =  0   Radius =  0.325 angstrom
                   Q00  =   0.056877

H          x =  0.452821  y = -5.204058  z =  0.075537 angstrom
           Maximum rank =  0   Radius =  0.325 angstrom
                   Q00  =   0.094993

H          x =  0.602821  y = -4.602058  z = -1.584463 angstrom
           Maximum rank =  0   Radius =  0.325 angstrom
                   Q00  =   0.094165

H          x = -0.968329  y = -5.209937  z = -0.999687 angstrom
           Maximum rank =  0   Radius =  0.325 angstrom
                   Q00  =   0.095832

C          x =  2.428821  y =  3.936942  z = -1.181463 angstrom
           Maximum rank =  0   Radius =  0.650 angstrom
                   Q00  =  -0.260841

C          x =  1.246821  y =  3.486942  z = -0.327463 angstrom
           Maximum rank =  0   Radius =  0.650 angstrom
                   Q00  =   0.817203

O          x =  0.834821  y =  2.325942  z = -0.325463 angstrom
           Maximum rank =  0   Radius =  0.650 angstrom
                   Q00  =  -0.801754

N          x =  0.675821  y =  4.435942  z =  0.405537 angstrom
           Maximum rank =  0   Radius =  0.650 angstrom
                   Q00  =  -0.534297

H          x =  3.101821  y =  4.527942  z = -0.564463 angstrom
           Maximum rank =  0   Radius =  0.325 angstrom
                   Q00  =   0.099224

H          x =  2.031821  y =  4.596942  z = -1.953463 angstrom
           Maximum rank =  0   Radius =  0.325 angstrom
                   Q00  =   0.113153

H          x = -0.107179  y =  4.184942  z =  0.989537 angstrom
           Maximum rank =  0   Radius =  0.325 angstrom
                   Q00  =   0.227642

H          x =  1.016821  y =  5.383942  z =  0.369537 angstrom
           Maximum rank =  0   Radius =  0.325 angstrom
                   Q00  =   0.208537

H          x =  2.975246  y =  3.116230  z = -1.669163 angstrom
           Maximum rank =  0   Radius =  0.325 angstrom
                   Q00  =   0.136243

Total multipoles referred to origin at
           x =   0.000000,  y =    0.000000,  z =    0.000000 angstrom
                   Q00  =  -0.000000

Finished at 18:4:24 on 26 Apr 2020

  DMA results are available in the Python driver through the
	  variable('DMA DISTRIBUTED MULTIPOLES')
  and
	  variable('DMA TOTAL MULTIPOLES')
  commands.

    Psi4 stopped on: Sunday, 26 April 2020 06:04PM
    Psi4 wall time for execution: 0:03:05.61

*** Psi4 exiting successfully. Buy a developer a beer!
