                               Psi4 1.3.2 release

  ==> Input File <==

--------------------------------------------------------------------------
import numpy as np
set {scf_type pk
basis cc-pvdz
d_convergence 10
gdma_switch   0
gdma_limit    0
gdma_origin   [ 0.0,  0.0,  0.0 ]
}
molecule test {
    units Angstrom
    0 1
    --
    0 1
    C               -2.395371150203578    -0.062170000538748    -2.373409213842835
    C               -0.577371150203578    -0.255170000538748    -0.520409213842835
    C               -1.294371150203578    -0.711170000538748    -1.585409213842836
    C                0.105628849796422    -2.289170000538748    -0.975409213842836
    N                0.287628849796422    -1.250170000538748    -0.164409213842836
    N               -0.842371150203578    -1.989170000538748    -1.853409213842836
    H               -0.611371150203578     0.683829999461252     0.001590786157164
    H                0.953628849796422    -1.199170000538748     0.598590786157164
    H               -3.296371150203578    -0.106170000538748    -1.763409213842836
    H               -2.542371150203578    -0.676170000538748    -3.268409213842836
    H                0.604628849796422    -3.250170000538748    -0.983409213842836
    H               -2.199901150203578     0.973899999461252    -2.687019213842836
    C                1.438628849796422     1.601829999461252     1.882590786157164
    C                1.185628849796422     3.092829999461252     1.675590786157164
    C                1.788628849796422     1.319829999461252     3.346590786157164
    H                0.542628849796422     1.047829999461252     1.618590786157164
    H                2.255628849796422     1.286829999461252     1.241590786157164
    H                1.947628849796422     3.655829999461252     2.215590786157165
    H                1.119628849796422     1.911829999461252     3.972590786157165
    H                1.631628849796422     0.262829999461252     3.560590786157165
    H                0.183208849796422     3.325429999461252     2.064250786157165
    H                1.293238849796422     3.399729999461253     0.624780786157164
    H                2.832548849796422     1.581709999461252     3.573840786157165

}
e, wfn = energy('scf', return_wfn=True)
gdma(wfn)
dmavals = variable('DMA DISTRIBUTED MULTIPOLES')
charges = np.array(dmavals)
print(charges)
np.save('SSI-102HIE-127GLU-1-dimer.npy', np.array(charges))--------------------------------------------------------------------------

*** tstart() called on ds3
*** at Tue Apr 28 20:09:20 2020

   => Loading Basis Set <=

    Name: CC-PVDZ
    Role: ORBITAL
    Keyword: BASIS
    atoms 1-4, 13-15  entry C          line   138 file /theoryfs2/ds/metcalf/miniconda2/envs/tf2gpu/share/psi4/basis/cc-pvdz.gbs
    atoms 5-6         entry N          line   168 file /theoryfs2/ds/metcalf/miniconda2/envs/tf2gpu/share/psi4/basis/cc-pvdz.gbs
    atoms 7-12, 16-23 entry H          line    22 file /theoryfs2/ds/metcalf/miniconda2/envs/tf2gpu/share/psi4/basis/cc-pvdz.gbs

         ---------------------------------------------------------
                                   SCF
               by Justin Turney, Rob Parrish, Andy Simmonett
                          and Daniel G. A. Smith
                              RHF Reference
                        1 Threads,    500 MiB Core
         ---------------------------------------------------------

  ==> Geometry <==

    Molecular point group: c1
    Full point group: C1

    Geometry (in Angstrom), charge = 0, multiplicity = 1:

       Center              X                  Y                   Z               Mass
    ------------   -----------------  -----------------  -----------------  -----------------
         C           -2.395371150204    -0.062170000539    -2.373409213843    12.000000000000
         C           -0.577371150204    -0.255170000539    -0.520409213843    12.000000000000
         C           -1.294371150204    -0.711170000539    -1.585409213843    12.000000000000
         C            0.105628849796    -2.289170000539    -0.975409213843    12.000000000000
         N            0.287628849796    -1.250170000539    -0.164409213843    14.003074004430
         N           -0.842371150204    -1.989170000539    -1.853409213843    14.003074004430
         H           -0.611371150204     0.683829999461     0.001590786157     1.007825032230
         H            0.953628849796    -1.199170000539     0.598590786157     1.007825032230
         H           -3.296371150204    -0.106170000539    -1.763409213843     1.007825032230
         H           -2.542371150204    -0.676170000539    -3.268409213843     1.007825032230
         H            0.604628849796    -3.250170000539    -0.983409213843     1.007825032230
         H           -2.199901150204     0.973899999461    -2.687019213843     1.007825032230
         C            1.438628849796     1.601829999461     1.882590786157    12.000000000000
         C            1.185628849796     3.092829999461     1.675590786157    12.000000000000
         C            1.788628849796     1.319829999461     3.346590786157    12.000000000000
         H            0.542628849796     1.047829999461     1.618590786157     1.007825032230
         H            2.255628849796     1.286829999461     1.241590786157     1.007825032230
         H            1.947628849796     3.655829999461     2.215590786157     1.007825032230
         H            1.119628849796     1.911829999461     3.972590786157     1.007825032230
         H            1.631628849796     0.262829999461     3.560590786157     1.007825032230
         H            0.183208849796     3.325429999461     2.064250786157     1.007825032230
         H            1.293238849796     3.399729999461     0.624780786157     1.007825032230
         H            2.832548849796     1.581709999461     3.573840786157     1.007825032230

  Running in c1 symmetry.

  Rotational constants: A =      0.08912  B =      0.01912  C =      0.01627 [cm^-1]
  Rotational constants: A =   2671.66682  B =    573.05384  C =    487.78490 [MHz]
  Nuclear repulsion =  422.842384565155839

  Charge       = 0
  Multiplicity = 1
  Electrons    = 70
  Nalpha       = 35
  Nbeta        = 35

  ==> Algorithm <==

  SCF Algorithm Type is PK.
  DIIS enabled.
  MOM disabled.
  Fractional occupation disabled.
  Guess Type is SAD.
  Energy threshold   = 1.00e-06
  Density threshold  = 1.00e-10
  Integral threshold = 0.00e+00

  ==> Primary Basis <==

  Basis Set: CC-PVDZ
    Blend: CC-PVDZ
    Number of shells: 96
    Number of basis function: 196
    Number of Cartesian functions: 205
    Spherical Harmonics?: true
    Max angular momentum: 2

  ==> Pre-Iterations <==

   -------------------------------------------------------
    Irrep   Nso     Nmo     Nalpha   Nbeta   Ndocc  Nsocc
   -------------------------------------------------------
     A        196     196       0       0       0       0
   -------------------------------------------------------
    Total     196     196      35      35      35       0
   -------------------------------------------------------

  ==> Integral Setup <==

  Using integral reordering PK algorithm.
  Sizing the integral batches needed.
  Building batch lookup table.
   Calculation information:
      Number of atoms:                  23
      Number of AO shells:              96
      Number of primitives:            268
      Number of atomic orbitals:       205
      Number of basis functions:       196

      Integral cutoff                 1.00e-12
      Number of threads:                 1

	Batch   1 pq = [       0,    9405] index = [             0,44231715] size =     44231715
	Batch   2 pq = [    9405,   13301] index = [      44231715,88464951] size =     44233236
	Batch   3 pq = [   13301,   16290] index = [      88464951,132690195] size =     44225244
	Batch   4 pq = [   16290,   18810] index = [     132690195,176917455] size =     44227260
	Batch   5 pq = [   18810,   19306] index = [     176917455,186370471] size =      9453016
  Task number: 17
  Buffer size: 11059200
  Buffer per thread: 2
  We computed 8366148 shell quartets total.
  Whereas there are 10841496 unique shell quartets.

  ==> DiskJK: Disk-Based J/K Matrices <==

    J tasked:                  Yes
    K tasked:                  Yes
    wK tasked:                  No
    Memory [MiB]:              375
    Schwarz Cutoff:          1E-12

    OpenMP threads:              1

  Minimum eigenvalue in the overlap matrix is 1.0825789282E-03.
  Using Symmetric Orthogonalization.

  SCF Guess: Superposition of Atomic Densities via on-the-fly atomic UHF.

  ==> Iterations <==

                        Total Energy        Delta E     RMS |[F,P]|

   @RHF iter SAD:  -381.27135917398755   -3.81271e+02   0.00000e+00
   @RHF iter   1:  -381.89029766311586   -6.18938e-01   3.12800e-03 DIIS
   @RHF iter   2:  -382.08806794038486   -1.97770e-01   1.55455e-03 DIIS
   @RHF iter   3:  -382.13260429301681   -4.45364e-02   3.95861e-04 DIIS
   @RHF iter   4:  -382.13643671127721   -3.83242e-03   1.70731e-04 DIIS
   @RHF iter   5:  -382.13706101637047   -6.24305e-04   2.49941e-05 DIIS
   @RHF iter   6:  -382.13708408546859   -2.30691e-05   1.02268e-05 DIIS
   @RHF iter   7:  -382.13708769033099   -3.60486e-06   3.59734e-06 DIIS
   @RHF iter   8:  -382.13708842004138   -7.29710e-07   1.49401e-06 DIIS
   @RHF iter   9:  -382.13708858997455   -1.69933e-07   5.67106e-07 DIIS
   @RHF iter  10:  -382.13708861032751   -2.03530e-08   1.69032e-07 DIIS
   @RHF iter  11:  -382.13708861249893   -2.17142e-09   7.12035e-08 DIIS
   @RHF iter  12:  -382.13708861275848   -2.59547e-10   3.01582e-08 DIIS
   @RHF iter  13:  -382.13708861280628   -4.78053e-11   8.74739e-09 DIIS
   @RHF iter  14:  -382.13708861281049   -4.20641e-12   2.85953e-09 DIIS
   @RHF iter  15:  -382.13708861281305   -2.55795e-12   1.13211e-09 DIIS
   @RHF iter  16:  -382.13708861281071    2.33058e-12   4.02149e-10 DIIS
   @RHF iter  17:  -382.13708861281151   -7.95808e-13   1.46167e-10 DIIS
   @RHF iter  18:  -382.13708861281162   -1.13687e-13   4.27661e-11 DIIS
  Energy and wave function converged.

  ==> Post-Iterations <==

    Orbital Energies [Eh]
    ---------------------

    Doubly Occupied:

       1A    -15.619026     2A    -15.527280     3A    -11.288433
       4A    -11.246018     5A    -11.240052     6A    -11.232086
       7A    -11.228348     8A    -11.226903     9A    -11.221426
      10A     -1.340989    11A     -1.153082    12A     -1.068527
      13A     -1.027525    14A     -0.938327    15A     -0.932840
      16A     -0.816718    17A     -0.810644    18A     -0.766349
      19A     -0.735460    20A     -0.643825    21A     -0.610150
      22A     -0.606788    23A     -0.602556    24A     -0.596033
      25A     -0.553456    26A     -0.552813    27A     -0.546511
      28A     -0.532132    29A     -0.517056    30A     -0.485337
      31A     -0.482046    32A     -0.478564    33A     -0.410761
      34A     -0.377383    35A     -0.305233

    Virtual:

      36A      0.156498    37A      0.180631    38A      0.187272
      39A      0.205907    40A      0.217650    41A      0.218956
      42A      0.225042    43A      0.236755    44A      0.254528
      45A      0.259248    46A      0.266753    47A      0.275571
      48A      0.282592    49A      0.297457    50A      0.303944
      51A      0.320508    52A      0.367797    53A      0.389317
      54A      0.399630    55A      0.409454    56A      0.430706
      57A      0.470736    58A      0.492732    59A      0.582727
      60A      0.593787    61A      0.605824    62A      0.605978
      63A      0.622143    64A      0.654011    65A      0.657689
      66A      0.673181    67A      0.694198    68A      0.708681
      69A      0.723162    70A      0.745069    71A      0.752116
      72A      0.770670    73A      0.796460    74A      0.805528
      75A      0.816185    76A      0.837058    77A      0.848217
      78A      0.870827    79A      0.873151    80A      0.878133
      81A      0.881195    82A      0.884209    83A      0.893842
      84A      0.899059    85A      0.908786    86A      0.913320
      87A      0.922249    88A      0.936264    89A      0.938128
      90A      0.953546    91A      0.976340    92A      1.001342
      93A      1.028297    94A      1.052205    95A      1.064235
      96A      1.094115    97A      1.095669    98A      1.101660
      99A      1.114535   100A      1.139178   101A      1.160347
     102A      1.165362   103A      1.211043   104A      1.279247
     105A      1.297721   106A      1.311345   107A      1.326977
     108A      1.332584   109A      1.388675   110A      1.427356
     111A      1.443131   112A      1.467103   113A      1.469901
     114A      1.477568   115A      1.535026   116A      1.570975
     117A      1.587434   118A      1.617721   119A      1.629270
     120A      1.654251   121A      1.665979   122A      1.682614
     123A      1.692016   124A      1.707105   125A      1.720218
     126A      1.786196   127A      1.805782   128A      1.825488
     129A      1.849609   130A      1.853913   131A      1.867174
     132A      1.884346   133A      1.899583   134A      1.906244
     135A      1.911788   136A      1.921786   137A      1.928470
     138A      1.940427   139A      1.950269   140A      1.958615
     141A      1.969503   142A      1.977987   143A      1.986786
     144A      1.988639   145A      2.004758   146A      2.018930
     147A      2.025766   148A      2.039913   149A      2.072934
     150A      2.105549   151A      2.164045   152A      2.164666
     153A      2.174283   154A      2.201151   155A      2.242619
     156A      2.252987   157A      2.258230   158A      2.272381
     159A      2.306942   160A      2.313338   161A      2.347057
     162A      2.364955   163A      2.375244   164A      2.409136
     165A      2.472923   166A      2.476638   167A      2.486450
     168A      2.522499   169A      2.540267   170A      2.572502
     171A      2.609901   172A      2.624944   173A      2.652603
     174A      2.681135   175A      2.743272   176A      2.751096
     177A      2.757135   178A      2.772229   179A      2.777711
     180A      2.786093   181A      2.795607   182A      2.820105
     183A      2.832484   184A      2.867484   185A      2.874024
     186A      2.900434   187A      2.917988   188A      2.935320
     189A      2.957912   190A      2.977532   191A      3.054274
     192A      3.112539   193A      3.170793   194A      3.241731
     195A      3.485354   196A      3.800931

    Final Occupation by Irrep:
              A
    DOCC [    35 ]

  @RHF Final Energy:  -382.13708861281162

   => Energetics <=

    Nuclear Repulsion Energy =            422.8423845651558395
    One-Electron Energy =               -1354.5175935131082952
    Two-Electron Energy =                 549.5381203351408885
    Total Energy =                       -382.1370886128115671

Computation Completed

Properties will be evaluated at   0.000000,   0.000000,   0.000000 [a0]

Properties computed using the SCF density matrix

  Nuclear Dipole Moment: [e a0]
     X:     4.4212      Y:    12.1010      Z:    10.1022

  Electronic Dipole Moment: [e a0]
     X:    -3.6670      Y:   -11.6254      Z:    -9.0053

  Dipole Moment: [e a0]
     X:     0.7542      Y:     0.4756      Z:     1.0969     Total:     1.4136

  Dipole Moment: [D]
     X:     1.9170      Y:     1.2089      Z:     2.7881     Total:     3.5930

*** tstop() called on ds3 at Tue Apr 28 20:10:39 2020
Module time:
	user time   =      54.64 seconds =       0.91 minutes
	system time =      26.93 seconds =       0.45 minutes
	total time  =         79 seconds =       1.32 minutes
Total time:
	user time   =      54.64 seconds =       0.91 minutes
	system time =      26.93 seconds =       0.45 minutes
	total time  =         79 seconds =       1.32 minutes
                                     G D M A

                                 by Anthony Stone

                           version 2.2.06, 22 June 2011

               Distributed Multipoles from Gaussian wavefunctions

Starting at 20:10:39 on 28 Apr 2020

Using SCF density matrix from file ./SSI/SSI-102HIE-127GLU-1-dimer.test.11026.fchk

                         Distributed Multipole Analysis

Standard DMA

Positions and radii in angstrom
Multipole moments in atomic units, ea_0^k for rank k

C          x = -2.395371  y = -0.062170  z = -2.373409 angstrom
           Maximum rank =  0   Radius =  0.650 angstrom
                   Q00  =  -0.199757

C          x = -0.577371  y = -0.255170  z = -0.520409 angstrom
           Maximum rank =  0   Radius =  0.650 angstrom
                   Q00  =  -0.017356

C          x = -1.294371  y = -0.711170  z = -1.585409 angstrom
           Maximum rank =  0   Radius =  0.650 angstrom
                   Q00  =   0.236039

C          x =  0.105629  y = -2.289170  z = -0.975409 angstrom
           Maximum rank =  0   Radius =  0.650 angstrom
                   Q00  =   0.449225

N          x =  0.287629  y = -1.250170  z = -0.164409 angstrom
           Maximum rank =  0   Radius =  0.650 angstrom
                   Q00  =  -0.453351

N          x = -0.842371  y = -1.989170  z = -1.853409 angstrom
           Maximum rank =  0   Radius =  0.650 angstrom
                   Q00  =  -0.771573

H          x = -0.611371  y =  0.683830  z =  0.001591 angstrom
           Maximum rank =  0   Radius =  0.325 angstrom
                   Q00  =   0.097379

H          x =  0.953629  y = -1.199170  z =  0.598591 angstrom
           Maximum rank =  0   Radius =  0.325 angstrom
                   Q00  =   0.222254

H          x = -3.296371  y = -0.106170  z = -1.763409 angstrom
           Maximum rank =  0   Radius =  0.325 angstrom
                   Q00  =   0.101130

H          x = -2.542371  y = -0.676170  z = -3.268409 angstrom
           Maximum rank =  0   Radius =  0.325 angstrom
                   Q00  =   0.120442

H          x =  0.604629  y = -3.250170  z = -0.983409 angstrom
           Maximum rank =  0   Radius =  0.325 angstrom
                   Q00  =   0.124052

H          x = -2.199901  y =  0.973900  z = -2.687019 angstrom
           Maximum rank =  0   Radius =  0.325 angstrom
                   Q00  =   0.097009

C          x =  1.438629  y =  1.601830  z =  1.882591 angstrom
           Maximum rank =  0   Radius =  0.650 angstrom
                   Q00  =  -0.109445

C          x =  1.185629  y =  3.092830  z =  1.675591 angstrom
           Maximum rank =  0   Radius =  0.650 angstrom
                   Q00  =  -0.228155

C          x =  1.788629  y =  1.319830  z =  3.346591 angstrom
           Maximum rank =  0   Radius =  0.650 angstrom
                   Q00  =  -0.232781

H          x =  0.542629  y =  1.047830  z =  1.618591 angstrom
           Maximum rank =  0   Radius =  0.325 angstrom
                   Q00  =   0.034480

H          x =  2.255629  y =  1.286830  z =  1.241591 angstrom
           Maximum rank =  0   Radius =  0.325 angstrom
                   Q00  =   0.048409

H          x =  1.947629  y =  3.655830  z =  2.215591 angstrom
           Maximum rank =  0   Radius =  0.325 angstrom
                   Q00  =   0.076759

H          x =  1.119629  y =  1.911830  z =  3.972591 angstrom
           Maximum rank =  0   Radius =  0.325 angstrom
                   Q00  =   0.078640

H          x =  1.631629  y =  0.262830  z =  3.560591 angstrom
           Maximum rank =  0   Radius =  0.325 angstrom
                   Q00  =   0.076338

H          x =  0.183209  y =  3.325430  z =  2.064251 angstrom
           Maximum rank =  0   Radius =  0.325 angstrom
                   Q00  =   0.078451

H          x =  1.293239  y =  3.399730  z =  0.624781 angstrom
           Maximum rank =  0   Radius =  0.325 angstrom
                   Q00  =   0.086103

H          x =  2.832549  y =  1.581710  z =  3.573841 angstrom
           Maximum rank =  0   Radius =  0.325 angstrom
                   Q00  =   0.085708

Total multipoles referred to origin at
           x =   0.000000,  y =    0.000000,  z =    0.000000 angstrom
                   Q00  =  -0.000000

Finished at 20:10:39 on 28 Apr 2020

  DMA results are available in the Python driver through the
	  variable('DMA DISTRIBUTED MULTIPOLES')
  and
	  variable('DMA TOTAL MULTIPOLES')
  commands.

    Psi4 stopped on: Tuesday, 28 April 2020 08:10PM
    Psi4 wall time for execution: 0:01:18.71

*** Psi4 exiting successfully. Buy a developer a beer!
