                               Psi4 1.3.2 release

  ==> Input File <==

--------------------------------------------------------------------------
import numpy as np
set {scf_type pk
basis cc-pvdz
d_convergence 10
gdma_switch   0
gdma_limit    0
gdma_origin   [ 0.0,  0.0,  0.0 ]
}
molecule test {
    units Angstrom
    -1 1
    --
    -1 1
    C                1.137951650198595     1.329218587786871    -1.905920974912636
    C               -0.109048349801405     1.197218587786872    -1.057920974912636
    O               -0.250048349801405     1.939218587786871    -0.053920974912636
    O               -0.937048349801405     0.320218587786871    -1.398920974912636
    H                0.845951650198595     1.227218587786872    -2.953920974912636
    H                1.835951650198595     0.521218587786871    -1.678920974912636
    H                1.626631650198595     2.306578587786872    -1.779600974912636
    C               -0.168048349801405    -1.347781412213129     1.027079025087364
    C                1.331951650198595    -1.435781412213129     1.291079025087364
    C               -1.022048349801405    -1.997781412213129     2.099079025087364
    H               -0.455048349801405    -0.305781412213129     1.009079025087364
    H               -0.385048349801405    -1.815781412213129     0.066079025087364
    H                1.853951650198595    -0.963781412213129     0.457079025087364
    H                1.617951650198595    -2.489781412213129     1.308079025087364
    H               -0.791048349801405    -3.065781412213129     2.119079025087364
    H               -0.808048349801405    -1.582781412213129     3.085079025087364
    H                1.654181650198595    -0.962841412213129     2.230489025087364
    H               -2.095358349801405    -1.878601412213128     1.889809025087364

}
e, wfn = energy('scf', return_wfn=True)
gdma(wfn)
dmavals = variable('DMA DISTRIBUTED MULTIPOLES')
charges = np.array(dmavals)
print(charges)
np.save('SSI-122ASP-125LYS-1-dimer.npy', np.array(charges))--------------------------------------------------------------------------

*** tstart() called on ds3
*** at Mon Apr 27 18:53:34 2020

   => Loading Basis Set <=

    Name: CC-PVDZ
    Role: ORBITAL
    Keyword: BASIS
    atoms 1-2, 8-10  entry C          line   138 file /theoryfs2/ds/metcalf/miniconda2/envs/tf2gpu/share/psi4/basis/cc-pvdz.gbs
    atoms 3-4        entry O          line   198 file /theoryfs2/ds/metcalf/miniconda2/envs/tf2gpu/share/psi4/basis/cc-pvdz.gbs
    atoms 5-7, 11-18 entry H          line    22 file /theoryfs2/ds/metcalf/miniconda2/envs/tf2gpu/share/psi4/basis/cc-pvdz.gbs

         ---------------------------------------------------------
                                   SCF
               by Justin Turney, Rob Parrish, Andy Simmonett
                          and Daniel G. A. Smith
                              RHF Reference
                        1 Threads,    500 MiB Core
         ---------------------------------------------------------

  ==> Geometry <==

    Molecular point group: c1
    Full point group: C1

    Geometry (in Angstrom), charge = -1, multiplicity = 1:

       Center              X                  Y                   Z               Mass
    ------------   -----------------  -----------------  -----------------  -----------------
         C            1.137951650199     1.329218587787    -1.905920974913    12.000000000000
         C           -0.109048349801     1.197218587787    -1.057920974913    12.000000000000
         O           -0.250048349801     1.939218587787    -0.053920974913    15.994914619570
         O           -0.937048349801     0.320218587787    -1.398920974913    15.994914619570
         H            0.845951650199     1.227218587787    -2.953920974913     1.007825032230
         H            1.835951650199     0.521218587787    -1.678920974913     1.007825032230
         H            1.626631650199     2.306578587787    -1.779600974913     1.007825032230
         C           -0.168048349801    -1.347781412213     1.027079025087    12.000000000000
         C            1.331951650199    -1.435781412213     1.291079025087    12.000000000000
         C           -1.022048349801    -1.997781412213     2.099079025087    12.000000000000
         H           -0.455048349801    -0.305781412213     1.009079025087     1.007825032230
         H           -0.385048349801    -1.815781412213     0.066079025087     1.007825032230
         H            1.853951650199    -0.963781412213     0.457079025087     1.007825032230
         H            1.617951650199    -2.489781412213     1.308079025087     1.007825032230
         H           -0.791048349801    -3.065781412213     2.119079025087     1.007825032230
         H           -0.808048349801    -1.582781412213     3.085079025087     1.007825032230
         H            1.654181650199    -0.962841412213     2.230489025087     1.007825032230
         H           -2.095358349801    -1.878601412213     1.889809025087     1.007825032230

  Running in c1 symmetry.

  Rotational constants: A =      0.12738  B =      0.03790  C =      0.03493 [cm^-1]
  Rotational constants: A =   3818.83982  B =   1136.21201  C =   1047.06238 [MHz]
  Nuclear repulsion =  300.863743088742126

  Charge       = -1
  Multiplicity = 1
  Electrons    = 58
  Nalpha       = 29
  Nbeta        = 29

  ==> Algorithm <==

  SCF Algorithm Type is PK.
  DIIS enabled.
  MOM disabled.
  Fractional occupation disabled.
  Guess Type is SAD.
  Energy threshold   = 1.00e-06
  Density threshold  = 1.00e-10
  Integral threshold = 0.00e+00

  ==> Primary Basis <==

  Basis Set: CC-PVDZ
    Blend: CC-PVDZ
    Number of shells: 75
    Number of basis function: 153
    Number of Cartesian functions: 160
    Spherical Harmonics?: true
    Max angular momentum: 2

  ==> Pre-Iterations <==

   -------------------------------------------------------
    Irrep   Nso     Nmo     Nalpha   Nbeta   Ndocc  Nsocc
   -------------------------------------------------------
     A        153     153       0       0       0       0
   -------------------------------------------------------
    Total     153     153      29      29      29       0
   -------------------------------------------------------

  ==> Integral Setup <==

  Using integral reordering PK algorithm.
  Sizing the integral batches needed.
  Building batch lookup table.
   Calculation information:
      Number of atoms:                  18
      Number of AO shells:              75
      Number of primitives:            209
      Number of atomic orbitals:       160
      Number of basis functions:       153

      Integral cutoff                 1.00e-12
      Number of threads:                 1

	Batch   1 pq = [       0,    9405] index = [             0,44231715] size =     44231715
	Batch   2 pq = [    9405,   11781] index = [      44231715,69401871] size =     25170156
  Task number: 7
  Buffer size: 11059200
  Buffer per thread: 2
  We computed 3762916 shell quartets total.
  Whereas there are 4062675 unique shell quartets.

  ==> DiskJK: Disk-Based J/K Matrices <==

    J tasked:                  Yes
    K tasked:                  Yes
    wK tasked:                  No
    Memory [MiB]:              375
    Schwarz Cutoff:          1E-12

    OpenMP threads:              1

  Minimum eigenvalue in the overlap matrix is 4.8173177108E-03.
  Using Symmetric Orthogonalization.

  SCF Guess: Superposition of Atomic Densities via on-the-fly atomic UHF.

  ==> Iterations <==

                        Total Energy        Delta E     RMS |[F,P]|

   @RHF iter SAD:  -343.91529010725520   -3.43915e+02   0.00000e+00
   @RHF iter   1:  -345.21059164532971   -1.29530e+00   4.97015e-03 DIIS
   @RHF iter   2:  -345.44213479243592   -2.31543e-01   2.74665e-03 DIIS
   @RHF iter   3:  -345.50876748456102   -6.66327e-02   4.31305e-04 DIIS
   @RHF iter   4:  -345.51176032045839   -2.99284e-03   1.63272e-04 DIIS
   @RHF iter   5:  -345.51218418290819   -4.23862e-04   2.45537e-05 DIIS
   @RHF iter   6:  -345.51219639212502   -1.22092e-05   6.19882e-06 DIIS
   @RHF iter   7:  -345.51219717885255   -7.86728e-07   1.64820e-06 DIIS
   @RHF iter   8:  -345.51219723809641   -5.92439e-08   4.99034e-07 DIIS
   @RHF iter   9:  -345.51219724419093   -6.09452e-09   2.31483e-07 DIIS
   @RHF iter  10:  -345.51219724543142   -1.24049e-09   9.93006e-08 DIIS
   @RHF iter  11:  -345.51219724581284   -3.81419e-10   2.96188e-08 DIIS
   @RHF iter  12:  -345.51219724586400   -5.11591e-11   8.55218e-09 DIIS
   @RHF iter  13:  -345.51219724586571   -1.70530e-12   2.74086e-09 DIIS
   @RHF iter  14:  -345.51219724586559    1.13687e-13   9.03828e-10 DIIS
   @RHF iter  15:  -345.51219724586792   -2.33058e-12   3.25463e-10 DIIS
   @RHF iter  16:  -345.51219724586514    2.78533e-12   1.20242e-10 DIIS
   @RHF iter  17:  -345.51219724586662   -1.47793e-12   5.34148e-11 DIIS
  Energy and wave function converged.

  ==> Post-Iterations <==

    Orbital Energies [Eh]
    ---------------------

    Doubly Occupied:

       1A    -20.263705     2A    -20.260421     3A    -11.117850
       4A    -11.089115     5A    -11.087021     6A    -11.062530
       7A    -11.051618     8A     -1.149223     9A     -1.037460
      10A     -0.916742    11A     -0.799161    12A     -0.796719
      13A     -0.654771    14A     -0.503405    15A     -0.490957
      16A     -0.462853    17A     -0.423359    18A     -0.412056
      19A     -0.408585    20A     -0.405435    21A     -0.403454
      22A     -0.343573    23A     -0.338962    24A     -0.333615
      25A     -0.326831    26A     -0.291882    27A     -0.184263
      28A     -0.175216    29A     -0.163188

    Virtual:

      30A      0.303294    31A      0.336625    32A      0.357336
      33A      0.358142    34A      0.381742    35A      0.396585
      36A      0.411100    37A      0.415831    38A      0.418145
      39A      0.444703    40A      0.482996    41A      0.498305
      42A      0.529836    43A      0.567279    44A      0.584844
      45A      0.692552    46A      0.707179    47A      0.710693
      48A      0.747082    49A      0.754644    50A      0.767420
      51A      0.827404    52A      0.843598    53A      0.864826
      54A      0.923118    55A      0.937876    56A      0.959064
      57A      0.982909    58A      1.008084    59A      1.013421
      60A      1.019702    61A      1.023590    62A      1.037053
      63A      1.039525    64A      1.043542    65A      1.053225
      66A      1.060431    67A      1.074259    68A      1.095872
      69A      1.107107    70A      1.129687    71A      1.137433
      72A      1.162264    73A      1.238124    74A      1.260509
      75A      1.282192    76A      1.335486    77A      1.348725
      78A      1.393013    79A      1.413622    80A      1.510009
      81A      1.551611    82A      1.565447    83A      1.589500
      84A      1.601862    85A      1.623944    86A      1.644404
      87A      1.660259    88A      1.685995    89A      1.733921
      90A      1.744881    91A      1.809060    92A      1.812220
      93A      1.824700    94A      1.839639    95A      1.852601
      96A      1.866930    97A      2.008937    98A      2.015463
      99A      2.035544   100A      2.040878   101A      2.050286
     102A      2.056723   103A      2.079125   104A      2.092054
     105A      2.098481   106A      2.116674   107A      2.121464
     108A      2.144551   109A      2.151907   110A      2.154005
     111A      2.175220   112A      2.200722   113A      2.227083
     114A      2.265885   115A      2.282326   116A      2.295368
     117A      2.375075   118A      2.428586   119A      2.432680
     120A      2.449844   121A      2.467483   122A      2.483250
     123A      2.504439   124A      2.593401   125A      2.653713
     126A      2.676052   127A      2.684085   128A      2.719516
     129A      2.730246   130A      2.755856   131A      2.768399
     132A      2.789943   133A      2.880555   134A      2.900500
     135A      2.906671   136A      2.920546   137A      2.958586
     138A      2.973908   139A      2.987977   140A      3.065768
     141A      3.121168   142A      3.141461   143A      3.213203
     144A      3.245067   145A      3.276934   146A      3.308865
     147A      3.366636   148A      3.629078   149A      3.786211
     150A      3.834505   151A      4.062509   152A      4.080417
     153A      4.186284

    Final Occupation by Irrep:
              A
    DOCC [    29 ]

  @RHF Final Energy:  -345.51219724586662

   => Energetics <=

    Nuclear Repulsion Energy =            300.8637430887421260
    One-Electron Energy =               -1078.8439394631739106
    Two-Electron Energy =                 432.4679991285651681
    Total Energy =                       -345.5121972458666164

Computation Completed

Properties will be evaluated at   0.000000,   0.000000,   0.000000 [a0]

Properties computed using the SCF density matrix

  Nuclear Dipole Moment: [e a0]
     X:     4.5880      Y:    -8.4359      Z:     5.3857

  Electronic Dipole Moment: [e a0]
     X:    -3.4342      Y:     6.8383      Z:    -4.6074

  Dipole Moment: [e a0]
     X:     1.1538      Y:    -1.5975      Z:     0.7782     Total:     2.1187

  Dipole Moment: [D]
     X:     2.9326      Y:    -4.0605      Z:     1.9780     Total:     5.3852

*** tstop() called on ds3 at Mon Apr 27 18:54:08 2020
Module time:
	user time   =      23.84 seconds =       0.40 minutes
	system time =      10.03 seconds =       0.17 minutes
	total time  =         34 seconds =       0.57 minutes
Total time:
	user time   =      23.84 seconds =       0.40 minutes
	system time =      10.03 seconds =       0.17 minutes
	total time  =         34 seconds =       0.57 minutes
                                     G D M A

                                 by Anthony Stone

                           version 2.2.06, 22 June 2011

               Distributed Multipoles from Gaussian wavefunctions

Starting at 18:54:8 on 27 Apr 2020

Using SCF density matrix from file ./SSI/SSI-122ASP-125LYS-1-dimer.test.30649.fchk

                         Distributed Multipole Analysis

Standard DMA

Positions and radii in angstrom
Multipole moments in atomic units, ea_0^k for rank k

C          x =  1.137952  y =  1.329219  z = -1.905921 angstrom
           Maximum rank =  0   Radius =  0.650 angstrom
                   Q00  =  -0.271709

C          x = -0.109048  y =  1.197219  z = -1.057921 angstrom
           Maximum rank =  0   Radius =  0.650 angstrom
                   Q00  =   0.955914

O          x = -0.250048  y =  1.939219  z = -0.053921 angstrom
           Maximum rank =  0   Radius =  0.650 angstrom
                   Q00  =  -0.922905

O          x = -0.937048  y =  0.320219  z = -1.398921 angstrom
           Maximum rank =  0   Radius =  0.650 angstrom
                   Q00  =  -0.919781

H          x =  0.845952  y =  1.227219  z = -2.953921 angstrom
           Maximum rank =  0   Radius =  0.325 angstrom
                   Q00  =   0.057353

H          x =  1.835952  y =  0.521219  z = -1.678921 angstrom
           Maximum rank =  0   Radius =  0.325 angstrom
                   Q00  =   0.074277

H          x =  1.626632  y =  2.306579  z = -1.779601 angstrom
           Maximum rank =  0   Radius =  0.325 angstrom
                   Q00  =   0.048097

C          x = -0.168048  y = -1.347781  z =  1.027079 angstrom
           Maximum rank =  0   Radius =  0.650 angstrom
                   Q00  =   0.032208

C          x =  1.331952  y = -1.435781  z =  1.291079 angstrom
           Maximum rank =  0   Radius =  0.650 angstrom
                   Q00  =  -0.260641

C          x = -1.022048  y = -1.997781  z =  2.099079 angstrom
           Maximum rank =  0   Radius =  0.650 angstrom
                   Q00  =  -0.256521

H          x = -0.455048  y = -0.305781  z =  1.009079 angstrom
           Maximum rank =  0   Radius =  0.325 angstrom
                   Q00  =   0.075349

H          x = -0.385048  y = -1.815781  z =  0.066079 angstrom
           Maximum rank =  0   Radius =  0.325 angstrom
                   Q00  =   0.048233

H          x =  1.853952  y = -0.963781  z =  0.457079 angstrom
           Maximum rank =  0   Radius =  0.325 angstrom
                   Q00  =   0.090710

H          x =  1.617952  y = -2.489781  z =  1.308079 angstrom
           Maximum rank =  0   Radius =  0.325 angstrom
                   Q00  =   0.029257

H          x = -0.791048  y = -3.065781  z =  2.119079 angstrom
           Maximum rank =  0   Radius =  0.325 angstrom
                   Q00  =   0.028305

H          x = -0.808048  y = -1.582781  z =  3.085079 angstrom
           Maximum rank =  0   Radius =  0.325 angstrom
                   Q00  =   0.054311

H          x =  1.654182  y = -0.962841  z =  2.230489 angstrom
           Maximum rank =  0   Radius =  0.325 angstrom
                   Q00  =   0.060186

H          x = -2.095358  y = -1.878601  z =  1.889809 angstrom
           Maximum rank =  0   Radius =  0.325 angstrom
                   Q00  =   0.077357

Total multipoles referred to origin at
           x =   0.000000,  y =    0.000000,  z =    0.000000 angstrom
                   Q00  =  -1.000000

Finished at 18:54:8 on 27 Apr 2020

  DMA results are available in the Python driver through the
	  variable('DMA DISTRIBUTED MULTIPOLES')
  and
	  variable('DMA TOTAL MULTIPOLES')
  commands.

    Psi4 stopped on: Monday, 27 April 2020 06:54PM
    Psi4 wall time for execution: 0:00:33.40

*** Psi4 exiting successfully. Buy a developer a beer!
