                               Psi4 1.3.2 release

  ==> Input File <==

--------------------------------------------------------------------------
import numpy as np
set {scf_type pk
basis cc-pvdz
d_convergence 10
gdma_switch   0
gdma_limit    0
gdma_origin   [ 0.0,  0.0,  0.0 ]
}
molecule test {
    units Angstrom
    0 1
    --
    0 1
    C               -0.353431247718041     1.057279586162266    -1.429890318723392
    C                0.530568752281959     2.065279586162267    -2.162890318723392
    H                0.096568752281959     0.067279586162267    -1.438890318723392
    H               -0.495431247718041     1.362279586162267    -0.393890318723392
    H               -1.329431247718041     1.007279586162267    -1.913890318723392
    H                0.022568752281959     3.027279586162267    -2.170890318723392
    H                0.693688752281959     1.745839586162266    -3.202770318723392
    H                1.490718752281959     2.182859586162266    -1.639170318723392
    C               -0.168431247718041    -1.858720413837734     1.100109681276608
    C               -0.005431247718041    -1.268720413837733     2.493109681276608
    H               -0.596431247718041    -2.859720413837734     1.165109681276608
    H               -0.835431247718041    -1.230720413837733     0.510109681276608
    H                0.801568752281959    -1.906720413837734     0.608109681276608
    H                0.450568752281959    -0.284720413837733     2.386109681276608
    H                0.648878752281959    -1.902900413837733     3.109309681276608
    H               -0.986831247718041    -1.149910413837734     2.975529681276608

}
e, wfn = energy('scf', return_wfn=True)
gdma(wfn)
dmavals = variable('DMA DISTRIBUTED MULTIPOLES')
charges = np.array(dmavals)
print(charges)
np.save('SSI-097ALA-105LEU-1-dimer.npy', np.array(charges))--------------------------------------------------------------------------

*** tstart() called on ds3
*** at Mon Apr 27 14:26:18 2020

   => Loading Basis Set <=

    Name: CC-PVDZ
    Role: ORBITAL
    Keyword: BASIS
    atoms 1-2, 9-10  entry C          line   138 file /theoryfs2/ds/metcalf/miniconda2/envs/tf2gpu/share/psi4/basis/cc-pvdz.gbs
    atoms 3-8, 11-16 entry H          line    22 file /theoryfs2/ds/metcalf/miniconda2/envs/tf2gpu/share/psi4/basis/cc-pvdz.gbs

         ---------------------------------------------------------
                                   SCF
               by Justin Turney, Rob Parrish, Andy Simmonett
                          and Daniel G. A. Smith
                              RHF Reference
                        1 Threads,    500 MiB Core
         ---------------------------------------------------------

  ==> Geometry <==

    Molecular point group: c1
    Full point group: C1

    Geometry (in Angstrom), charge = 0, multiplicity = 1:

       Center              X                  Y                   Z               Mass
    ------------   -----------------  -----------------  -----------------  -----------------
         C           -0.353431247718     1.057279586162    -1.429890318723    12.000000000000
         C            0.530568752282     2.065279586162    -2.162890318723    12.000000000000
         H            0.096568752282     0.067279586162    -1.438890318723     1.007825032230
         H           -0.495431247718     1.362279586162    -0.393890318723     1.007825032230
         H           -1.329431247718     1.007279586162    -1.913890318723     1.007825032230
         H            0.022568752282     3.027279586162    -2.170890318723     1.007825032230
         H            0.693688752282     1.745839586162    -3.202770318723     1.007825032230
         H            1.490718752282     2.182859586162    -1.639170318723     1.007825032230
         C           -0.168431247718    -1.858720413838     1.100109681277    12.000000000000
         C           -0.005431247718    -1.268720413838     2.493109681277    12.000000000000
         H           -0.596431247718    -2.859720413838     1.165109681277     1.007825032230
         H           -0.835431247718    -1.230720413838     0.510109681277     1.007825032230
         H            0.801568752282    -1.906720413838     0.608109681277     1.007825032230
         H            0.450568752282    -0.284720413838     2.386109681277     1.007825032230
         H            0.648878752282    -1.902900413838     3.109309681277     1.007825032230
         H           -0.986831247718    -1.149910413838     2.975529681277     1.007825032230

  Running in c1 symmetry.

  Rotational constants: A =      0.49894  B =      0.04508  C =      0.04363 [cm^-1]
  Rotational constants: A =  14957.83342  B =   1351.32600  C =   1307.84963 [MHz]
  Nuclear repulsion =  120.946431400454443

  Charge       = 0
  Multiplicity = 1
  Electrons    = 36
  Nalpha       = 18
  Nbeta        = 18

  ==> Algorithm <==

  SCF Algorithm Type is PK.
  DIIS enabled.
  MOM disabled.
  Fractional occupation disabled.
  Guess Type is SAD.
  Energy threshold   = 1.00e-06
  Density threshold  = 1.00e-10
  Integral threshold = 0.00e+00

  ==> Primary Basis <==

  Basis Set: CC-PVDZ
    Blend: CC-PVDZ
    Number of shells: 60
    Number of basis function: 116
    Number of Cartesian functions: 120
    Spherical Harmonics?: true
    Max angular momentum: 2

  ==> Pre-Iterations <==

   -------------------------------------------------------
    Irrep   Nso     Nmo     Nalpha   Nbeta   Ndocc  Nsocc
   -------------------------------------------------------
     A        116     116       0       0       0       0
   -------------------------------------------------------
    Total     116     116      18      18      18       0
   -------------------------------------------------------

  ==> Integral Setup <==

  Using integral reordering PK algorithm.
  Sizing the integral batches needed.
  Building batch lookup table.
   Calculation information:
      Number of atoms:                  16
      Number of AO shells:              60
      Number of primitives:            148
      Number of atomic orbitals:       120
      Number of basis functions:       116

      Integral cutoff                 1.00e-12
      Number of threads:                 1

	Batch   1 pq = [       0,    6786] index = [             0,23028291] size =     23028291
  Task number: 3
  Buffer size: 11059200
  Buffer per thread: 2
  We computed 1390664 shell quartets total.
  Whereas there are 1675365 unique shell quartets.

  ==> DiskJK: Disk-Based J/K Matrices <==

    J tasked:                  Yes
    K tasked:                  Yes
    wK tasked:                  No
    Memory [MiB]:              375
    Schwarz Cutoff:          1E-12

    OpenMP threads:              1

  Minimum eigenvalue in the overlap matrix is 6.8572948426E-03.
  Using Symmetric Orthogonalization.

  SCF Guess: Superposition of Atomic Densities via on-the-fly atomic UHF.

  ==> Iterations <==

                        Total Energy        Delta E     RMS |[F,P]|

   @RHF iter SAD:  -157.35767153102444   -1.57358e+02   0.00000e+00
   @RHF iter   1:  -158.30753963969309   -9.49868e-01   4.22846e-03 DIIS
   @RHF iter   2:  -158.44148253406436   -1.33943e-01   1.80843e-03 DIIS
   @RHF iter   3:  -158.46518076470829   -2.36982e-02   3.50485e-04 DIIS
   @RHF iter   4:  -158.46702321666950   -1.84245e-03   3.89929e-05 DIIS
   @RHF iter   5:  -158.46704729991134   -2.40832e-05   6.56829e-06 DIIS
   @RHF iter   6:  -158.46704794236086   -6.42450e-07   1.07213e-06 DIIS
   @RHF iter   7:  -158.46704795374080   -1.13799e-08   3.15313e-07 DIIS
   @RHF iter   8:  -158.46704795459885   -8.58051e-10   3.90320e-08 DIIS
   @RHF iter   9:  -158.46704795462364   -2.47837e-11   7.46266e-09 DIIS
   @RHF iter  10:  -158.46704795462449   -8.52651e-13   2.03256e-09 DIIS
   @RHF iter  11:  -158.46704795462483   -3.41061e-13   5.85818e-10 DIIS
   @RHF iter  12:  -158.46704795462432    5.11591e-13   1.50669e-10 DIIS
   @RHF iter  13:  -158.46704795462426    5.68434e-14   2.36590e-11 DIIS
  Energy and wave function converged.

  ==> Post-Iterations <==

    Orbital Energies [Eh]
    ---------------------

    Doubly Occupied:

       1A    -11.219451     2A    -11.218308     3A    -11.216575
       4A    -11.215071     5A     -1.020317     6A     -1.018218
       7A     -0.838667     8A     -0.833674     9A     -0.601830
      10A     -0.599231    11A     -0.597890    12A     -0.595433
      13A     -0.504502    14A     -0.497939    15A     -0.487539
      16A     -0.487118    17A     -0.484999    18A     -0.480352

    Virtual:

      19A      0.170791    20A      0.196323    21A      0.225445
      22A      0.233145    23A      0.242934    24A      0.259778
      25A      0.263179    26A      0.273723    27A      0.283209
      28A      0.289017    29A      0.302738    30A      0.321283
      31A      0.393544    32A      0.417564    33A      0.579557
      34A      0.595857    35A      0.600371    36A      0.604477
      37A      0.611440    38A      0.634452    39A      0.657366
      40A      0.683360    41A      0.689603    42A      0.777198
      43A      0.845710    44A      0.864354    45A      0.887287
      46A      0.890361    47A      0.894331    48A      0.895021
      49A      0.900429    50A      0.904324    51A      0.907315
      52A      0.916048    53A      0.925105    54A      0.959961
      55A      0.980780    56A      0.987916    57A      1.126041
      58A      1.126747    59A      1.131699    60A      1.151101
      61A      1.232301    62A      1.254931    63A      1.470115
      64A      1.475811    65A      1.477508    66A      1.490189
      67A      1.550183    68A      1.584749    69A      1.680134
      70A      1.680555    71A      1.693757    72A      1.696097
      73A      1.850364    74A      1.855557    75A      1.865445
      76A      1.886830    77A      1.903498    78A      1.918383
      79A      1.936536    80A      1.941990    81A      1.945845
      82A      1.949629    83A      1.951969    84A      1.958479
      85A      1.961335    86A      1.970444    87A      1.990007
      88A      2.007506    89A      2.095095    90A      2.100518
      91A      2.113298    92A      2.122168    93A      2.295008
      94A      2.302591    95A      2.312848    96A      2.322512
      97A      2.446129    98A      2.461142    99A      2.465430
     100A      2.477069   101A      2.560273   102A      2.561634
     103A      2.572565   104A      2.580056   105A      2.759529
     106A      2.763330   107A      2.785894   108A      2.798421
     109A      2.845522   110A      2.852151   111A      2.856218
     112A      2.859392   113A      2.938207   114A      2.951173
     115A      2.962642   116A      2.973848

    Final Occupation by Irrep:
              A
    DOCC [    18 ]

  @RHF Final Energy:  -158.46704795462426

   => Energetics <=

    Nuclear Repulsion Energy =            120.9464314004544434
    One-Electron Energy =                -450.9927290397303068
    Two-Electron Energy =                 171.5792496846515860
    Total Energy =                       -158.4670479546242632

Computation Completed

Properties will be evaluated at   0.000000,   0.000000,   0.000000 [a0]

Properties computed using the SCF density matrix

  Nuclear Dipole Moment: [e a0]
     X:    -0.0366      Y:     0.0545      Z:    -0.0049

  Electronic Dipole Moment: [e a0]
     X:     0.0257      Y:    -0.0467      Z:    -0.0067

  Dipole Moment: [e a0]
     X:    -0.0108      Y:     0.0078      Z:    -0.0116     Total:     0.0177

  Dipole Moment: [D]
     X:    -0.0275      Y:     0.0198      Z:    -0.0294     Total:     0.0449

*** tstop() called on ds3 at Mon Apr 27 14:26:40 2020
Module time:
	user time   =       7.17 seconds =       0.12 minutes
	system time =       2.81 seconds =       0.05 minutes
	total time  =         22 seconds =       0.37 minutes
Total time:
	user time   =       7.17 seconds =       0.12 minutes
	system time =       2.81 seconds =       0.05 minutes
	total time  =         22 seconds =       0.37 minutes
                                     G D M A

                                 by Anthony Stone

                           version 2.2.06, 22 June 2011

               Distributed Multipoles from Gaussian wavefunctions

Starting at 14:26:40 on 27 Apr 2020

Using SCF density matrix from file ./SSI/SSI-097ALA-105LEU-1-dimer.test.9289.fchk

                         Distributed Multipole Analysis

Standard DMA

Positions and radii in angstrom
Multipole moments in atomic units, ea_0^k for rank k

C          x = -0.353431  y =  1.057280  z = -1.429890 angstrom
           Maximum rank =  0   Radius =  0.650 angstrom
                   Q00  =  -0.231186

C          x =  0.530569  y =  2.065280  z = -2.162890 angstrom
           Maximum rank =  0   Radius =  0.650 angstrom
                   Q00  =  -0.243707

H          x =  0.096569  y =  0.067280  z = -1.438890 angstrom
           Maximum rank =  0   Radius =  0.325 angstrom
                   Q00  =   0.081839

H          x = -0.495431  y =  1.362280  z = -0.393890 angstrom
           Maximum rank =  0   Radius =  0.325 angstrom
                   Q00  =   0.077553

H          x = -1.329431  y =  1.007280  z = -1.913890 angstrom
           Maximum rank =  0   Radius =  0.325 angstrom
                   Q00  =   0.078538

H          x =  0.022569  y =  3.027280  z = -2.170890 angstrom
           Maximum rank =  0   Radius =  0.325 angstrom
                   Q00  =   0.079019

H          x =  0.693689  y =  1.745840  z = -3.202770 angstrom
           Maximum rank =  0   Radius =  0.325 angstrom
                   Q00  =   0.080143

H          x =  1.490719  y =  2.182860  z = -1.639170 angstrom
           Maximum rank =  0   Radius =  0.325 angstrom
                   Q00  =   0.079068

C          x = -0.168431  y = -1.858720  z =  1.100110 angstrom
           Maximum rank =  0   Radius =  0.650 angstrom
                   Q00  =  -0.237106

C          x = -0.005431  y = -1.268720  z =  2.493110 angstrom
           Maximum rank =  0   Radius =  0.650 angstrom
                   Q00  =  -0.233427

H          x = -0.596431  y = -2.859720  z =  1.165110 angstrom
           Maximum rank =  0   Radius =  0.325 angstrom
                   Q00  =   0.076896

H          x = -0.835431  y = -1.230720  z =  0.510110 angstrom
           Maximum rank =  0   Radius =  0.325 angstrom
                   Q00  =   0.082717

H          x =  0.801569  y = -1.906720  z =  0.608110 angstrom
           Maximum rank =  0   Radius =  0.325 angstrom
                   Q00  =   0.077279

H          x =  0.450569  y = -0.284720  z =  2.386110 angstrom
           Maximum rank =  0   Radius =  0.325 angstrom
                   Q00  =   0.075743

H          x =  0.648879  y = -1.902900  z =  3.109310 angstrom
           Maximum rank =  0   Radius =  0.325 angstrom
                   Q00  =   0.078686

H          x = -0.986831  y = -1.149910  z =  2.975530 angstrom
           Maximum rank =  0   Radius =  0.325 angstrom
                   Q00  =   0.077944

Total multipoles referred to origin at
           x =   0.000000,  y =    0.000000,  z =    0.000000 angstrom
                   Q00  =  -0.000000

Finished at 14:26:40 on 27 Apr 2020

  DMA results are available in the Python driver through the
	  variable('DMA DISTRIBUTED MULTIPOLES')
  and
	  variable('DMA TOTAL MULTIPOLES')
  commands.

    Psi4 stopped on: Monday, 27 April 2020 02:26PM
    Psi4 wall time for execution: 0:00:21.79

*** Psi4 exiting successfully. Buy a developer a beer!
