                               Psi4 1.3.2 release

  ==> Input File <==

--------------------------------------------------------------------------
import numpy as np
set {scf_type pk
basis cc-pvdz
d_convergence 10
gdma_switch   0
gdma_limit    0
gdma_origin   [ 0.0,  0.0,  0.0 ]
}
molecule test {
    units Angstrom
    0 1
    --
    0 1
    C                0.114461919825302    -1.582955505552408    -1.352316957624248
    C               -0.744538080174698    -2.634955505552408    -2.061316957624248
    C               -0.342538080174698    -0.174955505552408    -1.639316957624248
    C                0.019461919825302     0.454044494447592    -2.827316957624247
    C               -1.167538080174698     0.501044494447592    -0.741316957624247
    C               -0.413538080174698     1.744044494447592    -3.109316957624248
    C               -1.609538080174699     1.791044494447592    -1.016316957624248
    C               -1.229538080174698     2.413044494447592    -2.203316957624248
    O               -1.652538080174699     3.675044494447592    -2.483316957624247
    H                0.057461919825302    -1.766955505552408    -0.281316957624248
    H                1.154461919825301    -1.692955505552408    -1.663316957624247
    H               -0.660538080174698    -2.455955505552408    -3.134316957624248
    H                0.646461919825302    -0.065955505552408    -3.540316957624248
    H               -1.440538080174699     0.024044494447592     0.186683042375752
    H               -0.124538080174698     2.225044494447592    -4.030316957624247
    H               -2.240538080174698     2.311044494447592    -0.315316957624248
    H               -1.345538080174699     3.946044494447592    -3.368316957624248
    H               -1.798808080174698    -2.526306505552408    -1.766836957624248
    H               -0.344578080174698    -3.642049505552408    -1.872126957624248
    C                1.607461919825302    -3.262955505552408     2.159683042375752
    C                1.709461919825302    -0.822955505552408     1.568683042375753
    C                1.270461919825302    -1.824955505552408     2.429683042375752
    C                1.392461919825301     0.509044494447592     1.814683042375752
    C                0.630461919825302     0.846044494447592     2.927683042375752
    C                0.513461919825302    -1.478955505552408     3.543683042375752
    C                0.194461919825302    -0.147955505552408     3.794683042375752
    H                2.305461919825302    -1.077955505552408     0.702683042375752
    H                1.731461919825301     1.277044494447592     1.133683042375752
    H                1.492461919825302    -3.440955505552408     1.089683042375752
    H                0.889461919825302    -3.905955505552408     2.670683042375752
    H                0.351461919825302     1.871044494447592     3.100683042375752
    H                0.175461919825302    -2.246955505552408     4.226683042375752
    H               -0.407538080174698     0.108044494447592     4.656683042375753
    H                2.627501919825302    -3.540099505552408     2.464183042375752

}
e, wfn = energy('scf', return_wfn=True)
gdma(wfn)
dmavals = variable('DMA DISTRIBUTED MULTIPOLES')
charges = np.array(dmavals)
print(charges)
np.save('SSI-149TYR-153PHE-1-dimer.npy', np.array(charges))--------------------------------------------------------------------------

*** tstart() called on ds3
*** at Tue Apr 28 20:16:55 2020

   => Loading Basis Set <=

    Name: CC-PVDZ
    Role: ORBITAL
    Keyword: BASIS
    atoms 1-8, 20-26   entry C          line   138 file /theoryfs2/ds/metcalf/miniconda2/envs/tf2gpu/share/psi4/basis/cc-pvdz.gbs
    atoms 9            entry O          line   198 file /theoryfs2/ds/metcalf/miniconda2/envs/tf2gpu/share/psi4/basis/cc-pvdz.gbs
    atoms 10-19, 27-34 entry H          line    22 file /theoryfs2/ds/metcalf/miniconda2/envs/tf2gpu/share/psi4/basis/cc-pvdz.gbs

         ---------------------------------------------------------
                                   SCF
               by Justin Turney, Rob Parrish, Andy Simmonett
                          and Daniel G. A. Smith
                              RHF Reference
                        1 Threads,    500 MiB Core
         ---------------------------------------------------------

  ==> Geometry <==

    Molecular point group: c1
    Full point group: C1

    Geometry (in Angstrom), charge = 0, multiplicity = 1:

       Center              X                  Y                   Z               Mass
    ------------   -----------------  -----------------  -----------------  -----------------
         C            0.114461919825    -1.582955505552    -1.352316957624    12.000000000000
         C           -0.744538080175    -2.634955505552    -2.061316957624    12.000000000000
         C           -0.342538080175    -0.174955505552    -1.639316957624    12.000000000000
         C            0.019461919825     0.454044494448    -2.827316957624    12.000000000000
         C           -1.167538080175     0.501044494448    -0.741316957624    12.000000000000
         C           -0.413538080175     1.744044494448    -3.109316957624    12.000000000000
         C           -1.609538080175     1.791044494448    -1.016316957624    12.000000000000
         C           -1.229538080175     2.413044494448    -2.203316957624    12.000000000000
         O           -1.652538080175     3.675044494448    -2.483316957624    15.994914619570
         H            0.057461919825    -1.766955505552    -0.281316957624     1.007825032230
         H            1.154461919825    -1.692955505552    -1.663316957624     1.007825032230
         H           -0.660538080175    -2.455955505552    -3.134316957624     1.007825032230
         H            0.646461919825    -0.065955505552    -3.540316957624     1.007825032230
         H           -1.440538080175     0.024044494448     0.186683042376     1.007825032230
         H           -0.124538080175     2.225044494448    -4.030316957624     1.007825032230
         H           -2.240538080175     2.311044494448    -0.315316957624     1.007825032230
         H           -1.345538080175     3.946044494448    -3.368316957624     1.007825032230
         H           -1.798808080175    -2.526306505552    -1.766836957624     1.007825032230
         H           -0.344578080175    -3.642049505552    -1.872126957624     1.007825032230
         C            1.607461919825    -3.262955505552     2.159683042376    12.000000000000
         C            1.709461919825    -0.822955505552     1.568683042376    12.000000000000
         C            1.270461919825    -1.824955505552     2.429683042376    12.000000000000
         C            1.392461919825     0.509044494448     1.814683042376    12.000000000000
         C            0.630461919825     0.846044494448     2.927683042376    12.000000000000
         C            0.513461919825    -1.478955505552     3.543683042376    12.000000000000
         C            0.194461919825    -0.147955505552     3.794683042376    12.000000000000
         H            2.305461919825    -1.077955505552     0.702683042376     1.007825032230
         H            1.731461919825     1.277044494448     1.133683042376     1.007825032230
         H            1.492461919825    -3.440955505552     1.089683042376     1.007825032230
         H            0.889461919825    -3.905955505552     2.670683042376     1.007825032230
         H            0.351461919825     1.871044494448     3.100683042376     1.007825032230
         H            0.175461919825    -2.246955505552     4.226683042376     1.007825032230
         H           -0.407538080175     0.108044494448     4.656683042376     1.007825032230
         H            2.627501919825    -3.540099505552     2.464183042376     1.007825032230

  Running in c1 symmetry.

  Rotational constants: A =      0.02603  B =      0.00952  C =      0.00763 [cm^-1]
  Rotational constants: A =    780.34742  B =    285.34964  C =    228.63835 [MHz]
  Nuclear repulsion = 1009.234883415518198

  Charge       = 0
  Multiplicity = 1
  Electrons    = 116
  Nalpha       = 58
  Nbeta        = 58

  ==> Algorithm <==

  SCF Algorithm Type is PK.
  DIIS enabled.
  MOM disabled.
  Fractional occupation disabled.
  Guess Type is SAD.
  Energy threshold   = 1.00e-06
  Density threshold  = 1.00e-10
  Integral threshold = 0.00e+00

  ==> Primary Basis <==

  Basis Set: CC-PVDZ
    Blend: CC-PVDZ
    Number of shells: 150
    Number of basis function: 314
    Number of Cartesian functions: 330
    Spherical Harmonics?: true
    Max angular momentum: 2

  ==> Pre-Iterations <==

   -------------------------------------------------------
    Irrep   Nso     Nmo     Nalpha   Nbeta   Ndocc  Nsocc
   -------------------------------------------------------
     A        314     314       0       0       0       0
   -------------------------------------------------------
    Total     314     314      58      58      58       0
   -------------------------------------------------------

  ==> Integral Setup <==

  Using integral reordering PK algorithm.
  Sizing the integral batches needed.
  Building batch lookup table.
   Calculation information:
      Number of atoms:                  34
      Number of AO shells:             150
      Number of primitives:            442
      Number of atomic orbitals:       330
      Number of basis functions:       314

      Integral cutoff                 1.00e-12
      Number of threads:                 1

	Batch   1 pq = [       0,    9405] index = [             0,44231715] size =     44231715
	Batch   2 pq = [    9405,   13301] index = [      44231715,88464951] size =     44233236
	Batch   3 pq = [   13301,   16290] index = [      88464951,132690195] size =     44225244
	Batch   4 pq = [   16290,   18810] index = [     132690195,176917455] size =     44227260
	Batch   5 pq = [   18810,   21030] index = [     176917455,221140965] size =     44223510
	Batch   6 pq = [   21030,   23037] index = [     221140965,265363203] size =     44222238
	Batch   7 pq = [   23037,   24883] index = [     265363203,309594286] size =     44231083
	Batch   8 pq = [   24883,   26601] index = [     309594286,353819901] size =     44225615
	Batch   9 pq = [   26601,   28214] index = [     353819901,398029005] size =     44209104
	Batch  10 pq = [   28214,   29740] index = [     398029005,442248670] size =     44219665
	Batch  11 pq = [   29740,   31191] index = [     442248670,486454836] size =     44206166
	Batch  12 pq = [   31191,   32578] index = [     486454836,530679331] size =     44224495
	Batch  13 pq = [   32578,   33908] index = [     530679331,574893186] size =     44213855
	Batch  14 pq = [   33908,   35188] index = [     574893186,619115266] size =     44222080
	Batch  15 pq = [   35188,   36423] index = [     619115266,663335676] size =     44220410
	Batch  16 pq = [   36423,   37617] index = [     663335676,707538153] size =     44202477
	Batch  17 pq = [   37617,   38775] index = [     707538153,751769700] size =     44231547
	Batch  18 pq = [   38775,   39899] index = [     751769700,795985050] size =     44215350
	Batch  19 pq = [   39899,   40992] index = [     795985050,840192528] size =     44207478
	Batch  20 pq = [   40992,   42057] index = [     840192528,884416653] size =     44224125
	Batch  21 pq = [   42057,   43095] index = [     884416653,928611060] size =     44194407
	Batch  22 pq = [   43095,   44109] index = [     928611060,972823995] size =     44212935
	Batch  23 pq = [   44109,   45100] index = [     972823995,1017027550] size =     44203555
	Batch  24 pq = [   45100,   46070] index = [    1017027550,1061245485] size =     44217935
	Batch  25 pq = [   46070,   47020] index = [    1061245485,1105463710] size =     44218225
	Batch  26 pq = [   47020,   47951] index = [    1105463710,1149673176] size =     44209466
	Batch  27 pq = [   47951,   48864] index = [    1149673176,1193869680] size =     44196504
	Batch  28 pq = [   48864,   49455] index = [    1193869680,1222923240] size =     29053560
  Task number: 111
  Buffer size: 11059200
  Buffer per thread: 2
  We computed 70696307 shell quartets total.
  Whereas there are 64133475 unique shell quartets.
    10.23 percent of shell quartets recomputed by reordering.

  ==> DiskJK: Disk-Based J/K Matrices <==

    J tasked:                  Yes
    K tasked:                  Yes
    wK tasked:                  No
    Memory [MiB]:              375
    Schwarz Cutoff:          1E-12

    OpenMP threads:              1

  Minimum eigenvalue in the overlap matrix is 3.0343344390E-04.
  Using Symmetric Orthogonalization.

  SCF Guess: Superposition of Atomic Densities via on-the-fly atomic UHF.

  ==> Iterations <==

                        Total Energy        Delta E     RMS |[F,P]|

   @RHF iter SAD:  -652.28252243906104   -6.52283e+02   0.00000e+00
   @RHF iter   1:  -653.06634839641026   -7.83826e-01   2.28902e-03 DIIS
   @RHF iter   2:  -653.36607054226306   -2.99722e-01   9.64734e-04 DIIS
   @RHF iter   3:  -653.41313733733898   -4.70668e-02   2.36000e-04 DIIS
   @RHF iter   4:  -653.41724771133886   -4.11037e-03   9.94316e-05 DIIS
   @RHF iter   5:  -653.41781661328127   -5.68902e-04   1.65084e-05 DIIS
   @RHF iter   6:  -653.41784059130725   -2.39780e-05   5.40357e-06 DIIS
   @RHF iter   7:  -653.41784305659075   -2.46528e-06   1.68392e-06 DIIS
   @RHF iter   8:  -653.41784337080594   -3.14215e-07   6.24518e-07 DIIS
   @RHF iter   9:  -653.41784341887183   -4.80659e-08   2.40268e-07 DIIS
   @RHF iter  10:  -653.41784342736139   -8.48956e-09   9.10485e-08 DIIS
   @RHF iter  11:  -653.41784342953486   -2.17346e-09   4.21165e-08 DIIS
   @RHF iter  12:  -653.41784343004338   -5.08521e-10   2.14245e-08 DIIS
   @RHF iter  13:  -653.41784343015911   -1.15733e-10   6.87110e-09 DIIS
   @RHF iter  14:  -653.41784343016013   -1.02318e-12   2.13201e-09 DIIS
   @RHF iter  15:  -653.41784343016172   -1.59162e-12   7.05060e-10 DIIS
   @RHF iter  16:  -653.41784343016377   -2.04636e-12   3.35057e-10 DIIS
   @RHF iter  17:  -653.41784343016843   -4.66116e-12   1.52047e-10 DIIS
   @RHF iter  18:  -653.41784343016366    4.77485e-12   7.01372e-11 DIIS
  Energy and wave function converged.

  ==> Post-Iterations <==

    Orbital Energies [Eh]
    ---------------------

    Doubly Occupied:

       1A    -20.582940     2A    -11.296614     3A    -11.238736
       4A    -11.236286     5A    -11.234130     6A    -11.233425
       7A    -11.232772     8A    -11.229938     9A    -11.229362
      10A    -11.229289    11A    -11.228726    12A    -11.228221
      13A    -11.226195    14A    -11.225841    15A    -11.222893
      16A    -11.219668    17A     -1.397845    18A     -1.153310
      19A     -1.149612    20A     -1.055224    21A     -1.044864
      22A     -1.015958    23A     -1.010846    24A     -0.972329
      25A     -0.931091    26A     -0.856220    27A     -0.841825
      28A     -0.824012    29A     -0.794776    30A     -0.788188
      31A     -0.727262    32A     -0.690468    33A     -0.670815
      34A     -0.643705    35A     -0.630974    36A     -0.628113
      37A     -0.610996    38A     -0.593543    39A     -0.584113
      40A     -0.582930    41A     -0.581067    42A     -0.577663
      43A     -0.570055    44A     -0.562351    45A     -0.542838
      46A     -0.534584    47A     -0.516062    48A     -0.494392
      49A     -0.488519    50A     -0.483681    51A     -0.481308
      52A     -0.472276    53A     -0.470997    54A     -0.460758
      55A     -0.338964    56A     -0.328582    57A     -0.321284
      58A     -0.297943

    Virtual:

      59A      0.131375    60A      0.137140    61A      0.144303
      62A      0.154657    63A      0.177783    64A      0.179933
      65A      0.194325    66A      0.198478    67A      0.209456
      68A      0.220670    69A      0.225080    70A      0.243500
      71A      0.247435    72A      0.253769    73A      0.257274
      74A      0.267245    75A      0.274712    76A      0.291105
      77A      0.300487    78A      0.306599    79A      0.311640
      80A      0.327072    81A      0.353863    82A      0.369537
      83A      0.378876    84A      0.396234    85A      0.421358
      86A      0.429683    87A      0.453401    88A      0.463991
      89A      0.476441    90A      0.488172    91A      0.493469
      92A      0.497103    93A      0.504416    94A      0.527132
      95A      0.566521    96A      0.582919    97A      0.597465
      98A      0.611450    99A      0.624359   100A      0.647605
     101A      0.648646   102A      0.651519   103A      0.672291
     104A      0.679211   105A      0.695870   106A      0.700143
     107A      0.703856   108A      0.707895   109A      0.717208
     110A      0.719616   111A      0.732966   112A      0.735841
     113A      0.738030   114A      0.742427   115A      0.750273
     116A      0.754361   117A      0.764229   118A      0.773032
     119A      0.782515   120A      0.792933   121A      0.798654
     122A      0.805456   123A      0.817352   124A      0.826043
     125A      0.843419   126A      0.851263   127A      0.864614
     128A      0.866860   129A      0.874565   130A      0.878999
     131A      0.883716   132A      0.889463   133A      0.895380
     134A      0.896340   135A      0.899978   136A      0.901950
     137A      0.910550   138A      0.920677   139A      0.930742
     140A      0.939300   141A      0.940623   142A      0.948776
     143A      0.960392   144A      0.965163   145A      0.977365
     146A      0.986881   147A      0.997938   148A      1.012969
     149A      1.023584   150A      1.031109   151A      1.039878
     152A      1.050357   153A      1.069546   154A      1.091969
     155A      1.121232   156A      1.137077   157A      1.139516
     158A      1.149590   159A      1.154710   160A      1.159133
     161A      1.169293   162A      1.185168   163A      1.202102
     164A      1.206230   165A      1.219201   166A      1.244070
     167A      1.245989   168A      1.252877   169A      1.263485
     170A      1.266178   171A      1.279118   172A      1.287588
     173A      1.291891   174A      1.303117   175A      1.310085
     176A      1.318081   177A      1.321886   178A      1.326432
     179A      1.339330   180A      1.362188   181A      1.378898
     182A      1.416159   183A      1.419803   184A      1.425853
     185A      1.453362   186A      1.492145   187A      1.501585
     188A      1.519046   189A      1.533403   190A      1.550840
     191A      1.562542   192A      1.605997   193A      1.613193
     194A      1.628816   195A      1.648497   196A      1.675445
     197A      1.683298   198A      1.688378   199A      1.708925
     200A      1.732516   201A      1.738503   202A      1.748920
     203A      1.757444   204A      1.774816   205A      1.785420
     206A      1.801133   207A      1.805436   208A      1.820872
     209A      1.849557   210A      1.858638   211A      1.872595
     212A      1.877540   213A      1.890030   214A      1.892890
     215A      1.896349   216A      1.904175   217A      1.906272
     218A      1.911666   219A      1.917187   220A      1.921949
     221A      1.923581   222A      1.936652   223A      1.940351
     224A      1.942489   225A      1.953766   226A      1.957111
     227A      1.961951   228A      1.974738   229A      1.985303
     230A      1.992373   231A      2.001768   232A      2.004845
     233A      2.015142   234A      2.030141   235A      2.036435
     236A      2.047438   237A      2.060725   238A      2.068540
     239A      2.074333   240A      2.078627   241A      2.088100
     242A      2.098880   243A      2.110463   244A      2.125618
     245A      2.136341   246A      2.147568   247A      2.156526
     248A      2.158721   249A      2.170883   250A      2.173237
     251A      2.180788   252A      2.192288   253A      2.203142
     254A      2.238774   255A      2.257316   256A      2.268966
     257A      2.278022   258A      2.281264   259A      2.300104
     260A      2.308936   261A      2.316979   262A      2.322352
     263A      2.328996   264A      2.346961   265A      2.364259
     266A      2.377600   267A      2.440611   268A      2.458723
     269A      2.468604   270A      2.475719   271A      2.483699
     272A      2.493704   273A      2.506732   274A      2.517825
     275A      2.540898   276A      2.549006   277A      2.550143
     278A      2.576016   279A      2.629127   280A      2.643899
     281A      2.652841   282A      2.743110   283A      2.765035
     284A      2.765832   285A      2.771830   286A      2.779411
     287A      2.794274   288A      2.811254   289A      2.812883
     290A      2.822952   291A      2.854540   292A      2.862263
     293A      2.872777   294A      2.881437   295A      2.921865
     296A      2.969050   297A      2.990765   298A      3.004358
     299A      3.021130   300A      3.036699   301A      3.049097
     302A      3.102101   303A      3.160769   304A      3.192809
     305A      3.210942   306A      3.256387   307A      3.298317
     308A      3.307190   309A      3.339483   310A      3.585014
     311A      3.683830   312A      3.970653   313A      3.982552
     314A      4.179847

    Final Occupation by Irrep:
              A
    DOCC [    58 ]

  @RHF Final Energy:  -653.41784343016366

   => Energetics <=

    Nuclear Repulsion Energy =           1009.2348834155181976
    One-Electron Energy =               -2889.6706978100919514
    Two-Electron Energy =                1227.0179709644100967
    Total Energy =                       -653.4178434301636571

Computation Completed

Properties will be evaluated at   0.000000,   0.000000,   0.000000 [a0]

Properties computed using the SCF density matrix

  Nuclear Dipole Moment: [e a0]
     X:     2.8692      Y:   -13.6692      Z:     0.2313

  Electronic Dipole Moment: [e a0]
     X:    -2.5462      Y:    13.3985      Z:    -0.6464

  Dipole Moment: [e a0]
     X:     0.3230      Y:    -0.2707      Z:    -0.4151     Total:     0.5915

  Dipole Moment: [D]
     X:     0.8210      Y:    -0.6880      Z:    -1.0551     Total:     1.5035

*** tstop() called on ds3 at Tue Apr 28 20:35:17 2020
Module time:
	user time   =     598.45 seconds =       9.97 minutes
	system time =     188.13 seconds =       3.14 minutes
	total time  =       1102 seconds =      18.37 minutes
Total time:
	user time   =     598.45 seconds =       9.97 minutes
	system time =     188.13 seconds =       3.14 minutes
	total time  =       1102 seconds =      18.37 minutes
                                     G D M A

                                 by Anthony Stone

                           version 2.2.06, 22 June 2011

               Distributed Multipoles from Gaussian wavefunctions

Starting at 20:35:17 on 28 Apr 2020

Using SCF density matrix from file ./SSI/SSI-149TYR-153PHE-1-dimer.test.17316.fchk

                         Distributed Multipole Analysis

Standard DMA

Positions and radii in angstrom
Multipole moments in atomic units, ea_0^k for rank k

C          x =  0.114462  y = -1.582956  z = -1.352317 angstrom
           Maximum rank =  0   Radius =  0.650 angstrom
                   Q00  =  -0.034409

C          x = -0.744538  y = -2.634956  z = -2.061317 angstrom
           Maximum rank =  0   Radius =  0.650 angstrom
                   Q00  =  -0.232844

C          x = -0.342538  y = -0.174956  z = -1.639317 angstrom
           Maximum rank =  0   Radius =  0.650 angstrom
                   Q00  =  -0.141158

C          x =  0.019462  y =  0.454044  z = -2.827317 angstrom
           Maximum rank =  0   Radius =  0.650 angstrom
                   Q00  =   0.017706

C          x = -1.167538  y =  0.501044  z = -0.741317 angstrom
           Maximum rank =  0   Radius =  0.650 angstrom
                   Q00  =  -0.007753

C          x = -0.413538  y =  1.744044  z = -3.109317 angstrom
           Maximum rank =  0   Radius =  0.650 angstrom
                   Q00  =  -0.186025

C          x = -1.609538  y =  1.791044  z = -1.016317 angstrom
           Maximum rank =  0   Radius =  0.650 angstrom
                   Q00  =  -0.124474

C          x = -1.229538  y =  2.413044  z = -2.203317 angstrom
           Maximum rank =  0   Radius =  0.650 angstrom
                   Q00  =   0.313682

O          x = -1.652538  y =  3.675044  z = -2.483317 angstrom
           Maximum rank =  0   Radius =  0.650 angstrom
                   Q00  =  -0.673415

H          x =  0.057462  y = -1.766956  z = -0.281317 angstrom
           Maximum rank =  0   Radius =  0.325 angstrom
                   Q00  =   0.071682

H          x =  1.154462  y = -1.692956  z = -1.663317 angstrom
           Maximum rank =  0   Radius =  0.325 angstrom
                   Q00  =   0.057232

H          x = -0.660538  y = -2.455956  z = -3.134317 angstrom
           Maximum rank =  0   Radius =  0.325 angstrom
                   Q00  =   0.075941

H          x =  0.646462  y = -0.065956  z = -3.540317 angstrom
           Maximum rank =  0   Radius =  0.325 angstrom
                   Q00  =   0.065287

H          x = -1.440538  y =  0.024044  z =  0.186683 angstrom
           Maximum rank =  0   Radius =  0.325 angstrom
                   Q00  =   0.072258

H          x = -0.124538  y =  2.225044  z = -4.030317 angstrom
           Maximum rank =  0   Radius =  0.325 angstrom
                   Q00  =   0.068559

H          x = -2.240538  y =  2.311044  z = -0.315317 angstrom
           Maximum rank =  0   Radius =  0.325 angstrom
                   Q00  =   0.078586

H          x = -1.345538  y =  3.946044  z = -3.368317 angstrom
           Maximum rank =  0   Radius =  0.325 angstrom
                   Q00  =   0.408253

H          x = -1.798808  y = -2.526307  z = -1.766837 angstrom
           Maximum rank =  0   Radius =  0.325 angstrom
                   Q00  =   0.086707

H          x = -0.344578  y = -3.642050  z = -1.872127 angstrom
           Maximum rank =  0   Radius =  0.325 angstrom
                   Q00  =   0.078274

C          x =  1.607462  y = -3.262956  z =  2.159683 angstrom
           Maximum rank =  0   Radius =  0.650 angstrom
                   Q00  =  -0.194641

C          x =  1.709462  y = -0.822956  z =  1.568683 angstrom
           Maximum rank =  0   Radius =  0.650 angstrom
                   Q00  =  -0.054972

C          x =  1.270462  y = -1.824956  z =  2.429683 angstrom
           Maximum rank =  0   Radius =  0.650 angstrom
                   Q00  =  -0.106927

C          x =  1.392462  y =  0.509044  z =  1.814683 angstrom
           Maximum rank =  0   Radius =  0.650 angstrom
                   Q00  =  -0.063861

C          x =  0.630462  y =  0.846044  z =  2.927683 angstrom
           Maximum rank =  0   Radius =  0.650 angstrom
                   Q00  =  -0.097855

C          x =  0.513462  y = -1.478956  z =  3.543683 angstrom
           Maximum rank =  0   Radius =  0.650 angstrom
                   Q00  =  -0.013500

C          x =  0.194462  y = -0.147956  z =  3.794683 angstrom
           Maximum rank =  0   Radius =  0.650 angstrom
                   Q00  =  -0.070714

H          x =  2.305462  y = -1.077956  z =  0.702683 angstrom
           Maximum rank =  0   Radius =  0.325 angstrom
                   Q00  =   0.056850

H          x =  1.731462  y =  1.277044  z =  1.133683 angstrom
           Maximum rank =  0   Radius =  0.325 angstrom
                   Q00  =   0.072154

H          x =  1.492462  y = -3.440956  z =  1.089683 angstrom
           Maximum rank =  0   Radius =  0.325 angstrom
                   Q00  =   0.093730

H          x =  0.889462  y = -3.905956  z =  2.670683 angstrom
           Maximum rank =  0   Radius =  0.325 angstrom
                   Q00  =   0.097175

H          x =  0.351462  y =  1.871044  z =  3.100683 angstrom
           Maximum rank =  0   Radius =  0.325 angstrom
                   Q00  =   0.061643

H          x =  0.175462  y = -2.246956  z =  4.226683 angstrom
           Maximum rank =  0   Radius =  0.325 angstrom
                   Q00  =   0.056577

H          x = -0.407538  y =  0.108044  z =  4.656683 angstrom
           Maximum rank =  0   Radius =  0.325 angstrom
                   Q00  =   0.064140

H          x =  2.627502  y = -3.540100  z =  2.464183 angstrom
           Maximum rank =  0   Radius =  0.325 angstrom
                   Q00  =   0.106115

Total multipoles referred to origin at
           x =   0.000000,  y =    0.000000,  z =    0.000000 angstrom
                   Q00  =  -0.000000

Finished at 20:35:17 on 28 Apr 2020

  DMA results are available in the Python driver through the
	  variable('DMA DISTRIBUTED MULTIPOLES')
  and
	  variable('DMA TOTAL MULTIPOLES')
  commands.

    Psi4 stopped on: Tuesday, 28 April 2020 08:35PM
    Psi4 wall time for execution: 0:18:22.39

*** Psi4 exiting successfully. Buy a developer a beer!
