                               Psi4 1.3.2 release

  ==> Input File <==

--------------------------------------------------------------------------
import numpy as np
set {scf_type pk
basis cc-pvdz
d_convergence 10
gdma_switch   0
gdma_limit    0
gdma_origin   [ 0.0,  0.0,  0.0 ]
}
molecule test {
    units Angstrom
    0 1
    --
    0 1
    C                2.349484325261314    -1.442743683759202    -2.132128415799443
    C               -0.260515674738686     0.736256316240797    -0.435128415799442
    C                0.418484325261314     1.941256316240797    -0.305128415799442
    C                0.368484325261314    -0.357743683759203    -1.027128415799442
    C                1.680484325261314    -0.255743683759203    -1.494128415799442
    C                1.727484325261314     2.057256316240798    -0.774128415799442
    C                2.352484325261314     0.963256316240797    -1.374128415799442
    H               -1.281515674738686     0.668256316240797    -0.102128415799442
    H               -0.072515674738686     2.783256316240798     0.158871584200558
    H               -0.176515674738686    -1.284743683759202    -1.137128415799442
    H                2.256484325261314     2.995256316240797    -0.681128415799442
    H                2.956484325261314    -1.101743683759203    -2.972128415799442
    H                1.576484325261314    -2.094743683759202    -2.539128415799443
    H                3.361484325261314     1.065256316240797    -1.747128415799442
    H                2.974091325261314    -2.030063683759202    -1.442980415799442
    C               -2.586515674738686    -0.631743683759203     1.753871584200558
    C               -3.715515674738686    -1.185743683759202     2.613871584200557
    O               -1.326515674738686    -1.040743683759203     2.250871584200557
    H               -2.699515674738686    -0.964743683759203     0.724871584200558
    H               -2.655515674738686     0.447256316240797     1.771871584200558
    H               -4.648515674738685    -0.769743683759203     2.232871584200558
    H               -0.980515674738686    -1.749743683759202     1.667871584200558
    H               -3.560246674738686    -0.894053683759203     3.663064584200558
    H               -3.792217674738686    -2.274053683759202     2.473491584200557

}
e, wfn = energy('scf', return_wfn=True)
gdma(wfn)
dmavals = variable('DMA DISTRIBUTED MULTIPOLES')
charges = np.array(dmavals)
print(charges)
np.save('SSI-071PHE-114SER-1-dimer.npy', np.array(charges))--------------------------------------------------------------------------

*** tstart() called on ds3
*** at Mon Apr 27 08:54:09 2020

   => Loading Basis Set <=

    Name: CC-PVDZ
    Role: ORBITAL
    Keyword: BASIS
    atoms 1-7, 16-17  entry C          line   138 file /theoryfs2/ds/metcalf/miniconda2/envs/tf2gpu/share/psi4/basis/cc-pvdz.gbs
    atoms 8-15, 19-24 entry H          line    22 file /theoryfs2/ds/metcalf/miniconda2/envs/tf2gpu/share/psi4/basis/cc-pvdz.gbs
    atoms 18          entry O          line   198 file /theoryfs2/ds/metcalf/miniconda2/envs/tf2gpu/share/psi4/basis/cc-pvdz.gbs

         ---------------------------------------------------------
                                   SCF
               by Justin Turney, Rob Parrish, Andy Simmonett
                          and Daniel G. A. Smith
                              RHF Reference
                        1 Threads,    500 MiB Core
         ---------------------------------------------------------

  ==> Geometry <==

    Molecular point group: c1
    Full point group: C1

    Geometry (in Angstrom), charge = 0, multiplicity = 1:

       Center              X                  Y                   Z               Mass
    ------------   -----------------  -----------------  -----------------  -----------------
         C            2.349484325261    -1.442743683759    -2.132128415799    12.000000000000
         C           -0.260515674739     0.736256316241    -0.435128415799    12.000000000000
         C            0.418484325261     1.941256316241    -0.305128415799    12.000000000000
         C            0.368484325261    -0.357743683759    -1.027128415799    12.000000000000
         C            1.680484325261    -0.255743683759    -1.494128415799    12.000000000000
         C            1.727484325261     2.057256316241    -0.774128415799    12.000000000000
         C            2.352484325261     0.963256316241    -1.374128415799    12.000000000000
         H           -1.281515674739     0.668256316241    -0.102128415799     1.007825032230
         H           -0.072515674739     2.783256316241     0.158871584201     1.007825032230
         H           -0.176515674739    -1.284743683759    -1.137128415799     1.007825032230
         H            2.256484325261     2.995256316241    -0.681128415799     1.007825032230
         H            2.956484325261    -1.101743683759    -2.972128415799     1.007825032230
         H            1.576484325261    -2.094743683759    -2.539128415799     1.007825032230
         H            3.361484325261     1.065256316241    -1.747128415799     1.007825032230
         H            2.974091325261    -2.030063683759    -1.442980415799     1.007825032230
         C           -2.586515674739    -0.631743683759     1.753871584201    12.000000000000
         C           -3.715515674739    -1.185743683759     2.613871584201    12.000000000000
         O           -1.326515674739    -1.040743683759     2.250871584201    15.994914619570
         H           -2.699515674739    -0.964743683759     0.724871584201     1.007825032230
         H           -2.655515674739     0.447256316241     1.771871584201     1.007825032230
         H           -4.648515674739    -0.769743683759     2.232871584201     1.007825032230
         H           -0.980515674739    -1.749743683759     1.667871584201     1.007825032230
         H           -3.560246674739    -0.894053683759     3.663064584201     1.007825032230
         H           -3.792217674739    -2.274053683759     2.473491584201     1.007825032230

  Running in c1 symmetry.

  Rotational constants: A =      0.07676  B =      0.01685  C =      0.01465 [cm^-1]
  Rotational constants: A =   2301.35270  B =    505.07542  C =    439.28020 [MHz]
  Nuclear repulsion =  484.076064164885850

  Charge       = 0
  Multiplicity = 1
  Electrons    = 76
  Nalpha       = 38
  Nbeta        = 38

  ==> Algorithm <==

  SCF Algorithm Type is PK.
  DIIS enabled.
  MOM disabled.
  Fractional occupation disabled.
  Guess Type is SAD.
  Energy threshold   = 1.00e-06
  Density threshold  = 1.00e-10
  Integral threshold = 0.00e+00

  ==> Primary Basis <==

  Basis Set: CC-PVDZ
    Blend: CC-PVDZ
    Number of shells: 102
    Number of basis function: 210
    Number of Cartesian functions: 220
    Spherical Harmonics?: true
    Max angular momentum: 2

  ==> Pre-Iterations <==

   -------------------------------------------------------
    Irrep   Nso     Nmo     Nalpha   Nbeta   Ndocc  Nsocc
   -------------------------------------------------------
     A        210     210       0       0       0       0
   -------------------------------------------------------
    Total     210     210      38      38      38       0
   -------------------------------------------------------

  ==> Integral Setup <==

  Using integral reordering PK algorithm.
  Sizing the integral batches needed.
  Building batch lookup table.
   Calculation information:
      Number of atoms:                  24
      Number of AO shells:             102
      Number of primitives:            290
      Number of atomic orbitals:       220
      Number of basis functions:       210

      Integral cutoff                 1.00e-12
      Number of threads:                 1

	Batch   1 pq = [       0,    9405] index = [             0,44231715] size =     44231715
	Batch   2 pq = [    9405,   13301] index = [      44231715,88464951] size =     44233236
	Batch   3 pq = [   13301,   16290] index = [      88464951,132690195] size =     44225244
	Batch   4 pq = [   16290,   18810] index = [     132690195,176917455] size =     44227260
	Batch   5 pq = [   18810,   21030] index = [     176917455,221140965] size =     44223510
	Batch   6 pq = [   21030,   22155] index = [     221140965,245433090] size =     24292125
  Task number: 23
  Buffer size: 11059200
  Buffer per thread: 2
  We computed 10844164 shell quartets total.
  Whereas there are 13799631 unique shell quartets.

  ==> DiskJK: Disk-Based J/K Matrices <==

    J tasked:                  Yes
    K tasked:                  Yes
    wK tasked:                  No
    Memory [MiB]:              375
    Schwarz Cutoff:          1E-12

    OpenMP threads:              1

  Minimum eigenvalue in the overlap matrix is 3.0959129590E-04.
  Using Symmetric Orthogonalization.

  SCF Guess: Superposition of Atomic Densities via on-the-fly atomic UHF.

  ==> Iterations <==

                        Total Energy        Delta E     RMS |[F,P]|

   @RHF iter SAD:  -422.60719090946338   -4.22607e+02   0.00000e+00
   @RHF iter   1:  -423.59516823256149   -9.87977e-01   2.96080e-03 DIIS
   @RHF iter   2:  -423.80567332488926   -2.10505e-01   1.33813e-03 DIIS
   @RHF iter   3:  -423.84218597628933   -3.65127e-02   2.88214e-04 DIIS
   @RHF iter   4:  -423.84506145461449   -2.87548e-03   8.83549e-05 DIIS
   @RHF iter   5:  -423.84524908896265   -1.87634e-04   1.72733e-05 DIIS
   @RHF iter   6:  -423.84525939721090   -1.03082e-05   4.34880e-06 DIIS
   @RHF iter   7:  -423.84526014282227   -7.45611e-07   1.51262e-06 DIIS
   @RHF iter   8:  -423.84526022910904   -8.62868e-08   5.11940e-07 DIIS
   @RHF iter   9:  -423.84526024429874   -1.51897e-08   2.29921e-07 DIIS
   @RHF iter  10:  -423.84526024793104   -3.63229e-09   9.35163e-08 DIIS
   @RHF iter  11:  -423.84526024902340   -1.09236e-09   3.88672e-08 DIIS
   @RHF iter  12:  -423.84526024923008   -2.06683e-10   1.47831e-08 DIIS
   @RHF iter  13:  -423.84526024925032   -2.02363e-11   5.77763e-09 DIIS
   @RHF iter  14:  -423.84526024925424   -3.92220e-12   1.81496e-09 DIIS
   @RHF iter  15:  -423.84526024925526   -1.02318e-12   6.53359e-10 DIIS
   @RHF iter  16:  -423.84526024925447    7.95808e-13   2.32537e-10 DIIS
   @RHF iter  17:  -423.84526024925412    3.41061e-13   1.01996e-10 DIIS
   @RHF iter  18:  -423.84526024925435   -2.27374e-13   4.51145e-11 DIIS
  Energy and wave function converged.

  ==> Post-Iterations <==

    Orbital Energies [Eh]
    ---------------------

    Doubly Occupied:

       1A    -20.547892     2A    -11.274701     3A    -11.241674
       4A    -11.235762     5A    -11.233494     6A    -11.231248
       7A    -11.230340     8A    -11.230153     9A    -11.229262
      10A    -11.220052    11A     -1.348308    12A     -1.150856
      13A     -1.043649    14A     -1.010894    15A     -1.009298
      16A     -0.930887    17A     -0.837208    18A     -0.823889
      19A     -0.794789    20A     -0.694639    21A     -0.688468
      22A     -0.634333    23A     -0.630170    24A     -0.626350
      25A     -0.584395    26A     -0.577632    27A     -0.570174
      28A     -0.561595    29A     -0.552149    30A     -0.534718
      31A     -0.515569    32A     -0.486707    33A     -0.484143
      34A     -0.480669    35A     -0.476756    36A     -0.430341
      37A     -0.330687    38A     -0.320861

    Virtual:

      39A      0.135570    40A      0.139584    41A      0.161225
      42A      0.192728    43A      0.198171    44A      0.208832
      45A      0.221174    46A      0.245504    47A      0.252356
      48A      0.255343    49A      0.264584    50A      0.269989
      51A      0.280969    52A      0.287515    53A      0.312811
      54A      0.320134    55A      0.359961    56A      0.379894
      57A      0.395521    58A      0.400944    59A      0.456729
      60A      0.465836    61A      0.481216    62A      0.497025
      63A      0.561664    64A      0.597367    65A      0.607607
      66A      0.636272    67A      0.653197    68A      0.658275
      69A      0.682900    70A      0.689605    71A      0.707251
      72A      0.721600    73A      0.730242    74A      0.741025
      75A      0.743912    76A      0.748693    77A      0.754473
      78A      0.759947    79A      0.764837    80A      0.773854
      81A      0.784105    82A      0.822406    83A      0.840013
      84A      0.855917    85A      0.867277    86A      0.873678
      87A      0.878883    88A      0.888722    89A      0.892768
      90A      0.896738    91A      0.900443    92A      0.903299
      93A      0.914923    94A      0.926345    95A      0.934064
      96A      0.942909    97A      0.950772    98A      0.967934
      99A      1.010496   100A      1.026704   101A      1.061454
     102A      1.108713   103A      1.130539   104A      1.136567
     105A      1.148227   106A      1.156192   107A      1.168041
     108A      1.192547   109A      1.206220   110A      1.246104
     111A      1.247004   112A      1.255112   113A      1.261587
     114A      1.282292   115A      1.300912   116A      1.308217
     117A      1.319521   118A      1.326579   119A      1.357207
     120A      1.398336   121A      1.420485   122A      1.478337
     123A      1.505523   124A      1.524421   125A      1.543972
     126A      1.557653   127A      1.599468   128A      1.609081
     129A      1.664817   130A      1.678329   131A      1.682468
     132A      1.701759   133A      1.726741   134A      1.741347
     135A      1.750533   136A      1.761505   137A      1.787882
     138A      1.809201   139A      1.843678   140A      1.857947
     141A      1.873490   142A      1.884567   143A      1.890087
     144A      1.901437   145A      1.907460   146A      1.918355
     147A      1.927573   148A      1.938310   149A      1.940656
     150A      1.951050   151A      1.959739   152A      1.972763
     153A      1.981589   154A      1.993217   155A      2.003745
     156A      2.025572   157A      2.037047   158A      2.058125
     159A      2.064835   160A      2.067439   161A      2.100671
     162A      2.111546   163A      2.143006   164A      2.160136
     165A      2.165637   166A      2.168654   167A      2.176686
     168A      2.204801   169A      2.246248   170A      2.272452
     171A      2.283997   172A      2.296209   173A      2.305638
     174A      2.309406   175A      2.323631   176A      2.351960
     177A      2.403944   178A      2.433132   179A      2.472255
     180A      2.476839   181A      2.502333   182A      2.514162
     183A      2.538630   184A      2.543205   185A      2.547165
     186A      2.625259   187A      2.745633   188A      2.752766
     189A      2.759194   190A      2.765298   191A      2.781777
     192A      2.789675   193A      2.805766   194A      2.842736
     195A      2.851491   196A      2.870956   197A      2.901177
     198A      2.918189   199A      2.981550   200A      3.007475
     201A      3.025942   202A      3.154732   203A      3.199538
     204A      3.301326   205A      3.319688   206A      3.413400
     207A      3.467192   208A      3.637754   209A      3.965635
     210A      4.085233

    Final Occupation by Irrep:
              A
    DOCC [    38 ]

  @RHF Final Energy:  -423.84526024925435

   => Energetics <=

    Nuclear Repulsion Energy =            484.0760641648858496
    One-Electron Energy =               -1534.2332207362067038
    Two-Electron Energy =                 626.3118963220665592
    Total Energy =                       -423.8452602492543519

Computation Completed

Properties will be evaluated at   0.000000,   0.000000,   0.000000 [a0]

Properties computed using the SCF density matrix

  Nuclear Dipole Moment: [e a0]
     X:    -6.3268      Y:    -4.8839      Z:     1.9525

  Electronic Dipole Moment: [e a0]
     X:     6.0992      Y:     4.5736      Z:    -2.5234

  Dipole Moment: [e a0]
     X:    -0.2277      Y:    -0.3103      Z:    -0.5709     Total:     0.6885

  Dipole Moment: [D]
     X:    -0.5786      Y:    -0.7887      Z:    -1.4511     Total:     1.7500

*** tstop() called on ds3 at Mon Apr 27 08:58:01 2020
Module time:
	user time   =      82.02 seconds =       1.37 minutes
	system time =      36.98 seconds =       0.62 minutes
	total time  =        232 seconds =       3.87 minutes
Total time:
	user time   =      82.02 seconds =       1.37 minutes
	system time =      36.98 seconds =       0.62 minutes
	total time  =        232 seconds =       3.87 minutes
                                     G D M A

                                 by Anthony Stone

                           version 2.2.06, 22 June 2011

               Distributed Multipoles from Gaussian wavefunctions

Starting at 8:58:1 on 27 Apr 2020

Using SCF density matrix from file ./SSI/SSI-071PHE-114SER-1-dimer.test.1248.fchk

                         Distributed Multipole Analysis

Standard DMA

Positions and radii in angstrom
Multipole moments in atomic units, ea_0^k for rank k

C          x =  2.349484  y = -1.442744  z = -2.132128 angstrom
           Maximum rank =  0   Radius =  0.650 angstrom
                   Q00  =  -0.202513

C          x = -0.260516  y =  0.736256  z = -0.435128 angstrom
           Maximum rank =  0   Radius =  0.650 angstrom
                   Q00  =  -0.059822

C          x =  0.418484  y =  1.941256  z = -0.305128 angstrom
           Maximum rank =  0   Radius =  0.650 angstrom
                   Q00  =  -0.077714

C          x =  0.368484  y = -0.357744  z = -1.027128 angstrom
           Maximum rank =  0   Radius =  0.650 angstrom
                   Q00  =  -0.005496

C          x =  1.680484  y = -0.255744  z = -1.494128 angstrom
           Maximum rank =  0   Radius =  0.650 angstrom
                   Q00  =  -0.093734

C          x =  1.727484  y =  2.057256  z = -0.774128 angstrom
           Maximum rank =  0   Radius =  0.650 angstrom
                   Q00  =  -0.056473

C          x =  2.352484  y =  0.963256  z = -1.374128 angstrom
           Maximum rank =  0   Radius =  0.650 angstrom
                   Q00  =  -0.095102

H          x = -1.281516  y =  0.668256  z = -0.102128 angstrom
           Maximum rank =  0   Radius =  0.325 angstrom
                   Q00  =   0.062687

H          x = -0.072516  y =  2.783256  z =  0.158872 angstrom
           Maximum rank =  0   Radius =  0.325 angstrom
                   Q00  =   0.060565

H          x = -0.176516  y = -1.284744  z = -1.137128 angstrom
           Maximum rank =  0   Radius =  0.325 angstrom
                   Q00  =   0.044545

H          x =  2.256484  y =  2.995256  z = -0.681128 angstrom
           Maximum rank =  0   Radius =  0.325 angstrom
                   Q00  =   0.065968

H          x =  2.956484  y = -1.101744  z = -2.972128 angstrom
           Maximum rank =  0   Radius =  0.325 angstrom
                   Q00  =   0.099215

H          x =  1.576484  y = -2.094744  z = -2.539128 angstrom
           Maximum rank =  0   Radius =  0.325 angstrom
                   Q00  =   0.094095

H          x =  3.361484  y =  1.065256  z = -1.747128 angstrom
           Maximum rank =  0   Radius =  0.325 angstrom
                   Q00  =   0.057250

H          x =  2.974091  y = -2.030064  z = -1.442980 angstrom
           Maximum rank =  0   Radius =  0.325 angstrom
                   Q00  =   0.105559

C          x = -2.586516  y = -0.631744  z =  1.753872 angstrom
           Maximum rank =  0   Radius =  0.650 angstrom
                   Q00  =   0.100497

C          x = -3.715516  y = -1.185744  z =  2.613872 angstrom
           Maximum rank =  0   Radius =  0.650 angstrom
                   Q00  =  -0.238909

O          x = -1.326516  y = -1.040744  z =  2.250872 angstrom
           Maximum rank =  0   Radius =  0.650 angstrom
                   Q00  =  -0.611181

H          x = -2.699516  y = -0.964744  z =  0.724872 angstrom
           Maximum rank =  0   Radius =  0.325 angstrom
                   Q00  =   0.028393

H          x = -2.655516  y =  0.447256  z =  1.771872 angstrom
           Maximum rank =  0   Radius =  0.325 angstrom
                   Q00  =   0.063404

H          x = -4.648516  y = -0.769744  z =  2.232872 angstrom
           Maximum rank =  0   Radius =  0.325 angstrom
                   Q00  =   0.074255

H          x = -0.980516  y = -1.749744  z =  1.667872 angstrom
           Maximum rank =  0   Radius =  0.325 angstrom
                   Q00  =   0.405512

H          x = -3.560247  y = -0.894054  z =  3.663065 angstrom
           Maximum rank =  0   Radius =  0.325 angstrom
                   Q00  =   0.099398

H          x = -3.792218  y = -2.274054  z =  2.473492 angstrom
           Maximum rank =  0   Radius =  0.325 angstrom
                   Q00  =   0.079600

Total multipoles referred to origin at
           x =   0.000000,  y =    0.000000,  z =    0.000000 angstrom
                   Q00  =  -0.000000

Finished at 8:58:1 on 27 Apr 2020

  DMA results are available in the Python driver through the
	  variable('DMA DISTRIBUTED MULTIPOLES')
  and
	  variable('DMA TOTAL MULTIPOLES')
  commands.

    Psi4 stopped on: Monday, 27 April 2020 08:58AM
    Psi4 wall time for execution: 0:03:51.77

*** Psi4 exiting successfully. Buy a developer a beer!
