                               Psi4 1.3.2 release

  ==> Input File <==

--------------------------------------------------------------------------
import numpy as np
set {scf_type pk
basis cc-pvdz
d_convergence 10
gdma_switch   0
gdma_limit    0
gdma_origin   [ 0.0,  0.0,  0.0 ]
}
molecule test {
    units Angstrom
    -1 1
    --
    -1 1
    C               -0.386069625367888    -2.551377099694534    -0.633516605028827
    C                0.068930374632112    -3.863377099694534    -0.009516605028827
    H               -1.364069625367888    -2.259377099694535    -0.253516605028827
    H                0.345930374632113    -1.806377099694534    -0.344516605028827
    H               -0.407069625367887    -2.618377099694534    -1.718516605028827
    H                0.994930374632113    -4.184377099694534    -0.488516605028827
    H               -0.706942625367888    -4.631348099694534    -0.144575605028827
    H                0.250620374632113    -3.717019099694534     1.065453394971173
    C                0.563930374632112     0.997622900305466    -0.774516605028827
    C                1.986930374632112     1.018622900305466    -0.229516605028827
    C               -0.469069625367888     1.410622900305465     0.264483394971173
    O               -0.279069625367887     1.110622900305465     1.462483394971173
    O               -1.483069625367888     2.036622900305466    -0.113516605028827
    H                0.542930374632112     1.724622900305465    -1.588516605028827
    H                0.306930374632112     0.042622900305466    -1.216516605028827
    H                2.064930374632112     0.254622900305466     0.531483394971173
    H                2.183930374632112     1.993622900305465     0.216483394971173
    H                2.742900374632112     0.828550000305466    -1.005647605028827

}
e, wfn = energy('scf', return_wfn=True)
gdma(wfn)
dmavals = variable('DMA DISTRIBUTED MULTIPOLES')
charges = np.array(dmavals)
print(charges)
np.save('SSI-011LEU-071GLU-1-dimer.npy', np.array(charges))--------------------------------------------------------------------------

*** tstart() called on ds3
*** at Tue Apr 28 11:34:03 2020

   => Loading Basis Set <=

    Name: CC-PVDZ
    Role: ORBITAL
    Keyword: BASIS
    atoms 1-2, 9-11  entry C          line   138 file /theoryfs2/ds/metcalf/miniconda2/envs/tf2gpu/share/psi4/basis/cc-pvdz.gbs
    atoms 3-8, 14-18 entry H          line    22 file /theoryfs2/ds/metcalf/miniconda2/envs/tf2gpu/share/psi4/basis/cc-pvdz.gbs
    atoms 12-13      entry O          line   198 file /theoryfs2/ds/metcalf/miniconda2/envs/tf2gpu/share/psi4/basis/cc-pvdz.gbs

         ---------------------------------------------------------
                                   SCF
               by Justin Turney, Rob Parrish, Andy Simmonett
                          and Daniel G. A. Smith
                              RHF Reference
                        1 Threads,    500 MiB Core
         ---------------------------------------------------------

  ==> Geometry <==

    Molecular point group: c1
    Full point group: C1

    Geometry (in Angstrom), charge = -1, multiplicity = 1:

       Center              X                  Y                   Z               Mass
    ------------   -----------------  -----------------  -----------------  -----------------
         C           -0.386069625368    -2.551377099695    -0.633516605029    12.000000000000
         C            0.068930374632    -3.863377099695    -0.009516605029    12.000000000000
         H           -1.364069625368    -2.259377099695    -0.253516605029     1.007825032230
         H            0.345930374632    -1.806377099695    -0.344516605029     1.007825032230
         H           -0.407069625368    -2.618377099695    -1.718516605029     1.007825032230
         H            0.994930374632    -4.184377099695    -0.488516605029     1.007825032230
         H           -0.706942625368    -4.631348099695    -0.144575605029     1.007825032230
         H            0.250620374632    -3.717019099695     1.065453394971     1.007825032230
         C            0.563930374632     0.997622900305    -0.774516605029    12.000000000000
         C            1.986930374632     1.018622900305    -0.229516605029    12.000000000000
         C           -0.469069625368     1.410622900305     0.264483394971    12.000000000000
         O           -0.279069625368     1.110622900305     1.462483394971    15.994914619570
         O           -1.483069625368     2.036622900305    -0.113516605029    15.994914619570
         H            0.542930374632     1.724622900305    -1.588516605029     1.007825032230
         H            0.306930374632     0.042622900305    -1.216516605029     1.007825032230
         H            2.064930374632     0.254622900305     0.531483394971     1.007825032230
         H            2.183930374632     1.993622900305     0.216483394971     1.007825032230
         H            2.742900374632     0.828550000305    -1.005647605029     1.007825032230

  Running in c1 symmetry.

  Rotational constants: A =      0.10084  B =      0.03223  C =      0.02872 [cm^-1]
  Rotational constants: A =   3022.99954  B =    966.10361  C =    861.00290 [MHz]
  Nuclear repulsion =  291.391258495630950

  Charge       = -1
  Multiplicity = 1
  Electrons    = 58
  Nalpha       = 29
  Nbeta        = 29

  ==> Algorithm <==

  SCF Algorithm Type is PK.
  DIIS enabled.
  MOM disabled.
  Fractional occupation disabled.
  Guess Type is SAD.
  Energy threshold   = 1.00e-06
  Density threshold  = 1.00e-10
  Integral threshold = 0.00e+00

  ==> Primary Basis <==

  Basis Set: CC-PVDZ
    Blend: CC-PVDZ
    Number of shells: 75
    Number of basis function: 153
    Number of Cartesian functions: 160
    Spherical Harmonics?: true
    Max angular momentum: 2

  ==> Pre-Iterations <==

   -------------------------------------------------------
    Irrep   Nso     Nmo     Nalpha   Nbeta   Ndocc  Nsocc
   -------------------------------------------------------
     A        153     153       0       0       0       0
   -------------------------------------------------------
    Total     153     153      29      29      29       0
   -------------------------------------------------------

  ==> Integral Setup <==

  Using integral reordering PK algorithm.
  Sizing the integral batches needed.
  Building batch lookup table.
   Calculation information:
      Number of atoms:                  18
      Number of AO shells:              75
      Number of primitives:            209
      Number of atomic orbitals:       160
      Number of basis functions:       153

      Integral cutoff                 1.00e-12
      Number of threads:                 1

	Batch   1 pq = [       0,    9405] index = [             0,44231715] size =     44231715
	Batch   2 pq = [    9405,   11781] index = [      44231715,69401871] size =     25170156
  Task number: 7
  Buffer size: 11059200
  Buffer per thread: 2
  We computed 3499550 shell quartets total.
  Whereas there are 4062675 unique shell quartets.

  ==> DiskJK: Disk-Based J/K Matrices <==

    J tasked:                  Yes
    K tasked:                  Yes
    wK tasked:                  No
    Memory [MiB]:              375
    Schwarz Cutoff:          1E-12

    OpenMP threads:              1

  Minimum eigenvalue in the overlap matrix is 3.8724010543E-03.
  Using Symmetric Orthogonalization.

  SCF Guess: Superposition of Atomic Densities via on-the-fly atomic UHF.

  ==> Iterations <==

                        Total Energy        Delta E     RMS |[F,P]|

   @RHF iter SAD:  -343.91992236726122   -3.43920e+02   0.00000e+00
   @RHF iter   1:  -345.21625440579601   -1.29633e+00   4.92294e-03 DIIS
   @RHF iter   2:  -345.43917303631412   -2.22919e-01   2.70751e-03 DIIS
   @RHF iter   3:  -345.50364943736980   -6.44764e-02   4.26439e-04 DIIS
   @RHF iter   4:  -345.50664775467720   -2.99832e-03   1.68219e-04 DIIS
   @RHF iter   5:  -345.50708936773515   -4.41613e-04   2.43482e-05 DIIS
   @RHF iter   6:  -345.50710278799068   -1.34203e-05   5.95354e-06 DIIS
   @RHF iter   7:  -345.50710343273664   -6.44746e-07   2.55481e-06 DIIS
   @RHF iter   8:  -345.50710351806805   -8.53314e-08   7.28074e-07 DIIS
   @RHF iter   9:  -345.50710352821972   -1.01517e-08   2.64548e-07 DIIS
   @RHF iter  10:  -345.50710352991018   -1.69047e-09   6.87794e-08 DIIS
   @RHF iter  11:  -345.50710353009634   -1.86162e-10   2.13153e-08 DIIS
   @RHF iter  12:  -345.50710353011306   -1.67120e-11   7.70888e-09 DIIS
   @RHF iter  13:  -345.50710353011635   -3.29692e-12   2.78010e-09 DIIS
   @RHF iter  14:  -345.50710353011686   -5.11591e-13   7.93445e-10 DIIS
   @RHF iter  15:  -345.50710353011567    1.19371e-12   2.94835e-10 DIIS
   @RHF iter  16:  -345.50710353011544    2.27374e-13   9.67907e-11 DIIS
  Energy and wave function converged.

  ==> Post-Iterations <==

    Orbital Energies [Eh]
    ---------------------

    Doubly Occupied:

       1A    -20.255513     2A    -20.250935     3A    -11.124658
       4A    -11.108599     5A    -11.106340     6A    -11.069673
       7A    -11.048528     8A     -1.145428     9A     -1.029568
      10A     -0.920034    11A     -0.871155    12A     -0.734830
      13A     -0.700650    14A     -0.507283    15A     -0.500631
      16A     -0.498773    17A     -0.457789    18A     -0.428545
      19A     -0.399785    20A     -0.387102    21A     -0.385950
      22A     -0.381001    23A     -0.361568    24A     -0.355156
      25A     -0.316783    26A     -0.296772    27A     -0.178125
      28A     -0.165205    29A     -0.154618

    Virtual:

      30A      0.280453    31A      0.326866    32A      0.335804
      33A      0.346134    34A      0.358870    35A      0.384613
      36A      0.387131    37A      0.399434    38A      0.408906
      39A      0.423379    40A      0.467168    41A      0.488041
      42A      0.513466    43A      0.560468    44A      0.609797
      45A      0.682282    46A      0.702501    47A      0.704757
      48A      0.714066    49A      0.749459    50A      0.765713
      51A      0.772734    52A      0.800101    53A      0.853074
      54A      0.895659    55A      0.944366    56A      0.973691
      57A      0.981256    58A      0.986130    59A      0.999424
      60A      1.003362    61A      1.009287    62A      1.012957
      63A      1.021962    64A      1.033587    65A      1.045411
      66A      1.054922    67A      1.059530    68A      1.081598
      69A      1.092462    70A      1.129380    71A      1.149986
      72A      1.172632    73A      1.225882    74A      1.234516
      75A      1.277471    76A      1.310467    77A      1.316059
      78A      1.372738    79A      1.399266    80A      1.460005
      81A      1.508811    82A      1.552675    83A      1.574706
      84A      1.578946    85A      1.601449    86A      1.622351
      87A      1.657501    88A      1.675986    89A      1.693627
      90A      1.713507    91A      1.771472    92A      1.794975
      93A      1.801786    94A      1.837798    95A      1.881699
      96A      1.914618    97A      1.960895    98A      1.964414
      99A      2.006144   100A      2.029140   101A      2.042407
     102A      2.045615   103A      2.053235   104A      2.059212
     105A      2.075904   106A      2.093797   107A      2.097257
     108A      2.130205   109A      2.154746   110A      2.177514
     111A      2.185364   112A      2.192218   113A      2.208408
     114A      2.238289   115A      2.248952   116A      2.278540
     117A      2.362508   118A      2.395624   119A      2.404818
     120A      2.422656   121A      2.464134   122A      2.512095
     123A      2.542494   124A      2.561117   125A      2.563496
     126A      2.578620   127A      2.664426   128A      2.669651
     129A      2.702947   130A      2.720819   131A      2.772068
     132A      2.828194   133A      2.855769   134A      2.914820
     135A      2.925203   136A      2.944742   137A      2.959338
     138A      3.010502   139A      3.024494   140A      3.050894
     141A      3.068488   142A      3.093766   143A      3.154513
     144A      3.255460   145A      3.293862   146A      3.315257
     147A      3.371130   148A      3.651651   149A      3.780126
     150A      3.829779   151A      4.062948   152A      4.085369
     153A      4.211642

    Final Occupation by Irrep:
              A
    DOCC [    29 ]

  @RHF Final Energy:  -345.50710353011544

   => Energetics <=

    Nuclear Repulsion Energy =            291.3912584956309502
    One-Electron Energy =               -1059.5147312386920930
    Two-Electron Energy =                 422.6163692129456990
    Total Energy =                       -345.5071035301154438

Computation Completed

Properties will be evaluated at   0.000000,   0.000000,   0.000000 [a0]

Properties computed using the SCF density matrix

  Nuclear Dipole Moment: [e a0]
     X:     6.5117      Y:   -13.4590      Z:    -4.6311

  Electronic Dipole Moment: [e a0]
     X:    -4.9380      Y:    10.6686      Z:     3.3148

  Dipole Moment: [e a0]
     X:     1.5737      Y:    -2.7904      Z:    -1.3162     Total:     3.4634

  Dipole Moment: [D]
     X:     3.9999      Y:    -7.0925      Z:    -3.3455     Total:     8.8031

*** tstop() called on ds3 at Tue Apr 28 11:34:36 2020
Module time:
	user time   =      23.38 seconds =       0.39 minutes
	system time =      10.30 seconds =       0.17 minutes
	total time  =         33 seconds =       0.55 minutes
Total time:
	user time   =      23.38 seconds =       0.39 minutes
	system time =      10.30 seconds =       0.17 minutes
	total time  =         33 seconds =       0.55 minutes
                                     G D M A

                                 by Anthony Stone

                           version 2.2.06, 22 June 2011

               Distributed Multipoles from Gaussian wavefunctions

Starting at 11:34:36 on 28 Apr 2020

Using SCF density matrix from file ./SSI/SSI-011LEU-071GLU-1-dimer.test.30168.fchk

                         Distributed Multipole Analysis

Standard DMA

Positions and radii in angstrom
Multipole moments in atomic units, ea_0^k for rank k

C          x = -0.386070  y = -2.551377  z = -0.633517 angstrom
           Maximum rank =  0   Radius =  0.650 angstrom
                   Q00  =  -0.205042

C          x =  0.068930  y = -3.863377  z = -0.009517 angstrom
           Maximum rank =  0   Radius =  0.650 angstrom
                   Q00  =  -0.242560

H          x = -1.364070  y = -2.259377  z = -0.253517 angstrom
           Maximum rank =  0   Radius =  0.325 angstrom
                   Q00  =   0.096274

H          x =  0.345930  y = -1.806377  z = -0.344517 angstrom
           Maximum rank =  0   Radius =  0.325 angstrom
                   Q00  =   0.098489

H          x = -0.407070  y = -2.618377  z = -1.718517 angstrom
           Maximum rank =  0   Radius =  0.325 angstrom
                   Q00  =   0.056801

H          x =  0.994930  y = -4.184377  z = -0.488517 angstrom
           Maximum rank =  0   Radius =  0.325 angstrom
                   Q00  =   0.062551

H          x = -0.706943  y = -4.631348  z = -0.144576 angstrom
           Maximum rank =  0   Radius =  0.325 angstrom
                   Q00  =   0.055078

H          x =  0.250620  y = -3.717019  z =  1.065453 angstrom
           Maximum rank =  0   Radius =  0.325 angstrom
                   Q00  =   0.083171

C          x =  0.563930  y =  0.997623  z = -0.774517 angstrom
           Maximum rank =  0   Radius =  0.650 angstrom
                   Q00  =  -0.150613

C          x =  1.986930  y =  1.018623  z = -0.229517 angstrom
           Maximum rank =  0   Radius =  0.650 angstrom
                   Q00  =  -0.218129

C          x = -0.469070  y =  1.410623  z =  0.264483 angstrom
           Maximum rank =  0   Radius =  0.650 angstrom
                   Q00  =   1.024198

O          x = -0.279070  y =  1.110623  z =  1.462483 angstrom
           Maximum rank =  0   Radius =  0.650 angstrom
                   Q00  =  -0.969097

O          x = -1.483070  y =  2.036623  z = -0.113517 angstrom
           Maximum rank =  0   Radius =  0.650 angstrom
                   Q00  =  -0.939228

H          x =  0.542930  y =  1.724623  z = -1.588517 angstrom
           Maximum rank =  0   Radius =  0.325 angstrom
                   Q00  =   0.020537

H          x =  0.306930  y =  0.042623  z = -1.216517 angstrom
           Maximum rank =  0   Radius =  0.325 angstrom
                   Q00  =   0.052830

H          x =  2.064930  y =  0.254623  z =  0.531483 angstrom
           Maximum rank =  0   Radius =  0.325 angstrom
                   Q00  =   0.081984

H          x =  2.183930  y =  1.993623  z =  0.216483 angstrom
           Maximum rank =  0   Radius =  0.325 angstrom
                   Q00  =   0.079469

H          x =  2.742900  y =  0.828550  z = -1.005648 angstrom
           Maximum rank =  0   Radius =  0.325 angstrom
                   Q00  =   0.013289

Total multipoles referred to origin at
           x =   0.000000,  y =    0.000000,  z =    0.000000 angstrom
                   Q00  =  -1.000000

Finished at 11:34:36 on 28 Apr 2020

  DMA results are available in the Python driver through the
	  variable('DMA DISTRIBUTED MULTIPOLES')
  and
	  variable('DMA TOTAL MULTIPOLES')
  commands.

    Psi4 stopped on: Tuesday, 28 April 2020 11:34AM
    Psi4 wall time for execution: 0:00:32.79

*** Psi4 exiting successfully. Buy a developer a beer!
