                               Psi4 1.3.2 release

  ==> Input File <==

--------------------------------------------------------------------------
import numpy as np
set {scf_type pk
basis cc-pvdz
d_convergence 10
gdma_switch   0
gdma_limit    0
gdma_origin   [ 0.0,  0.0,  0.0 ]
}
molecule test {
    units Angstrom
    -1 1
    --
    -1 1
    C                0.849171968866453    -1.211446474859441    -1.519326987677045
    C                2.060171968866452    -0.771446474859441    -2.321326987677045
    C               -0.181828031133547    -1.953446474859441    -2.366326987677046
    H                1.149171968866453    -1.766446474859441    -0.657326987677045
    H                0.377171968866453    -0.305446474859441    -1.138326987677045
    H                1.841171968866453     0.158553525140559    -2.848326987677046
    H                2.306171968866452    -1.547446474859441    -3.046326987677046
    H               -0.667828031133547    -1.248446474859441    -3.051326987677046
    H                0.348171968866453    -2.694446474859441    -2.975326987677045
    H                2.912829968866452    -0.638486474859441    -1.639199987677046
    H               -0.923471031133547    -2.462546474859440    -1.733252987677046
    C               -1.161828031133548    -0.099446474859441     1.294673012322955
    C               -0.057828031133547    -1.078446474859441     1.682673012322955
    C               -0.653828031133547     1.330553525140559     1.143673012322955
    O                0.237171968866453     1.746553525140559     1.911673012322955
    O               -1.156828031133547     2.044553525140559     0.248673012322954
    H               -1.585828031133548    -0.426446474859441     0.344673012322954
    H               -1.965828031133548    -0.134446474859441     2.033673012322954
    H                0.911171968866453    -0.714446474859441     1.339673012322955
    H               -0.265828031133547    -2.015446474859441     1.167673012322954
    H               -0.010280031133547    -1.320506474859441     2.754655012322955

}
e, wfn = energy('scf', return_wfn=True)
gdma(wfn)
dmavals = variable('DMA DISTRIBUTED MULTIPOLES')
charges = np.array(dmavals)
print(charges)
np.save('SSI-029LYS-035GLU-1-dimer.npy', np.array(charges))--------------------------------------------------------------------------

*** tstart() called on ds3
*** at Mon Apr 27 21:14:59 2020

   => Loading Basis Set <=

    Name: CC-PVDZ
    Role: ORBITAL
    Keyword: BASIS
    atoms 1-3, 12-14  entry C          line   138 file /theoryfs2/ds/metcalf/miniconda2/envs/tf2gpu/share/psi4/basis/cc-pvdz.gbs
    atoms 4-11, 17-21 entry H          line    22 file /theoryfs2/ds/metcalf/miniconda2/envs/tf2gpu/share/psi4/basis/cc-pvdz.gbs
    atoms 15-16       entry O          line   198 file /theoryfs2/ds/metcalf/miniconda2/envs/tf2gpu/share/psi4/basis/cc-pvdz.gbs

         ---------------------------------------------------------
                                   SCF
               by Justin Turney, Rob Parrish, Andy Simmonett
                          and Daniel G. A. Smith
                              RHF Reference
                        1 Threads,    500 MiB Core
         ---------------------------------------------------------

  ==> Geometry <==

    Molecular point group: c1
    Full point group: C1

    Geometry (in Angstrom), charge = -1, multiplicity = 1:

       Center              X                  Y                   Z               Mass
    ------------   -----------------  -----------------  -----------------  -----------------
         C            0.849171968866    -1.211446474859    -1.519326987677    12.000000000000
         C            2.060171968866    -0.771446474859    -2.321326987677    12.000000000000
         C           -0.181828031134    -1.953446474859    -2.366326987677    12.000000000000
         H            1.149171968866    -1.766446474859    -0.657326987677     1.007825032230
         H            0.377171968866    -0.305446474859    -1.138326987677     1.007825032230
         H            1.841171968866     0.158553525141    -2.848326987677     1.007825032230
         H            2.306171968866    -1.547446474859    -3.046326987677     1.007825032230
         H           -0.667828031134    -1.248446474859    -3.051326987677     1.007825032230
         H            0.348171968866    -2.694446474859    -2.975326987677     1.007825032230
         H            2.912829968866    -0.638486474859    -1.639199987677     1.007825032230
         H           -0.923471031134    -2.462546474859    -1.733252987677     1.007825032230
         C           -1.161828031134    -0.099446474859     1.294673012323    12.000000000000
         C           -0.057828031134    -1.078446474859     1.682673012323    12.000000000000
         C           -0.653828031134     1.330553525141     1.143673012323    12.000000000000
         O            0.237171968866     1.746553525141     1.911673012323    15.994914619570
         O           -1.156828031134     2.044553525141     0.248673012323    15.994914619570
         H           -1.585828031134    -0.426446474859     0.344673012323     1.007825032230
         H           -1.965828031134    -0.134446474859     2.033673012323     1.007825032230
         H            0.911171968866    -0.714446474859     1.339673012323     1.007825032230
         H           -0.265828031134    -2.015446474859     1.167673012323     1.007825032230
         H           -0.010280031134    -1.320506474859     2.754655012323     1.007825032230

  Running in c1 symmetry.

  Rotational constants: A =      0.08176  B =      0.02789  C =      0.02615 [cm^-1]
  Rotational constants: A =   2451.12613  B =    836.02225  C =    784.09341 [MHz]
  Nuclear repulsion =  372.707226743453475

  Charge       = -1
  Multiplicity = 1
  Electrons    = 66
  Nalpha       = 33
  Nbeta        = 33

  ==> Algorithm <==

  SCF Algorithm Type is PK.
  DIIS enabled.
  MOM disabled.
  Fractional occupation disabled.
  Guess Type is SAD.
  Energy threshold   = 1.00e-06
  Density threshold  = 1.00e-10
  Integral threshold = 0.00e+00

  ==> Primary Basis <==

  Basis Set: CC-PVDZ
    Blend: CC-PVDZ
    Number of shells: 87
    Number of basis function: 177
    Number of Cartesian functions: 185
    Spherical Harmonics?: true
    Max angular momentum: 2

  ==> Pre-Iterations <==

   -------------------------------------------------------
    Irrep   Nso     Nmo     Nalpha   Nbeta   Ndocc  Nsocc
   -------------------------------------------------------
     A        177     177       0       0       0       0
   -------------------------------------------------------
    Total     177     177      33      33      33       0
   -------------------------------------------------------

  ==> Integral Setup <==

  Using integral reordering PK algorithm.
  Sizing the integral batches needed.
  Building batch lookup table.
   Calculation information:
      Number of atoms:                  21
      Number of AO shells:              87
      Number of primitives:            241
      Number of atomic orbitals:       185
      Number of basis functions:       177

      Integral cutoff                 1.00e-12
      Number of threads:                 1

	Batch   1 pq = [       0,    9405] index = [             0,44231715] size =     44231715
	Batch   2 pq = [    9405,   13301] index = [      44231715,88464951] size =     44233236
	Batch   3 pq = [   13301,   15753] index = [      88464951,124086381] size =     35621430
  Task number: 12
  Buffer size: 11059200
  Buffer per thread: 2
  We computed 6687368 shell quartets total.
  Whereas there are 7328706 unique shell quartets.

  ==> DiskJK: Disk-Based J/K Matrices <==

    J tasked:                  Yes
    K tasked:                  Yes
    wK tasked:                  No
    Memory [MiB]:              375
    Schwarz Cutoff:          1E-12

    OpenMP threads:              1

  Minimum eigenvalue in the overlap matrix is 3.7719833033E-03.
  Using Symmetric Orthogonalization.

  SCF Guess: Superposition of Atomic Densities via on-the-fly atomic UHF.

  ==> Iterations <==

                        Total Energy        Delta E     RMS |[F,P]|

   @RHF iter SAD:  -382.97958255843014   -3.82980e+02   0.00000e+00
   @RHF iter   1:  -384.21143058950344   -1.23185e+00   4.43038e-03 DIIS
   @RHF iter   2:  -384.46433100388714   -2.52900e-01   2.40439e-03 DIIS
   @RHF iter   3:  -384.53388295250824   -6.95519e-02   3.88209e-04 DIIS
   @RHF iter   4:  -384.53724341158960   -3.36046e-03   1.53772e-04 DIIS
   @RHF iter   5:  -384.53770888515589   -4.65474e-04   2.23027e-05 DIIS
   @RHF iter   6:  -384.53772313541765   -1.42503e-05   5.36858e-06 DIIS
   @RHF iter   7:  -384.53772393323362   -7.97816e-07   1.68009e-06 DIIS
   @RHF iter   8:  -384.53772400432149   -7.10879e-08   5.42192e-07 DIIS
   @RHF iter   9:  -384.53772401243037   -8.10888e-09   2.79444e-07 DIIS
   @RHF iter  10:  -384.53772401432053   -1.89016e-09   7.18315e-08 DIIS
   @RHF iter  11:  -384.53772401463380   -3.13264e-10   2.58613e-08 DIIS
   @RHF iter  12:  -384.53772401467154   -3.77440e-11   8.57223e-09 DIIS
   @RHF iter  13:  -384.53772401467296   -1.42109e-12   3.17115e-09 DIIS
   @RHF iter  14:  -384.53772401467427   -1.30740e-12   8.54466e-10 DIIS
   @RHF iter  15:  -384.53772401467558   -1.30740e-12   3.08944e-10 DIIS
   @RHF iter  16:  -384.53772401467506    5.11591e-13   1.21678e-10 DIIS
   @RHF iter  17:  -384.53772401467484    2.27374e-13   4.94882e-11 DIIS
  Energy and wave function converged.

  ==> Post-Iterations <==

    Orbital Energies [Eh]
    ---------------------

    Doubly Occupied:

       1A    -20.257115     2A    -20.255401     3A    -11.117831
       4A    -11.113601     5A    -11.110893     6A    -11.100065
       7A    -11.071830     8A    -11.052933     9A     -1.148523
      10A     -1.033106    11A     -0.950912    12A     -0.872531
      13A     -0.822187    14A     -0.704656    15A     -0.691170
      16A     -0.520777    17A     -0.508534    18A     -0.498156
      19A     -0.457275    20A     -0.446976    21A     -0.430763
      22A     -0.429374    23A     -0.389027    24A     -0.375029
      25A     -0.366460    26A     -0.362528    27A     -0.354073
      28A     -0.347359    29A     -0.327257    30A     -0.297025
      31A     -0.180158    32A     -0.168399    33A     -0.157514

    Virtual:

      34A      0.281014    35A      0.313248    36A      0.324157
      37A      0.336684    38A      0.349087    39A      0.374278
      40A      0.382887    41A      0.392995    42A      0.402060
      43A      0.416409    44A      0.430594    45A      0.442049
      46A      0.459968    47A      0.479258    48A      0.496651
      49A      0.541509    50A      0.564194    51A      0.615318
      52A      0.672673    53A      0.693953    54A      0.706035
      55A      0.723946    56A      0.731131    57A      0.748272
      58A      0.766524    59A      0.813461    60A      0.870746
      61A      0.881573    62A      0.885494    63A      0.904031
      64A      0.941726    65A      0.968629    66A      0.978509
      67A      0.985172    68A      0.992272    69A      0.995214
      70A      1.000858    71A      1.007195    72A      1.015336
      73A      1.020805    74A      1.033980    75A      1.040150
      76A      1.060206    77A      1.063602    78A      1.073621
      79A      1.082271    80A      1.100793    81A      1.118548
      82A      1.134410    83A      1.140866    84A      1.165415
      85A      1.222342    86A      1.246899    87A      1.259582
      88A      1.302437    89A      1.322783    90A      1.345513
      91A      1.396801    92A      1.447084    93A      1.530203
      94A      1.544507    95A      1.559192    96A      1.587916
      97A      1.592284    98A      1.613325    99A      1.625655
     100A      1.643956   101A      1.664535   102A      1.666592
     103A      1.726813   104A      1.755869   105A      1.764397
     106A      1.786333   107A      1.799913   108A      1.812426
     109A      1.854946   110A      1.871959   111A      1.920479
     112A      1.968808   113A      1.973793   114A      1.975874
     115A      1.993883   116A      2.021407   117A      2.035510
     118A      2.044220   119A      2.057863   120A      2.086246
     121A      2.086719   122A      2.100013   123A      2.108186
     124A      2.116786   125A      2.141922   126A      2.147017
     127A      2.151056   128A      2.180037   129A      2.197680
     130A      2.224153   131A      2.236502   132A      2.259667
     133A      2.280919   134A      2.304870   135A      2.326917
     136A      2.360156   137A      2.387738   138A      2.398141
     139A      2.413050   140A      2.433902   141A      2.475213
     142A      2.479067   143A      2.491455   144A      2.550454
     145A      2.585121   146A      2.589520   147A      2.599752
     148A      2.656053   149A      2.672205   150A      2.742859
     151A      2.764204   152A      2.774849   153A      2.787296
     154A      2.850127   155A      2.858326   156A      2.883802
     157A      2.886419   158A      2.909759   159A      2.932682
     160A      2.979459   161A      2.991686   162A      3.020466
     163A      3.050808   164A      3.057639   165A      3.105994
     166A      3.134597   167A      3.231379   168A      3.253420
     169A      3.288495   170A      3.309439   171A      3.367861
     172A      3.647026   173A      3.784625   174A      3.830474
     175A      4.064313   176A      4.082430   177A      4.210243

    Final Occupation by Irrep:
              A
    DOCC [    33 ]

  @RHF Final Energy:  -384.53772401467484

   => Energetics <=

    Nuclear Repulsion Energy =            372.7072267434534751
    One-Electron Energy =               -1274.6510292903519712
    Two-Electron Energy =                 517.4060785322236597
    Total Energy =                       -384.5377240146748363

Computation Completed

Properties will be evaluated at   0.000000,   0.000000,   0.000000 [a0]

Properties computed using the SCF density matrix

  Nuclear Dipole Moment: [e a0]
     X:     4.1456      Y:   -14.1526      Z:    -8.8478

  Electronic Dipole Moment: [e a0]
     X:    -3.5286      Y:    10.8201      Z:     7.1208

  Dipole Moment: [e a0]
     X:     0.6170      Y:    -3.3324      Z:    -1.7270     Total:     3.8037

  Dipole Moment: [D]
     X:     1.5681      Y:    -8.4702      Z:    -4.3896     Total:     9.6681

*** tstop() called on ds3 at Mon Apr 27 21:16:27 2020
Module time:
	user time   =      43.91 seconds =       0.73 minutes
	system time =      17.04 seconds =       0.28 minutes
	total time  =         88 seconds =       1.47 minutes
Total time:
	user time   =      43.91 seconds =       0.73 minutes
	system time =      17.04 seconds =       0.28 minutes
	total time  =         88 seconds =       1.47 minutes
                                     G D M A

                                 by Anthony Stone

                           version 2.2.06, 22 June 2011

               Distributed Multipoles from Gaussian wavefunctions

Starting at 21:16:27 on 27 Apr 2020

Using SCF density matrix from file ./SSI/SSI-029LYS-035GLU-1-dimer.test.29566.fchk

                         Distributed Multipole Analysis

Standard DMA

Positions and radii in angstrom
Multipole moments in atomic units, ea_0^k for rank k

C          x =  0.849172  y = -1.211446  z = -1.519327 angstrom
           Maximum rank =  0   Radius =  0.650 angstrom
                   Q00  =  -0.070794

C          x =  2.060172  y = -0.771446  z = -2.321327 angstrom
           Maximum rank =  0   Radius =  0.650 angstrom
                   Q00  =  -0.236147

C          x = -0.181828  y = -1.953446  z = -2.366327 angstrom
           Maximum rank =  0   Radius =  0.650 angstrom
                   Q00  =  -0.237207

H          x =  1.149172  y = -1.766446  z = -0.657327 angstrom
           Maximum rank =  0   Radius =  0.325 angstrom
                   Q00  =   0.045597

H          x =  0.377172  y = -0.305446  z = -1.138327 angstrom
           Maximum rank =  0   Radius =  0.325 angstrom
                   Q00  =   0.077744

H          x =  1.841172  y =  0.158554  z = -2.848327 angstrom
           Maximum rank =  0   Radius =  0.325 angstrom
                   Q00  =   0.089368

H          x =  2.306172  y = -1.547446  z = -3.046327 angstrom
           Maximum rank =  0   Radius =  0.325 angstrom
                   Q00  =   0.040797

H          x = -0.667828  y = -1.248446  z = -3.051327 angstrom
           Maximum rank =  0   Radius =  0.325 angstrom
                   Q00  =   0.078095

H          x =  0.348172  y = -2.694446  z = -2.975327 angstrom
           Maximum rank =  0   Radius =  0.325 angstrom
                   Q00  =   0.041466

H          x =  2.912830  y = -0.638486  z = -1.639200 angstrom
           Maximum rank =  0   Radius =  0.325 angstrom
                   Q00  =   0.084930

H          x = -0.923471  y = -2.462546  z = -1.733253 angstrom
           Maximum rank =  0   Radius =  0.325 angstrom
                   Q00  =   0.083896

C          x = -1.161828  y = -0.099446  z =  1.294673 angstrom
           Maximum rank =  0   Radius =  0.650 angstrom
                   Q00  =  -0.125159

C          x = -0.057828  y = -1.078446  z =  1.682673 angstrom
           Maximum rank =  0   Radius =  0.650 angstrom
                   Q00  =  -0.222096

C          x = -0.653828  y =  1.330554  z =  1.143673 angstrom
           Maximum rank =  0   Radius =  0.650 angstrom
                   Q00  =   1.003660

O          x =  0.237172  y =  1.746554  z =  1.911673 angstrom
           Maximum rank =  0   Radius =  0.650 angstrom
                   Q00  =  -0.959811

O          x = -1.156828  y =  2.044554  z =  0.248673 angstrom
           Maximum rank =  0   Radius =  0.650 angstrom
                   Q00  =  -0.937133

H          x = -1.585828  y = -0.426446  z =  0.344673 angstrom
           Maximum rank =  0   Radius =  0.325 angstrom
                   Q00  =   0.027125

H          x = -1.965828  y = -0.134446  z =  2.033673 angstrom
           Maximum rank =  0   Radius =  0.325 angstrom
                   Q00  =   0.055262

H          x =  0.911172  y = -0.714446  z =  1.339673 angstrom
           Maximum rank =  0   Radius =  0.325 angstrom
                   Q00  =   0.087872

H          x = -0.265828  y = -2.015446  z =  1.167673 angstrom
           Maximum rank =  0   Radius =  0.325 angstrom
                   Q00  =   0.014285

H          x = -0.010280  y = -1.320506  z =  2.754655 angstrom
           Maximum rank =  0   Radius =  0.325 angstrom
                   Q00  =   0.058251

Total multipoles referred to origin at
           x =   0.000000,  y =    0.000000,  z =    0.000000 angstrom
                   Q00  =  -1.000000

Finished at 21:16:27 on 27 Apr 2020

  DMA results are available in the Python driver through the
	  variable('DMA DISTRIBUTED MULTIPOLES')
  and
	  variable('DMA TOTAL MULTIPOLES')
  commands.

    Psi4 stopped on: Monday, 27 April 2020 09:16PM
    Psi4 wall time for execution: 0:01:28.82

*** Psi4 exiting successfully. Buy a developer a beer!
