                               Psi4 1.3.2 release

  ==> Input File <==

--------------------------------------------------------------------------
import numpy as np
set {scf_type pk
basis cc-pvdz
d_convergence 10
gdma_switch   0
gdma_limit    0
gdma_origin   [ 0.0,  0.0,  0.0 ]
}
molecule test {
    units Angstrom
    0 1
    --
    0 1
    C               -1.858188887439719     2.871943426666552     0.498477192061927
    C               -1.223188887439719    -0.904056573333448     0.259477192061927
    C               -1.580188887439719     0.332943426666552     0.770477192061927
    C               -0.770188887439719    -1.041056573333448    -1.038522807938073
    C               -1.497188887439719     1.493943426666552    -0.027522807938073
    C               -0.670188887439719     0.101943426666552    -1.802522807938073
    C               -1.016188887439719     1.348943426666552    -1.312522807938072
    O               -0.405188887439719    -2.257056573333448    -1.527522807938073
    H               -1.307188887439718    -1.779056573333448     0.889477192061927
    H               -1.945188887439719     0.384943426666552     1.786477192061927
    H               -0.647188887439719    -2.974056573333448    -0.926522807938073
    H               -0.337188887439719     0.004943426666552    -2.824522807938072
    H               -2.944188887439719     2.974943426666552     0.477477192061927
    H               -1.435188887439719     3.632943426666552    -0.157522807938073
    H               -0.957188887439719     2.206943426666552    -1.958522807938073
    H               -1.501968887439719     3.037410426666552     1.525957192061927
    C                2.267811112560282    -0.831056573333448     1.419477192061927
    C                3.333811112560281    -0.490056573333448     2.436477192061927
    C                2.606811112560282    -0.200056573333448     0.068477192061927
    H                2.192811112560282    -1.915056573333448     1.320477192061927
    H                1.302811112560282    -0.452056573333448     1.750477192061928
    H                3.572811112560282     0.570943426666552     2.363477192061927
    H                4.233811112560280    -1.049056573333448     2.173477192061927
    H                1.768811112560281    -0.357056573333448    -0.609522807938073
    H                2.685811112560281     0.880943426666552     0.204477192061927
    H                3.056771112560281    -0.729481773333448     3.473747192061928
    H                3.537051112560281    -0.568259573333448    -0.388782807938073

}
e, wfn = energy('scf', return_wfn=True)
gdma(wfn)
dmavals = variable('DMA DISTRIBUTED MULTIPOLES')
charges = np.array(dmavals)
print(charges)
np.save('SSI-081TYR-085ARG-1-dimer.npy', np.array(charges))--------------------------------------------------------------------------

*** tstart() called on ds3
*** at Tue Apr 28 13:47:17 2020

   => Loading Basis Set <=

    Name: CC-PVDZ
    Role: ORBITAL
    Keyword: BASIS
    atoms 1-7, 17-19  entry C          line   138 file /theoryfs2/ds/metcalf/miniconda2/envs/tf2gpu/share/psi4/basis/cc-pvdz.gbs
    atoms 8           entry O          line   198 file /theoryfs2/ds/metcalf/miniconda2/envs/tf2gpu/share/psi4/basis/cc-pvdz.gbs
    atoms 9-16, 20-27 entry H          line    22 file /theoryfs2/ds/metcalf/miniconda2/envs/tf2gpu/share/psi4/basis/cc-pvdz.gbs

         ---------------------------------------------------------
                                   SCF
               by Justin Turney, Rob Parrish, Andy Simmonett
                          and Daniel G. A. Smith
                              RHF Reference
                        1 Threads,    500 MiB Core
         ---------------------------------------------------------

  ==> Geometry <==

    Molecular point group: c1
    Full point group: C1

    Geometry (in Angstrom), charge = 0, multiplicity = 1:

       Center              X                  Y                   Z               Mass
    ------------   -----------------  -----------------  -----------------  -----------------
         C           -1.858188887440     2.871943426667     0.498477192062    12.000000000000
         C           -1.223188887440    -0.904056573333     0.259477192062    12.000000000000
         C           -1.580188887440     0.332943426667     0.770477192062    12.000000000000
         C           -0.770188887440    -1.041056573333    -1.038522807938    12.000000000000
         C           -1.497188887440     1.493943426667    -0.027522807938    12.000000000000
         C           -0.670188887440     0.101943426667    -1.802522807938    12.000000000000
         C           -1.016188887440     1.348943426667    -1.312522807938    12.000000000000
         O           -0.405188887440    -2.257056573333    -1.527522807938    15.994914619570
         H           -1.307188887440    -1.779056573333     0.889477192062     1.007825032230
         H           -1.945188887440     0.384943426667     1.786477192062     1.007825032230
         H           -0.647188887440    -2.974056573333    -0.926522807938     1.007825032230
         H           -0.337188887440     0.004943426667    -2.824522807938     1.007825032230
         H           -2.944188887440     2.974943426667     0.477477192062     1.007825032230
         H           -1.435188887440     3.632943426667    -0.157522807938     1.007825032230
         H           -0.957188887440     2.206943426667    -1.958522807938     1.007825032230
         H           -1.501968887440     3.037410426667     1.525957192062     1.007825032230
         C            2.267811112560    -0.831056573333     1.419477192062    12.000000000000
         C            3.333811112560    -0.490056573333     2.436477192062    12.000000000000
         C            2.606811112560    -0.200056573333     0.068477192062    12.000000000000
         H            2.192811112560    -1.915056573333     1.320477192062     1.007825032230
         H            1.302811112560    -0.452056573333     1.750477192062     1.007825032230
         H            3.572811112560     0.570943426667     2.363477192062     1.007825032230
         H            4.233811112560    -1.049056573333     2.173477192062     1.007825032230
         H            1.768811112560    -0.357056573333    -0.609522807938     1.007825032230
         H            2.685811112560     0.880943426667     0.204477192062     1.007825032230
         H            3.056771112560    -0.729481773333     3.473747192062     1.007825032230
         H            3.537051112560    -0.568259573333    -0.388782807938     1.007825032230

  Running in c1 symmetry.

  Rotational constants: A =      0.03843  B =      0.02199  C =      0.01712 [cm^-1]
  Rotational constants: A =   1152.14333  B =    659.28057  C =    513.29632 [MHz]
  Nuclear repulsion =  595.667723820439619

  Charge       = 0
  Multiplicity = 1
  Electrons    = 84
  Nalpha       = 42
  Nbeta        = 42

  ==> Algorithm <==

  SCF Algorithm Type is PK.
  DIIS enabled.
  MOM disabled.
  Fractional occupation disabled.
  Guess Type is SAD.
  Energy threshold   = 1.00e-06
  Density threshold  = 1.00e-10
  Integral threshold = 0.00e+00

  ==> Primary Basis <==

  Basis Set: CC-PVDZ
    Blend: CC-PVDZ
    Number of shells: 114
    Number of basis function: 234
    Number of Cartesian functions: 245
    Spherical Harmonics?: true
    Max angular momentum: 2

  ==> Pre-Iterations <==

   -------------------------------------------------------
    Irrep   Nso     Nmo     Nalpha   Nbeta   Ndocc  Nsocc
   -------------------------------------------------------
     A        234     234       0       0       0       0
   -------------------------------------------------------
    Total     234     234      42      42      42       0
   -------------------------------------------------------

  ==> Integral Setup <==

  Using integral reordering PK algorithm.
  Sizing the integral batches needed.
  Building batch lookup table.
   Calculation information:
      Number of atoms:                  27
      Number of AO shells:             114
      Number of primitives:            322
      Number of atomic orbitals:       245
      Number of basis functions:       234

      Integral cutoff                 1.00e-12
      Number of threads:                 1

	Batch   1 pq = [       0,    9405] index = [             0,44231715] size =     44231715
	Batch   2 pq = [    9405,   13301] index = [      44231715,88464951] size =     44233236
	Batch   3 pq = [   13301,   16290] index = [      88464951,132690195] size =     44225244
	Batch   4 pq = [   16290,   18810] index = [     132690195,176917455] size =     44227260
	Batch   5 pq = [   18810,   21030] index = [     176917455,221140965] size =     44223510
	Batch   6 pq = [   21030,   23037] index = [     221140965,265363203] size =     44222238
	Batch   7 pq = [   23037,   24883] index = [     265363203,309594286] size =     44231083
	Batch   8 pq = [   24883,   26601] index = [     309594286,353819901] size =     44225615
	Batch   9 pq = [   26601,   27495] index = [     353819901,378001260] size =     24181359
  Task number: 35
  Buffer size: 11059200
  Buffer per thread: 2
  We computed 21476181 shell quartets total.
  Whereas there are 21487290 unique shell quartets.

  ==> DiskJK: Disk-Based J/K Matrices <==

    J tasked:                  Yes
    K tasked:                  Yes
    wK tasked:                  No
    Memory [MiB]:              375
    Schwarz Cutoff:          1E-12

    OpenMP threads:              1

  Minimum eigenvalue in the overlap matrix is 3.1319052930E-04.
  Using Symmetric Orthogonalization.

  SCF Guess: Superposition of Atomic Densities via on-the-fly atomic UHF.

  ==> Iterations <==

                        Total Energy        Delta E     RMS |[F,P]|

   @RHF iter SAD:  -461.80461812798524   -4.61805e+02   0.00000e+00
   @RHF iter   1:  -462.60016980269359   -7.95552e-01   2.84066e-03 DIIS
   @RHF iter   2:  -462.84500460789417   -2.44835e-01   1.21487e-03 DIIS
   @RHF iter   3:  -462.88574285105068   -4.07382e-02   2.66596e-04 DIIS
   @RHF iter   4:  -462.88898914071234   -3.24629e-03   1.01397e-04 DIIS
   @RHF iter   5:  -462.88931625689008   -3.27116e-04   2.10595e-05 DIIS
   @RHF iter   6:  -462.88933610254736   -1.98457e-05   6.32505e-06 DIIS
   @RHF iter   7:  -462.88933798533134   -1.88278e-06   1.70729e-06 DIIS
   @RHF iter   8:  -462.88933817281412   -1.87483e-07   6.27268e-07 DIIS
   @RHF iter   9:  -462.88933819382078   -2.10067e-08   2.12442e-07 DIIS
   @RHF iter  10:  -462.88933819606694   -2.24617e-09   5.64175e-08 DIIS
   @RHF iter  11:  -462.88933819626175   -1.94802e-10   1.46219e-08 DIIS
   @RHF iter  12:  -462.88933819627698   -1.52340e-11   8.05730e-09 DIIS
   @RHF iter  13:  -462.88933819628380   -6.82121e-12   3.13011e-09 DIIS
   @RHF iter  14:  -462.88933819628164    2.16005e-12   1.41113e-09 DIIS
   @RHF iter  15:  -462.88933819628716   -5.51381e-12   5.70290e-10 DIIS
   @RHF iter  16:  -462.88933819629119   -4.03588e-12   1.58982e-10 DIIS
   @RHF iter  17:  -462.88933819628448    6.70752e-12   5.78689e-11 DIIS
  Energy and wave function converged.

  ==> Post-Iterations <==

    Orbital Energies [Eh]
    ---------------------

    Doubly Occupied:

       1A    -20.586102     2A    -11.296119     3A    -11.240325
       4A    -11.236787     5A    -11.234054     6A    -11.232476
       7A    -11.231070     8A    -11.226648     9A    -11.209951
      10A    -11.208011    11A    -11.202895    12A     -1.401796
      13A     -1.155132    14A     -1.048875    15A     -1.040013
      16A     -1.019276    17A     -0.930193    18A     -0.913352
      19A     -0.844242    20A     -0.804991    21A     -0.789670
      22A     -0.736362    23A     -0.668464    24A     -0.640733
      25A     -0.619452    26A     -0.612791    27A     -0.598698
      28A     -0.584102    29A     -0.581971    30A     -0.572382
      31A     -0.567324    32A     -0.537422    33A     -0.530626
      34A     -0.518878    35A     -0.498861    36A     -0.482672
      37A     -0.472138    38A     -0.465973    39A     -0.459685
      40A     -0.457985    41A     -0.339727    42A     -0.304143

    Virtual:

      43A      0.130725    44A      0.155040    45A      0.170147
      46A      0.182973    47A      0.199456    48A      0.214865
      49A      0.215949    50A      0.240529    51A      0.244233
      52A      0.254800    53A      0.263474    54A      0.267298
      55A      0.273962    56A      0.280609    57A      0.292328
      58A      0.305322    59A      0.318672    60A      0.330304
      61A      0.367848    62A      0.377297    63A      0.380041
      64A      0.432484    65A      0.439313    66A      0.456439
      67A      0.493151    68A      0.494675    69A      0.513707
      70A      0.582958    71A      0.594162    72A      0.599675
      73A      0.615441    74A      0.617724    75A      0.631871
      76A      0.638057    77A      0.664872    78A      0.670434
      79A      0.690885    80A      0.703926    81A      0.728638
      82A      0.742858    83A      0.746983    84A      0.769767
      85A      0.775627    86A      0.781565    87A      0.795620
      88A      0.812721    89A      0.821775    90A      0.833989
      91A      0.848885    92A      0.855644    93A      0.864231
      94A      0.874125    95A      0.880492    96A      0.882700
      97A      0.897840    98A      0.899910    99A      0.904314
     100A      0.907588   101A      0.917429   102A      0.925674
     103A      0.930525   104A      0.932669   105A      0.938114
     106A      0.944039   107A      0.947533   108A      0.962703
     109A      0.969286   110A      0.995041   111A      1.017712
     112A      1.035702   113A      1.049219   114A      1.073042
     115A      1.128938   116A      1.137050   117A      1.142319
     118A      1.148466   119A      1.172174   120A      1.184079
     121A      1.200046   122A      1.241780   123A      1.254149
     124A      1.261955   125A      1.269060   126A      1.288608
     127A      1.304730   128A      1.319064   129A      1.341654
     130A      1.358712   131A      1.364646   132A      1.386474
     133A      1.403843   134A      1.479819   135A      1.487708
     136A      1.496743   137A      1.513063   138A      1.518157
     139A      1.560004   140A      1.571021   141A      1.610441
     142A      1.622304   143A      1.642677   144A      1.672874
     145A      1.683478   146A      1.691756   147A      1.709833
     148A      1.721980   149A      1.736865   150A      1.751881
     151A      1.789789   152A      1.820286   153A      1.826559
     154A      1.856356   155A      1.872219   156A      1.880842
     157A      1.886117   158A      1.891505   159A      1.896795
     160A      1.907178   161A      1.919506   162A      1.927820
     163A      1.936689   164A      1.944198   165A      1.953441
     166A      1.959014   167A      1.963589   168A      1.966574
     169A      1.979477   170A      1.982719   171A      1.995115
     172A      2.004619   173A      2.028324   174A      2.037774
     175A      2.050972   176A      2.064626   177A      2.066811
     178A      2.074050   179A      2.102040   180A      2.106899
     181A      2.132267   182A      2.140756   183A      2.152501
     184A      2.168681   185A      2.172325   186A      2.217343
     187A      2.231689   188A      2.258771   189A      2.278590
     190A      2.305145   191A      2.314670   192A      2.332197
     193A      2.343246   194A      2.347941   195A      2.375038
     196A      2.397764   197A      2.403416   198A      2.456041
     199A      2.473009   200A      2.489610   201A      2.499965
     202A      2.542515   203A      2.557995   204A      2.586387
     205A      2.597341   206A      2.613934   207A      2.627146
     208A      2.646073   209A      2.651832   210A      2.742410
     211A      2.764973   212A      2.767033   213A      2.780141
     214A      2.786700   215A      2.801259   216A      2.820849
     217A      2.841309   218A      2.871403   219A      2.912823
     220A      2.917136   221A      2.984565   222A      2.992398
     223A      3.004354   224A      3.022081   225A      3.076331
     226A      3.105214   227A      3.131518   228A      3.257201
     229A      3.309039   230A      3.351997   231A      3.589894
     232A      3.671905   233A      3.982494   234A      4.185052

    Final Occupation by Irrep:
              A
    DOCC [    42 ]

  @RHF Final Energy:  -462.88933819628448

   => Energetics <=

    Nuclear Repulsion Energy =            595.6677238204396190
    One-Electron Energy =               -1808.9093896337985825
    Two-Electron Energy =                 750.3523276170743657
    Total Energy =                       -462.8893381962844842

Computation Completed

Properties will be evaluated at   0.000000,   0.000000,   0.000000 [a0]

Properties computed using the SCF density matrix

  Nuclear Dipole Moment: [e a0]
     X:    10.5684      Y:     3.6171      Z:     8.5237

  Electronic Dipole Moment: [e a0]
     X:   -10.9812      Y:    -3.6694      Z:    -8.0808

  Dipole Moment: [e a0]
     X:    -0.4128      Y:    -0.0523      Z:     0.4429     Total:     0.6077

  Dipole Moment: [D]
     X:    -1.0492      Y:    -0.1330      Z:     1.1258     Total:     1.5446

*** tstop() called on ds3 at Tue Apr 28 13:50:48 2020
Module time:
	user time   =     159.77 seconds =       2.66 minutes
	system time =      56.43 seconds =       0.94 minutes
	total time  =        211 seconds =       3.52 minutes
Total time:
	user time   =     159.77 seconds =       2.66 minutes
	system time =      56.43 seconds =       0.94 minutes
	total time  =        211 seconds =       3.52 minutes
                                     G D M A

                                 by Anthony Stone

                           version 2.2.06, 22 June 2011

               Distributed Multipoles from Gaussian wavefunctions

Starting at 13:50:48 on 28 Apr 2020

Using SCF density matrix from file ./SSI/SSI-081TYR-085ARG-1-dimer.test.10503.fchk

                         Distributed Multipole Analysis

Standard DMA

Positions and radii in angstrom
Multipole moments in atomic units, ea_0^k for rank k

C          x = -1.858189  y =  2.871943  z =  0.498477 angstrom
           Maximum rank =  0   Radius =  0.650 angstrom
                   Q00  =  -0.201746

C          x = -1.223189  y = -0.904057  z =  0.259477 angstrom
           Maximum rank =  0   Radius =  0.650 angstrom
                   Q00  =  -0.147454

C          x = -1.580189  y =  0.332943  z =  0.770477 angstrom
           Maximum rank =  0   Radius =  0.650 angstrom
                   Q00  =  -0.072556

C          x = -0.770189  y = -1.041057  z = -1.038523 angstrom
           Maximum rank =  0   Radius =  0.650 angstrom
                   Q00  =   0.319804

C          x = -1.497189  y =  1.493943  z = -0.027523 angstrom
           Maximum rank =  0   Radius =  0.650 angstrom
                   Q00  =  -0.137773

C          x = -0.670189  y =  0.101943  z = -1.802523 angstrom
           Maximum rank =  0   Radius =  0.650 angstrom
                   Q00  =   0.005447

C          x = -1.016189  y =  1.348943  z = -1.312523 angstrom
           Maximum rank =  0   Radius =  0.650 angstrom
                   Q00  =  -0.054618

O          x = -0.405189  y = -2.257057  z = -1.527523 angstrom
           Maximum rank =  0   Radius =  0.650 angstrom
                   Q00  =  -0.681835

H          x = -1.307189  y = -1.779057  z =  0.889477 angstrom
           Maximum rank =  0   Radius =  0.325 angstrom
                   Q00  =   0.068429

H          x = -1.945189  y =  0.384943  z =  1.786477 angstrom
           Maximum rank =  0   Radius =  0.325 angstrom
                   Q00  =   0.067915

H          x = -0.647189  y = -2.974057  z = -0.926523 angstrom
           Maximum rank =  0   Radius =  0.325 angstrom
                   Q00  =   0.409041

H          x = -0.337189  y =  0.004943  z = -2.824523 angstrom
           Maximum rank =  0   Radius =  0.325 angstrom
                   Q00  =   0.076384

H          x = -2.944189  y =  2.974943  z =  0.477477 angstrom
           Maximum rank =  0   Radius =  0.325 angstrom
                   Q00  =   0.100349

H          x = -1.435189  y =  3.632943  z = -0.157523 angstrom
           Maximum rank =  0   Radius =  0.325 angstrom
                   Q00  =   0.098678

H          x = -0.957189  y =  2.206943  z = -1.958523 angstrom
           Maximum rank =  0   Radius =  0.325 angstrom
                   Q00  =   0.061495

H          x = -1.501969  y =  3.037410  z =  1.525957 angstrom
           Maximum rank =  0   Radius =  0.325 angstrom
                   Q00  =   0.099852

C          x =  2.267811  y = -0.831057  z =  1.419477 angstrom
           Maximum rank =  0   Radius =  0.650 angstrom
                   Q00  =  -0.079313

C          x =  3.333811  y = -0.490057  z =  2.436477 angstrom
           Maximum rank =  0   Radius =  0.650 angstrom
                   Q00  =  -0.223649

C          x =  2.606811  y = -0.200057  z =  0.068477 angstrom
           Maximum rank =  0   Radius =  0.650 angstrom
                   Q00  =  -0.261882

H          x =  2.192811  y = -1.915057  z =  1.320477 angstrom
           Maximum rank =  0   Radius =  0.325 angstrom
                   Q00  =   0.038682

H          x =  1.302811  y = -0.452057  z =  1.750477 angstrom
           Maximum rank =  0   Radius =  0.325 angstrom
                   Q00  =   0.054324

H          x =  3.572811  y =  0.570943  z =  2.363477 angstrom
           Maximum rank =  0   Radius =  0.325 angstrom
                   Q00  =   0.071687

H          x =  4.233811  y = -1.049057  z =  2.173477 angstrom
           Maximum rank =  0   Radius =  0.325 angstrom
                   Q00  =   0.070694

H          x =  1.768811  y = -0.357057  z = -0.609523 angstrom
           Maximum rank =  0   Radius =  0.325 angstrom
                   Q00  =   0.097083

H          x =  2.685811  y =  0.880943  z =  0.204477 angstrom
           Maximum rank =  0   Radius =  0.325 angstrom
                   Q00  =   0.070198

H          x =  3.056771  y = -0.729482  z =  3.473747 angstrom
           Maximum rank =  0   Radius =  0.325 angstrom
                   Q00  =   0.077887

H          x =  3.537051  y = -0.568260  z = -0.388783 angstrom
           Maximum rank =  0   Radius =  0.325 angstrom
                   Q00  =   0.072875

Total multipoles referred to origin at
           x =   0.000000,  y =    0.000000,  z =    0.000000 angstrom
                   Q00  =  -0.000000

Finished at 13:50:48 on 28 Apr 2020

  DMA results are available in the Python driver through the
	  variable('DMA DISTRIBUTED MULTIPOLES')
  and
	  variable('DMA TOTAL MULTIPOLES')
  commands.

    Psi4 stopped on: Tuesday, 28 April 2020 01:50PM
    Psi4 wall time for execution: 0:03:31.12

*** Psi4 exiting successfully. Buy a developer a beer!
