                               Psi4 1.3.2 release

  ==> Input File <==

--------------------------------------------------------------------------
import numpy as np
set {scf_type pk
basis cc-pvdz
d_convergence 10
gdma_switch   0
gdma_limit    0
gdma_origin   [ 0.0,  0.0,  0.0 ]
}
molecule test {
    units Angstrom
    0 1
    --
    0 1
    C               -1.799693764509042    -0.087519638650598    -0.980838198301956
    C               -1.769693764509042    -1.597519638650598    -0.768838198301956
    H               -1.901693764509042     0.148480361349402    -2.041838198301956
    H               -2.640693764509042     0.340480361349402    -0.435838198301956
    H               -0.877693764509042     0.356480361349402    -0.609838198301956
    H               -1.645693764509042    -1.774519638650598     0.300161801698044
    H               -0.942553764509042    -2.047659638650598    -1.337338198301956
    H               -2.714773764509042    -2.061007638650598    -1.088238198301956
    C                1.689306235490958     0.111480361349402     0.686161801698044
    C                1.881306235490958     1.573480361349402     1.057161801698044
    H                1.561306235490958     0.004480361349402    -0.392838198301956
    H                2.551306235490958    -0.472519638650598     1.012161801698044
    H                0.804306235490958    -0.276519638650598     1.189161801698044
    H                2.089306235490958     1.602480361349402     2.122161801698044
    H                0.975566235490958     2.160257361349402     0.844261801698044
    H                2.726726235490958     2.020502361349402     0.513661801698044

}
e, wfn = energy('scf', return_wfn=True)
gdma(wfn)
dmavals = variable('DMA DISTRIBUTED MULTIPOLES')
charges = np.array(dmavals)
print(charges)
np.save('SSI-081ALA-088ALA-1-dimer.npy', np.array(charges))--------------------------------------------------------------------------

*** tstart() called on ds3
*** at Mon Apr 27 23:06:20 2020

   => Loading Basis Set <=

    Name: CC-PVDZ
    Role: ORBITAL
    Keyword: BASIS
    atoms 1-2, 9-10  entry C          line   138 file /theoryfs2/ds/metcalf/miniconda2/envs/tf2gpu/share/psi4/basis/cc-pvdz.gbs
    atoms 3-8, 11-16 entry H          line    22 file /theoryfs2/ds/metcalf/miniconda2/envs/tf2gpu/share/psi4/basis/cc-pvdz.gbs

         ---------------------------------------------------------
                                   SCF
               by Justin Turney, Rob Parrish, Andy Simmonett
                          and Daniel G. A. Smith
                              RHF Reference
                        1 Threads,    500 MiB Core
         ---------------------------------------------------------

  ==> Geometry <==

    Molecular point group: c1
    Full point group: C1

    Geometry (in Angstrom), charge = 0, multiplicity = 1:

       Center              X                  Y                   Z               Mass
    ------------   -----------------  -----------------  -----------------  -----------------
         C           -1.799693764509    -0.087519638651    -0.980838198302    12.000000000000
         C           -1.769693764509    -1.597519638651    -0.768838198302    12.000000000000
         H           -1.901693764509     0.148480361349    -2.041838198302     1.007825032230
         H           -2.640693764509     0.340480361349    -0.435838198302     1.007825032230
         H           -0.877693764509     0.356480361349    -0.609838198302     1.007825032230
         H           -1.645693764509    -1.774519638651     0.300161801698     1.007825032230
         H           -0.942553764509    -2.047659638651    -1.337338198302     1.007825032230
         H           -2.714773764509    -2.061007638651    -1.088238198302     1.007825032230
         C            1.689306235491     0.111480361349     0.686161801698    12.000000000000
         C            1.881306235491     1.573480361349     1.057161801698    12.000000000000
         H            1.561306235491     0.004480361349    -0.392838198302     1.007825032230
         H            2.551306235491    -0.472519638651     1.012161801698     1.007825032230
         H            0.804306235491    -0.276519638651     1.189161801698     1.007825032230
         H            2.089306235491     1.602480361349     2.122161801698     1.007825032230
         H            0.975566235491     2.160257361349     0.844261801698     1.007825032230
         H            2.726726235491     2.020502361349     0.513661801698     1.007825032230

  Running in c1 symmetry.

  Rotational constants: A =      0.41108  B =      0.05578  C =      0.05124 [cm^-1]
  Rotational constants: A =  12323.72450  B =   1672.15029  C =   1536.22272 [MHz]
  Nuclear repulsion =  123.868281461077387

  Charge       = 0
  Multiplicity = 1
  Electrons    = 36
  Nalpha       = 18
  Nbeta        = 18

  ==> Algorithm <==

  SCF Algorithm Type is PK.
  DIIS enabled.
  MOM disabled.
  Fractional occupation disabled.
  Guess Type is SAD.
  Energy threshold   = 1.00e-06
  Density threshold  = 1.00e-10
  Integral threshold = 0.00e+00

  ==> Primary Basis <==

  Basis Set: CC-PVDZ
    Blend: CC-PVDZ
    Number of shells: 60
    Number of basis function: 116
    Number of Cartesian functions: 120
    Spherical Harmonics?: true
    Max angular momentum: 2

  ==> Pre-Iterations <==

   -------------------------------------------------------
    Irrep   Nso     Nmo     Nalpha   Nbeta   Ndocc  Nsocc
   -------------------------------------------------------
     A        116     116       0       0       0       0
   -------------------------------------------------------
    Total     116     116      18      18      18       0
   -------------------------------------------------------

  ==> Integral Setup <==

  Using integral reordering PK algorithm.
  Sizing the integral batches needed.
  Building batch lookup table.
   Calculation information:
      Number of atoms:                  16
      Number of AO shells:              60
      Number of primitives:            148
      Number of atomic orbitals:       120
      Number of basis functions:       116

      Integral cutoff                 1.00e-12
      Number of threads:                 1

	Batch   1 pq = [       0,    6786] index = [             0,23028291] size =     23028291
  Task number: 3
  Buffer size: 11059200
  Buffer per thread: 2
  We computed 1494792 shell quartets total.
  Whereas there are 1675365 unique shell quartets.

  ==> DiskJK: Disk-Based J/K Matrices <==

    J tasked:                  Yes
    K tasked:                  Yes
    wK tasked:                  No
    Memory [MiB]:              375
    Schwarz Cutoff:          1E-12

    OpenMP threads:              1

  Minimum eigenvalue in the overlap matrix is 7.5273642737E-03.
  Using Symmetric Orthogonalization.

  SCF Guess: Superposition of Atomic Densities via on-the-fly atomic UHF.

  ==> Iterations <==

                        Total Energy        Delta E     RMS |[F,P]|

   @RHF iter SAD:  -157.37058565221068   -1.57371e+02   0.00000e+00
   @RHF iter   1:  -158.30670060783504   -9.36115e-01   4.22760e-03 DIIS
   @RHF iter   2:  -158.44090835525623   -1.34208e-01   1.80464e-03 DIIS
   @RHF iter   3:  -158.46452104670414   -2.36127e-02   3.50384e-04 DIIS
   @RHF iter   4:  -158.46636282825364   -1.84178e-03   3.85927e-05 DIIS
   @RHF iter   5:  -158.46638628364101   -2.34554e-05   6.24976e-06 DIIS
   @RHF iter   6:  -158.46638687680991   -5.93169e-07   8.78181e-07 DIIS
   @RHF iter   7:  -158.46638688503265   -8.22274e-09   2.80277e-07 DIIS
   @RHF iter   8:  -158.46638688566941   -6.36760e-10   3.55947e-08 DIIS
   @RHF iter   9:  -158.46638688568800   -1.85878e-11   6.09995e-09 DIIS
   @RHF iter  10:  -158.46638688568808   -8.52651e-14   1.82352e-09 DIIS
   @RHF iter  11:  -158.46638688568822   -1.42109e-13   5.14823e-10 DIIS
   @RHF iter  12:  -158.46638688568822    0.00000e+00   1.20808e-10 DIIS
   @RHF iter  13:  -158.46638688568817    5.68434e-14   2.16540e-11 DIIS
  Energy and wave function converged.

  ==> Post-Iterations <==

    Orbital Energies [Eh]
    ---------------------

    Doubly Occupied:

       1A    -11.218953     2A    -11.218722     3A    -11.217451
       4A    -11.215558     5A     -1.022165     6A     -1.018091
       7A     -0.837245     8A     -0.834974     9A     -0.606569
      10A     -0.601625    11A     -0.598600    12A     -0.590249
      13A     -0.503619    14A     -0.499917    15A     -0.487979
      16A     -0.486677    17A     -0.484584    18A     -0.480865

    Virtual:

      19A      0.169305    20A      0.198666    21A      0.226289
      22A      0.229701    23A      0.250093    24A      0.252819
      25A      0.262467    26A      0.271580    27A      0.277691
      28A      0.288976    29A      0.327587    30A      0.353753
      31A      0.390682    32A      0.401731    33A      0.574919
      34A      0.596528    35A      0.600909    36A      0.610978
      37A      0.613983    38A      0.632254    39A      0.677617
      40A      0.685804    41A      0.700916    42A      0.782686
      43A      0.843904    44A      0.850069    45A      0.885579
      46A      0.890733    47A      0.893175    48A      0.895819
      49A      0.897825    50A      0.903858    51A      0.921238
      52A      0.928294    53A      0.943029    54A      0.951131
      55A      0.984251    56A      1.030271    57A      1.121649
      58A      1.123505    59A      1.128564    60A      1.145011
      61A      1.234499    62A      1.281026    63A      1.460887
      64A      1.473662    65A      1.480050    66A      1.493305
      67A      1.568778    68A      1.593650    69A      1.679599
      70A      1.683536    71A      1.690439    72A      1.700082
      73A      1.829723    74A      1.858872    75A      1.863389
      76A      1.880477    77A      1.890799    78A      1.906832
      79A      1.941483    80A      1.944129    81A      1.946815
      82A      1.950243    83A      1.951262    84A      1.960488
      85A      1.974601    86A      1.976644    87A      1.981216
      88A      2.028379    89A      2.095248    90A      2.101372
      91A      2.122078    92A      2.138118    93A      2.296176
      94A      2.307317    95A      2.316287    96A      2.324205
      97A      2.450514    98A      2.455490    99A      2.459837
     100A      2.469256   101A      2.557572   102A      2.563951
     103A      2.575294   104A      2.585654   105A      2.758358
     106A      2.768136   107A      2.791893   108A      2.797379
     109A      2.845218   110A      2.850435   111A      2.858952
     112A      2.870521   113A      2.942050   114A      2.957310
     115A      2.962239   116A      2.978901

    Final Occupation by Irrep:
              A
    DOCC [    18 ]

  @RHF Final Energy:  -158.46638688568817

   => Energetics <=

    Nuclear Repulsion Energy =            123.8682814610773875
    One-Electron Energy =                -456.8216534404910476
    Two-Electron Energy =                 174.4869850937254796
    Total Energy =                       -158.4663868856881663

Computation Completed

Properties will be evaluated at   0.000000,   0.000000,   0.000000 [a0]

Properties computed using the SCF density matrix

  Nuclear Dipole Moment: [e a0]
     X:    -0.0137      Y:     0.0009      Z:     0.0709

  Electronic Dipole Moment: [e a0]
     X:     0.0297      Y:    -0.0006      Z:    -0.0502

  Dipole Moment: [e a0]
     X:     0.0160      Y:     0.0003      Z:     0.0207     Total:     0.0262

  Dipole Moment: [D]
     X:     0.0407      Y:     0.0008      Z:     0.0527     Total:     0.0666

*** tstop() called on ds3 at Mon Apr 27 23:06:33 2020
Module time:
	user time   =       8.66 seconds =       0.14 minutes
	system time =       4.18 seconds =       0.07 minutes
	total time  =         13 seconds =       0.22 minutes
Total time:
	user time   =       8.66 seconds =       0.14 minutes
	system time =       4.18 seconds =       0.07 minutes
	total time  =         13 seconds =       0.22 minutes
                                     G D M A

                                 by Anthony Stone

                           version 2.2.06, 22 June 2011

               Distributed Multipoles from Gaussian wavefunctions

Starting at 23:6:33 on 27 Apr 2020

Using SCF density matrix from file ./SSI/SSI-081ALA-088ALA-1-dimer.test.1066.fchk

                         Distributed Multipole Analysis

Standard DMA

Positions and radii in angstrom
Multipole moments in atomic units, ea_0^k for rank k

C          x = -1.799694  y = -0.087520  z = -0.980838 angstrom
           Maximum rank =  0   Radius =  0.650 angstrom
                   Q00  =  -0.232778

C          x = -1.769694  y = -1.597520  z = -0.768838 angstrom
           Maximum rank =  0   Radius =  0.650 angstrom
                   Q00  =  -0.240584

H          x = -1.901694  y =  0.148480  z = -2.041838 angstrom
           Maximum rank =  0   Radius =  0.325 angstrom
                   Q00  =   0.077577

H          x = -2.640694  y =  0.340480  z = -0.435838 angstrom
           Maximum rank =  0   Radius =  0.325 angstrom
                   Q00  =   0.077588

H          x = -0.877694  y =  0.356480  z = -0.609838 angstrom
           Maximum rank =  0   Radius =  0.325 angstrom
                   Q00  =   0.083047

H          x = -1.645694  y = -1.774520  z =  0.300162 angstrom
           Maximum rank =  0   Radius =  0.325 angstrom
                   Q00  =   0.076864

H          x = -0.942554  y = -2.047660  z = -1.337338 angstrom
           Maximum rank =  0   Radius =  0.325 angstrom
                   Q00  =   0.079300

H          x = -2.714774  y = -2.061008  z = -1.088238 angstrom
           Maximum rank =  0   Radius =  0.325 angstrom
                   Q00  =   0.078767

C          x =  1.689306  y =  0.111480  z =  0.686162 angstrom
           Maximum rank =  0   Radius =  0.650 angstrom
                   Q00  =  -0.236647

C          x =  1.881306  y =  1.573480  z =  1.057162 angstrom
           Maximum rank =  0   Radius =  0.650 angstrom
                   Q00  =  -0.233110

H          x =  1.561306  y =  0.004480  z = -0.392838 angstrom
           Maximum rank =  0   Radius =  0.325 angstrom
                   Q00  =   0.077497

H          x =  2.551306  y = -0.472520  z =  1.012162 angstrom
           Maximum rank =  0   Radius =  0.325 angstrom
                   Q00  =   0.079788

H          x =  0.804306  y = -0.276520  z =  1.189162 angstrom
           Maximum rank =  0   Radius =  0.325 angstrom
                   Q00  =   0.077925

H          x =  2.089306  y =  1.602480  z =  2.122162 angstrom
           Maximum rank =  0   Radius =  0.325 angstrom
                   Q00  =   0.077331

H          x =  0.975566  y =  2.160257  z =  0.844262 angstrom
           Maximum rank =  0   Radius =  0.325 angstrom
                   Q00  =   0.078358

H          x =  2.726726  y =  2.020502  z =  0.513662 angstrom
           Maximum rank =  0   Radius =  0.325 angstrom
                   Q00  =   0.079076

Total multipoles referred to origin at
           x =   0.000000,  y =    0.000000,  z =    0.000000 angstrom
                   Q00  =  -0.000000

Finished at 23:6:33 on 27 Apr 2020

  DMA results are available in the Python driver through the
	  variable('DMA DISTRIBUTED MULTIPOLES')
  and
	  variable('DMA TOTAL MULTIPOLES')
  commands.

    Psi4 stopped on: Monday, 27 April 2020 11:06PM
    Psi4 wall time for execution: 0:00:12.66

*** Psi4 exiting successfully. Buy a developer a beer!
