                               Psi4 1.3.2 release

  ==> Input File <==

--------------------------------------------------------------------------
import numpy as np
set {scf_type pk
basis cc-pvdz
d_convergence 10
gdma_switch   0
gdma_limit    0
gdma_origin   [ 0.0,  0.0,  0.0 ]
}
molecule test {
    units Angstrom
    0 1
    --
    0 1
    C                1.143914032647801     3.585653403537397     0.064902700750345
    C                1.577914032647801     0.997653403537397     0.260902700750345
    C                1.820914032647801     2.305653403537397    -0.283097299249655
    C                2.437914032647801     0.094653403537397    -0.431097299249655
    C                2.777914032647801     2.144653403537397    -1.232097299249655
    C                0.718914032647801     0.496653403537397     1.241902700750345
    C                2.459914032647801    -1.272346596462603    -0.171097299249655
    C                0.748914032647801    -0.869346596462603     1.505902700750345
    C                1.615914032647801    -1.744346596462603     0.820902700750345
    N                3.166914032647801     0.829653403537397    -1.331097299249655
    H                0.010914032647801     1.146653403537397     1.721902700750345
    H                0.115914032647801     3.343653403537397     0.335902700750345
    H                1.072914032647801     4.174653403537397    -0.851097299249655
    H                3.137914032647801     2.947653403537398    -1.862097299249655
    H                3.737914032647801     0.433653403537397    -2.073097299249655
    H                3.112914032647801    -1.934346596462603    -0.718097299249655
    H                0.085914032647801    -1.277346596462603     2.239902700750346
    H                1.603914032647801    -2.798346596462603     1.043902700750345
    H                1.560344032647801     4.238082403537396     0.846522700750345
    C               -2.308085967352199    -3.216346596462603     0.948902700750345
    C               -1.833085967352199    -0.097346596462603    -1.175097299249655
    C               -1.665085967352199    -1.392346596462603    -0.674097299249655
    C               -2.856085967352199     0.734653403537397    -0.756097299249655
    C               -2.525085967352199    -1.874346596462603     0.315902700750345
    C               -3.737085967352199     0.245653403537397     0.202902700750345
    C               -3.573085967352199    -1.037346596462603     0.732902700750345
    H               -1.119085967352199     0.276653403537397    -1.893097299249655
    H               -0.829085967352199    -1.989346596462603    -1.010097299249655
    H               -2.959085967352199     1.735653403537397    -1.143097299249655
    H               -4.528085967352199     0.878653403537397     0.569902700750345
    H               -2.724085967352199    -3.184346596462603     1.956902700750345
    H               -1.234085967352199    -3.357346596462603     1.053902700750345
    H               -4.253085967352198    -1.379346596462603     1.500902700750345
    H               -2.747478967352199    -4.083550596462603     0.434222700750345

}
e, wfn = energy('scf', return_wfn=True)
gdma(wfn)
dmavals = variable('DMA DISTRIBUTED MULTIPOLES')
charges = np.array(dmavals)
print(charges)
np.save('SSI-032TRP-073PHE-1-dimer.npy', np.array(charges))--------------------------------------------------------------------------

*** tstart() called on ds3
*** at Tue Apr 28 20:06:17 2020

   => Loading Basis Set <=

    Name: CC-PVDZ
    Role: ORBITAL
    Keyword: BASIS
    atoms 1-9, 20-26   entry C          line   138 file /theoryfs2/ds/metcalf/miniconda2/envs/tf2gpu/share/psi4/basis/cc-pvdz.gbs
    atoms 10           entry N          line   168 file /theoryfs2/ds/metcalf/miniconda2/envs/tf2gpu/share/psi4/basis/cc-pvdz.gbs
    atoms 11-19, 27-34 entry H          line    22 file /theoryfs2/ds/metcalf/miniconda2/envs/tf2gpu/share/psi4/basis/cc-pvdz.gbs

         ---------------------------------------------------------
                                   SCF
               by Justin Turney, Rob Parrish, Andy Simmonett
                          and Daniel G. A. Smith
                              RHF Reference
                        1 Threads,    500 MiB Core
         ---------------------------------------------------------

  ==> Geometry <==

    Molecular point group: c1
    Full point group: C1

    Geometry (in Angstrom), charge = 0, multiplicity = 1:

       Center              X                  Y                   Z               Mass
    ------------   -----------------  -----------------  -----------------  -----------------
         C            1.143914032648     3.585653403537     0.064902700750    12.000000000000
         C            1.577914032648     0.997653403537     0.260902700750    12.000000000000
         C            1.820914032648     2.305653403537    -0.283097299250    12.000000000000
         C            2.437914032648     0.094653403537    -0.431097299250    12.000000000000
         C            2.777914032648     2.144653403537    -1.232097299250    12.000000000000
         C            0.718914032648     0.496653403537     1.241902700750    12.000000000000
         C            2.459914032648    -1.272346596463    -0.171097299250    12.000000000000
         C            0.748914032648    -0.869346596463     1.505902700750    12.000000000000
         C            1.615914032648    -1.744346596463     0.820902700750    12.000000000000
         N            3.166914032648     0.829653403537    -1.331097299250    14.003074004430
         H            0.010914032648     1.146653403537     1.721902700750     1.007825032230
         H            0.115914032648     3.343653403537     0.335902700750     1.007825032230
         H            1.072914032648     4.174653403537    -0.851097299250     1.007825032230
         H            3.137914032648     2.947653403537    -1.862097299250     1.007825032230
         H            3.737914032648     0.433653403537    -2.073097299250     1.007825032230
         H            3.112914032648    -1.934346596463    -0.718097299250     1.007825032230
         H            0.085914032648    -1.277346596463     2.239902700750     1.007825032230
         H            1.603914032648    -2.798346596463     1.043902700750     1.007825032230
         H            1.560344032648     4.238082403537     0.846522700750     1.007825032230
         C           -2.308085967352    -3.216346596463     0.948902700750    12.000000000000
         C           -1.833085967352    -0.097346596463    -1.175097299250    12.000000000000
         C           -1.665085967352    -1.392346596463    -0.674097299250    12.000000000000
         C           -2.856085967352     0.734653403537    -0.756097299250    12.000000000000
         C           -2.525085967352    -1.874346596463     0.315902700750    12.000000000000
         C           -3.737085967352     0.245653403537     0.202902700750    12.000000000000
         C           -3.573085967352    -1.037346596463     0.732902700750    12.000000000000
         H           -1.119085967352     0.276653403537    -1.893097299250     1.007825032230
         H           -0.829085967352    -1.989346596463    -1.010097299250     1.007825032230
         H           -2.959085967352     1.735653403537    -1.143097299250     1.007825032230
         H           -4.528085967352     0.878653403537     0.569902700750     1.007825032230
         H           -2.724085967352    -3.184346596463     1.956902700750     1.007825032230
         H           -1.234085967352    -3.357346596463     1.053902700750     1.007825032230
         H           -4.253085967352    -1.379346596463     1.500902700750     1.007825032230
         H           -2.747478967352    -4.083550596463     0.434222700750     1.007825032230

  Running in c1 symmetry.

  Rotational constants: A =      0.02537  B =      0.01054  C =      0.00854 [cm^-1]
  Rotational constants: A =    760.52183  B =    315.88926  C =    256.09783 [MHz]
  Nuclear repulsion = 1112.188923876208719

  Charge       = 0
  Multiplicity = 1
  Electrons    = 120
  Nalpha       = 60
  Nbeta        = 60

  ==> Algorithm <==

  SCF Algorithm Type is PK.
  DIIS enabled.
  MOM disabled.
  Fractional occupation disabled.
  Guess Type is SAD.
  Energy threshold   = 1.00e-06
  Density threshold  = 1.00e-10
  Integral threshold = 0.00e+00

  ==> Primary Basis <==

  Basis Set: CC-PVDZ
    Blend: CC-PVDZ
    Number of shells: 153
    Number of basis function: 323
    Number of Cartesian functions: 340
    Spherical Harmonics?: true
    Max angular momentum: 2

  ==> Pre-Iterations <==

   -------------------------------------------------------
    Irrep   Nso     Nmo     Nalpha   Nbeta   Ndocc  Nsocc
   -------------------------------------------------------
     A        323     323       0       0       0       0
   -------------------------------------------------------
    Total     323     323      60      60      60       0
   -------------------------------------------------------

  ==> Integral Setup <==

  Using integral reordering PK algorithm.
  Sizing the integral batches needed.
  Building batch lookup table.
   Calculation information:
      Number of atoms:                  34
      Number of AO shells:             153
      Number of primitives:            459
      Number of atomic orbitals:       340
      Number of basis functions:       323

      Integral cutoff                 1.00e-12
      Number of threads:                 1

	Batch   1 pq = [       0,    9405] index = [             0,44231715] size =     44231715
	Batch   2 pq = [    9405,   13301] index = [      44231715,88464951] size =     44233236
	Batch   3 pq = [   13301,   16290] index = [      88464951,132690195] size =     44225244
	Batch   4 pq = [   16290,   18810] index = [     132690195,176917455] size =     44227260
	Batch   5 pq = [   18810,   21030] index = [     176917455,221140965] size =     44223510
	Batch   6 pq = [   21030,   23037] index = [     221140965,265363203] size =     44222238
	Batch   7 pq = [   23037,   24883] index = [     265363203,309594286] size =     44231083
	Batch   8 pq = [   24883,   26601] index = [     309594286,353819901] size =     44225615
	Batch   9 pq = [   26601,   28214] index = [     353819901,398029005] size =     44209104
	Batch  10 pq = [   28214,   29740] index = [     398029005,442248670] size =     44219665
	Batch  11 pq = [   29740,   31191] index = [     442248670,486454836] size =     44206166
	Batch  12 pq = [   31191,   32578] index = [     486454836,530679331] size =     44224495
	Batch  13 pq = [   32578,   33908] index = [     530679331,574893186] size =     44213855
	Batch  14 pq = [   33908,   35188] index = [     574893186,619115266] size =     44222080
	Batch  15 pq = [   35188,   36423] index = [     619115266,663335676] size =     44220410
	Batch  16 pq = [   36423,   37617] index = [     663335676,707538153] size =     44202477
	Batch  17 pq = [   37617,   38775] index = [     707538153,751769700] size =     44231547
	Batch  18 pq = [   38775,   39899] index = [     751769700,795985050] size =     44215350
	Batch  19 pq = [   39899,   40992] index = [     795985050,840192528] size =     44207478
	Batch  20 pq = [   40992,   42057] index = [     840192528,884416653] size =     44224125
	Batch  21 pq = [   42057,   43095] index = [     884416653,928611060] size =     44194407
	Batch  22 pq = [   43095,   44109] index = [     928611060,972823995] size =     44212935
	Batch  23 pq = [   44109,   45100] index = [     972823995,1017027550] size =     44203555
	Batch  24 pq = [   45100,   46070] index = [    1017027550,1061245485] size =     44217935
	Batch  25 pq = [   46070,   47020] index = [    1061245485,1105463710] size =     44218225
	Batch  26 pq = [   47020,   47951] index = [    1105463710,1149673176] size =     44209466
	Batch  27 pq = [   47951,   48864] index = [    1149673176,1193869680] size =     44196504
	Batch  28 pq = [   48864,   49761] index = [    1193869680,1238103441] size =     44233761
	Batch  29 pq = [   49761,   50642] index = [    1238103441,1282331403] size =     44227962
	Batch  30 pq = [   50642,   51508] index = [    1282331403,1326562786] size =     44231383
	Batch  31 pq = [   51508,   52326] index = [    1326562786,1369031301] size =     42468515
  Task number: 124
  Buffer size: 11059200
  Buffer per thread: 2
  We computed 86536914 shell quartets total.
  Whereas there are 69401871 unique shell quartets.
    24.69 percent of shell quartets recomputed by reordering.

  ==> DiskJK: Disk-Based J/K Matrices <==

    J tasked:                  Yes
    K tasked:                  Yes
    wK tasked:                  No
    Memory [MiB]:              375
    Schwarz Cutoff:          1E-12

    OpenMP threads:              1

  Minimum eigenvalue in the overlap matrix is 2.3930448769E-04.
  Using Symmetric Orthogonalization.

  SCF Guess: Superposition of Atomic Densities via on-the-fly atomic UHF.

  ==> Iterations <==

                        Total Energy        Delta E     RMS |[F,P]|

   @RHF iter SAD:  -669.56311091048156   -6.69563e+02   0.00000e+00
   @RHF iter   1:  -669.93901841048159   -3.75908e-01   2.16305e-03 DIIS
   @RHF iter   2:  -670.22956684038286   -2.90548e-01   9.65886e-04 DIIS
   @RHF iter   3:  -670.28087522768544   -5.13084e-02   2.68270e-04 DIIS
   @RHF iter   4:  -670.28586922125339   -4.99399e-03   1.19504e-04 DIIS
   @RHF iter   5:  -670.28671867436515   -8.49453e-04   1.64359e-05 DIIS
   @RHF iter   6:  -670.28675120445962   -3.25301e-05   7.42270e-06 DIIS
   @RHF iter   7:  -670.28675767848165   -6.47402e-06   2.85458e-06 DIIS
   @RHF iter   8:  -670.28675923963624   -1.56115e-06   1.22534e-06 DIIS
   @RHF iter   9:  -670.28675956506345   -3.25427e-07   5.33136e-07 DIIS
   @RHF iter  10:  -670.28675963283081   -6.77674e-08   2.40454e-07 DIIS
   @RHF iter  11:  -670.28675965004652   -1.72157e-08   1.12457e-07 DIIS
   @RHF iter  12:  -670.28675965353784   -3.49132e-09   4.54313e-08 DIIS
   @RHF iter  13:  -670.28675965402022   -4.82373e-10   1.30728e-08 DIIS
   @RHF iter  14:  -670.28675965403943   -1.92131e-11   4.97892e-09 DIIS
   @RHF iter  15:  -670.28675965404454   -5.11591e-12   2.01038e-09 DIIS
   @RHF iter  16:  -670.28675965404898   -4.43379e-12   1.00589e-09 DIIS
   @RHF iter  17:  -670.28675965404454    4.43379e-12   5.25865e-10 DIIS
   @RHF iter  18:  -670.28675965404807   -3.52429e-12   1.86701e-10 DIIS
   @RHF iter  19:  -670.28675965403943    8.64020e-12   7.93531e-11 DIIS
  Energy and wave function converged.

  ==> Post-Iterations <==

    Orbital Energies [Eh]
    ---------------------

    Doubly Occupied:

       1A    -15.601309     2A    -11.263138     3A    -11.262426
       4A    -11.233944     5A    -11.230116     6A    -11.228197
       7A    -11.227739     8A    -11.226281     9A    -11.225340
      10A    -11.224257    11A    -11.224035    12A    -11.223949
      13A    -11.222533    14A    -11.220598    15A    -11.220347
      16A    -11.217606    17A    -11.216816    18A     -1.294306
      19A     -1.142401    20A     -1.125790    21A     -1.074922
      22A     -1.038826    23A     -0.999242    24A     -0.996348
      25A     -0.985050    26A     -0.931448    27A     -0.926465
      28A     -0.837232    29A     -0.815093    30A     -0.803432
      31A     -0.786514    32A     -0.753270    33A     -0.719977
      34A     -0.683452    35A     -0.662592    36A     -0.640825
      37A     -0.622346    38A     -0.621448    39A     -0.604186
      40A     -0.593797    41A     -0.587028    42A     -0.573157
      43A     -0.568043    44A     -0.564508    45A     -0.558742
      46A     -0.553006    47A     -0.536476    48A     -0.528297
      49A     -0.524547    50A     -0.491093    51A     -0.482265
      52A     -0.477397    53A     -0.471661    54A     -0.471382
      55A     -0.455991    56A     -0.373580    57A     -0.320907
      58A     -0.316419    59A     -0.289107    60A     -0.274558

    Virtual:

      61A      0.124556    62A      0.144608    63A      0.146343
      64A      0.171412    65A      0.176713    66A      0.181175
      67A      0.189448    68A      0.204205    69A      0.213500
      70A      0.218733    71A      0.232019    72A      0.235428
      73A      0.240557    74A      0.252105    75A      0.258016
      76A      0.262296    77A      0.269257    78A      0.285352
      79A      0.294082    80A      0.297982    81A      0.315972
      82A      0.329318    83A      0.374278    84A      0.375922
      85A      0.381478    86A      0.384933    87A      0.409088
      88A      0.422449    89A      0.446747    90A      0.457507
      91A      0.472033    92A      0.474480    93A      0.482370
      94A      0.490875    95A      0.498090    96A      0.512973
      97A      0.521589    98A      0.566419    99A      0.583390
     100A      0.597508   101A      0.617342   102A      0.625676
     103A      0.641427   104A      0.646985   105A      0.656401
     106A      0.674369   107A      0.686503   108A      0.693762
     109A      0.695980   110A      0.702802   111A      0.708489
     112A      0.711587   113A      0.727002   114A      0.732502
     115A      0.736882   116A      0.739041   117A      0.744513
     118A      0.749033   119A      0.751488   120A      0.755648
     121A      0.762263   122A      0.773298   123A      0.776880
     124A      0.781359   125A      0.791236   126A      0.794180
     127A      0.799503   128A      0.817302   129A      0.830463
     130A      0.841518   131A      0.864361   132A      0.869221
     133A      0.874409   134A      0.880433   135A      0.882876
     136A      0.883786   137A      0.889068   138A      0.898803
     139A      0.908964   140A      0.910571   141A      0.919362
     142A      0.931520   143A      0.933525   144A      0.945939
     145A      0.952079   146A      0.955142   147A      0.958621
     148A      0.966603   149A      0.981083   150A      0.987588
     151A      0.993266   152A      0.995440   153A      1.014499
     154A      1.029542   155A      1.041211   156A      1.054152
     157A      1.060163   158A      1.072503   159A      1.091632
     160A      1.125319   161A      1.125655   162A      1.140648
     163A      1.143274   164A      1.151319   165A      1.159951
     166A      1.164119   167A      1.171445   168A      1.186409
     169A      1.193793   170A      1.206721   171A      1.222050
     172A      1.230751   173A      1.234551   174A      1.239487
     175A      1.251393   176A      1.263604   177A      1.274675
     178A      1.284253   179A      1.289804   180A      1.297679
     181A      1.307465   182A      1.315294   183A      1.323866
     184A      1.329271   185A      1.333480   186A      1.342373
     187A      1.357060   188A      1.380105   189A      1.385223
     190A      1.424759   191A      1.428352   192A      1.459558
     193A      1.499517   194A      1.522969   195A      1.537421
     196A      1.546893   197A      1.560527   198A      1.582712
     199A      1.600549   200A      1.617487   201A      1.628722
     202A      1.647775   203A      1.667268   204A      1.695362
     205A      1.697442   206A      1.703411   207A      1.710514
     208A      1.737597   209A      1.746653   210A      1.757182
     211A      1.767761   212A      1.776168   213A      1.779744
     214A      1.796560   215A      1.805166   216A      1.816436
     217A      1.818421   218A      1.834565   219A      1.845215
     220A      1.876187   221A      1.881062   222A      1.894509
     223A      1.898277   224A      1.901772   225A      1.910976
     226A      1.913138   227A      1.917527   228A      1.927474
     229A      1.931359   230A      1.939593   231A      1.940753
     232A      1.951538   233A      1.956985   234A      1.964509
     235A      1.972625   236A      1.981208   237A      1.986862
     238A      1.991524   239A      2.000788   240A      2.010414
     241A      2.016980   242A      2.043547   243A      2.048046
     244A      2.055092   245A      2.062581   246A      2.070798
     247A      2.084578   248A      2.090538   249A      2.097786
     250A      2.106678   251A      2.114997   252A      2.128529
     253A      2.134668   254A      2.146046   255A      2.152374
     256A      2.166788   257A      2.176963   258A      2.181367
     259A      2.183433   260A      2.187270   261A      2.191878
     262A      2.202828   263A      2.234586   264A      2.263099
     265A      2.267150   266A      2.283179   267A      2.293437
     268A      2.303611   269A      2.314066   270A      2.315837
     271A      2.327540   272A      2.332502   273A      2.341150
     274A      2.358657   275A      2.373528   276A      2.405523
     277A      2.416384   278A      2.453245   279A      2.473101
     280A      2.481807   281A      2.493086   282A      2.511271
     283A      2.527741   284A      2.559799   285A      2.591674
     286A      2.612161   287A      2.617090   288A      2.623553
     289A      2.665216   290A      2.684696   291A      2.728583
     292A      2.749231   293A      2.766384   294A      2.769489
     295A      2.782243   296A      2.783330   297A      2.791160
     298A      2.801105   299A      2.821933   300A      2.830780
     301A      2.848019   302A      2.869295   303A      2.874228
     304A      2.883438   305A      2.906942   306A      2.929700
     307A      2.978183   308A      2.996134   309A      3.011995
     310A      3.020648   311A      3.050754   312A      3.073849
     313A      3.086647   314A      3.121492   315A      3.159058
     316A      3.206166   317A      3.217250   318A      3.303566
     319A      3.320165   320A      3.370575   321A      3.734787
     322A      3.953310   323A      3.970430

    Final Occupation by Irrep:
              A
    DOCC [    60 ]

  @RHF Final Energy:  -670.28675965403943

   => Energetics <=

    Nuclear Repulsion Energy =           1112.1889238762087189
    One-Electron Energy =               -3116.2598478441550469
    Two-Electron Energy =                1333.7841643139070129
    Total Energy =                       -670.2867596540393151

Computation Completed

Properties will be evaluated at   0.000000,   0.000000,   0.000000 [a0]

Properties computed using the SCF density matrix

  Nuclear Dipole Moment: [e a0]
     X:    -5.5922      Y:    -0.7793      Z:     2.0225

  Electronic Dipole Moment: [e a0]
     X:     6.1255      Y:     0.8667      Z:    -2.6200

  Dipole Moment: [e a0]
     X:     0.5333      Y:     0.0874      Z:    -0.5975     Total:     0.8056

  Dipole Moment: [D]
     X:     1.3554      Y:     0.2223      Z:    -1.5186     Total:     2.0476

*** tstop() called on ds3 at Tue Apr 28 20:26:12 2020
Module time:
	user time   =     783.39 seconds =      13.06 minutes
	system time =     219.32 seconds =       3.66 minutes
	total time  =       1195 seconds =      19.92 minutes
Total time:
	user time   =     783.39 seconds =      13.06 minutes
	system time =     219.32 seconds =       3.66 minutes
	total time  =       1195 seconds =      19.92 minutes
                                     G D M A

                                 by Anthony Stone

                           version 2.2.06, 22 June 2011

               Distributed Multipoles from Gaussian wavefunctions

Starting at 20:26:13 on 28 Apr 2020

Using SCF density matrix from file ./SSI/SSI-032TRP-073PHE-1-dimer.test.32698.fchk

                         Distributed Multipole Analysis

Standard DMA

Positions and radii in angstrom
Multipole moments in atomic units, ea_0^k for rank k

C          x =  1.143914  y =  3.585653  z =  0.064903 angstrom
           Maximum rank =  0   Radius =  0.650 angstrom
                   Q00  =  -0.218594

C          x =  1.577914  y =  0.997653  z =  0.260903 angstrom
           Maximum rank =  0   Radius =  0.650 angstrom
                   Q00  =  -0.049623

C          x =  1.820914  y =  2.305653  z = -0.283097 angstrom
           Maximum rank =  0   Radius =  0.650 angstrom
                   Q00  =  -0.120642

C          x =  2.437914  y =  0.094653  z = -0.431097 angstrom
           Maximum rank =  0   Radius =  0.650 angstrom
                   Q00  =   0.247783

C          x =  2.777914  y =  2.144653  z = -1.232097 angstrom
           Maximum rank =  0   Radius =  0.650 angstrom
                   Q00  =   0.075395

C          x =  0.718914  y =  0.496653  z =  1.241903 angstrom
           Maximum rank =  0   Radius =  0.650 angstrom
                   Q00  =  -0.085729

C          x =  2.459914  y = -1.272347  z = -0.171097 angstrom
           Maximum rank =  0   Radius =  0.650 angstrom
                   Q00  =  -0.119620

C          x =  0.748914  y = -0.869347  z =  1.505903 angstrom
           Maximum rank =  0   Radius =  0.650 angstrom
                   Q00  =  -0.029496

C          x =  1.615914  y = -1.744347  z =  0.820903 angstrom
           Maximum rank =  0   Radius =  0.650 angstrom
                   Q00  =  -0.097066

N          x =  3.166914  y =  0.829653  z = -1.331097 angstrom
           Maximum rank =  0   Radius =  0.650 angstrom
                   Q00  =  -0.484887

H          x =  0.010914  y =  1.146653  z =  1.721903 angstrom
           Maximum rank =  0   Radius =  0.325 angstrom
                   Q00  =   0.076568

H          x =  0.115914  y =  3.343653  z =  0.335903 angstrom
           Maximum rank =  0   Radius =  0.325 angstrom
                   Q00  =   0.103099

H          x =  1.072914  y =  4.174653  z = -0.851097 angstrom
           Maximum rank =  0   Radius =  0.325 angstrom
                   Q00  =   0.097827

H          x =  3.137914  y =  2.947653  z = -1.862097 angstrom
           Maximum rank =  0   Radius =  0.325 angstrom
                   Q00  =   0.095592

H          x =  3.737914  y =  0.433653  z = -2.073097 angstrom
           Maximum rank =  0   Radius =  0.325 angstrom
                   Q00  =   0.218320

H          x =  3.112914  y = -1.934347  z = -0.718097 angstrom
           Maximum rank =  0   Radius =  0.325 angstrom
                   Q00  =   0.072727

H          x =  0.085914  y = -1.277347  z =  2.239903 angstrom
           Maximum rank =  0   Radius =  0.325 angstrom
                   Q00  =   0.058469

H          x =  1.603914  y = -2.798347  z =  1.043903 angstrom
           Maximum rank =  0   Radius =  0.325 angstrom
                   Q00  =   0.061192

H          x =  1.560344  y =  4.238082  z =  0.846523 angstrom
           Maximum rank =  0   Radius =  0.325 angstrom
                   Q00  =   0.102383

C          x = -2.308086  y = -3.216347  z =  0.948903 angstrom
           Maximum rank =  0   Radius =  0.650 angstrom
                   Q00  =  -0.207319

C          x = -1.833086  y = -0.097347  z = -1.175097 angstrom
           Maximum rank =  0   Radius =  0.650 angstrom
                   Q00  =   0.033936

C          x = -1.665086  y = -1.392347  z = -0.674097 angstrom
           Maximum rank =  0   Radius =  0.650 angstrom
                   Q00  =  -0.076731

C          x = -2.856086  y =  0.734653  z = -0.756097 angstrom
           Maximum rank =  0   Radius =  0.650 angstrom
                   Q00  =  -0.092877

C          x = -2.525086  y = -1.874347  z =  0.315903 angstrom
           Maximum rank =  0   Radius =  0.650 angstrom
                   Q00  =  -0.100982

C          x = -3.737086  y =  0.245653  z =  0.202903 angstrom
           Maximum rank =  0   Radius =  0.650 angstrom
                   Q00  =  -0.082243

C          x = -3.573086  y = -1.037347  z =  0.732903 angstrom
           Maximum rank =  0   Radius =  0.650 angstrom
                   Q00  =  -0.070345

H          x = -1.119086  y =  0.276653  z = -1.893097 angstrom
           Maximum rank =  0   Radius =  0.325 angstrom
                   Q00  =   0.062843

H          x = -0.829086  y = -1.989347  z = -1.010097 angstrom
           Maximum rank =  0   Radius =  0.325 angstrom
                   Q00  =   0.061579

H          x = -2.959086  y =  1.735653  z = -1.143097 angstrom
           Maximum rank =  0   Radius =  0.325 angstrom
                   Q00  =   0.059591

H          x = -4.528086  y =  0.878653  z =  0.569903 angstrom
           Maximum rank =  0   Radius =  0.325 angstrom
                   Q00  =   0.060249

H          x = -2.724086  y = -3.184347  z =  1.956903 angstrom
           Maximum rank =  0   Radius =  0.325 angstrom
                   Q00  =   0.093613

H          x = -1.234086  y = -3.357347  z =  1.053903 angstrom
           Maximum rank =  0   Radius =  0.325 angstrom
                   Q00  =   0.095675

H          x = -4.253086  y = -1.379347  z =  1.500903 angstrom
           Maximum rank =  0   Radius =  0.325 angstrom
                   Q00  =   0.053161

H          x = -2.747479  y = -4.083551  z =  0.434223 angstrom
           Maximum rank =  0   Radius =  0.325 angstrom
                   Q00  =   0.106152

Total multipoles referred to origin at
           x =   0.000000,  y =    0.000000,  z =    0.000000 angstrom
                   Q00  =  -0.000000

Finished at 20:26:13 on 28 Apr 2020

  DMA results are available in the Python driver through the
	  variable('DMA DISTRIBUTED MULTIPOLES')
  and
	  variable('DMA TOTAL MULTIPOLES')
  commands.

    Psi4 stopped on: Tuesday, 28 April 2020 08:26PM
    Psi4 wall time for execution: 0:19:55.74

*** Psi4 exiting successfully. Buy a developer a beer!
