                               Psi4 1.3.2 release

  ==> Input File <==

--------------------------------------------------------------------------
import numpy as np
set {scf_type pk
basis cc-pvdz
d_convergence 10
gdma_switch   0
gdma_limit    0
gdma_origin   [ 0.0,  0.0,  0.0 ]
}
molecule test {
    units Angstrom
    0 1
    --
    0 1
    C               -0.495317824494096     0.483296741009586    -2.488628024350733
    C                0.543682175505904    -0.150703258990414    -1.607628024350733
    C                0.740682175505904    -1.529703258990414    -1.638628024350733
    C                1.286682175505904     0.621296741009586    -0.719628024350733
    C                1.658682175505904    -2.136703258990413    -0.781628024350733
    C                2.210682175505903     0.025296741009586     0.130371975649267
    C                2.394682175505904    -1.355703258990414     0.107371975649267
    H               -0.663317824494096     1.519296741009586    -2.189628024350733
    H               -1.430317824494096    -0.055703258990414    -2.326628024350733
    H                0.180682175505904    -2.139703258990413    -2.331628024350733
    H                1.139682175505904     1.691296741009586    -0.679628024350733
    H                1.788682175505904    -3.207703258990414    -0.796628024350733
    H                2.772682175505903     0.621296741009586     0.829371975649267
    H                3.095682175505904    -1.821703258990414     0.784371975649267
    H               -0.248329824494096     0.445246741009586    -3.559865024350732
    C               -1.646317824494096     0.986296741009586     1.355371975649267
    C               -1.320317824494096     1.926296741009586     2.538371975649267
    C               -1.239317824494096    -0.455703258990414     1.631371975649267
    C               -3.121317824494096     1.093296741009586     0.950371975649267
    H               -1.069317824494096     1.330296741009586     0.498371975649267
    H               -1.625317824494096     2.927296741009586     2.232371975649267
    H               -1.861317824494096    -0.873703258990414     2.420371975649267
    H               -1.390317824494096    -1.044703258990414     0.726371975649267
    H               -0.183317824494096    -0.506703258990414     1.893371975649267
    H               -3.378317824494097     2.132296741009586     0.745371975649267
    H               -3.287317824494096     0.509296741009586     0.043371975649267
    H               -3.765317824494097     0.698296741009586     1.736371975649267
    H               -0.241478824494096     1.954326741009586     2.751260775649267
    H               -1.889134824494096     1.687896741009586     3.449203775649267

}
e, wfn = energy('scf', return_wfn=True)
gdma(wfn)
dmavals = variable('DMA DISTRIBUTED MULTIPOLES')
charges = np.array(dmavals)
print(charges)
np.save('SSI-049PHE-093VAL-1-dimer.npy', np.array(charges))--------------------------------------------------------------------------

*** tstart() called on ds3
*** at Sun Apr 26 22:07:34 2020

   => Loading Basis Set <=

    Name: CC-PVDZ
    Role: ORBITAL
    Keyword: BASIS
    atoms 1-7, 16-19  entry C          line   138 file /theoryfs2/ds/metcalf/miniconda2/envs/tf2gpu/share/psi4/basis/cc-pvdz.gbs
    atoms 8-15, 20-29 entry H          line    22 file /theoryfs2/ds/metcalf/miniconda2/envs/tf2gpu/share/psi4/basis/cc-pvdz.gbs

         ---------------------------------------------------------
                                   SCF
               by Justin Turney, Rob Parrish, Andy Simmonett
                          and Daniel G. A. Smith
                              RHF Reference
                        1 Threads,    500 MiB Core
         ---------------------------------------------------------

  ==> Geometry <==

    Molecular point group: c1
    Full point group: C1

    Geometry (in Angstrom), charge = 0, multiplicity = 1:

       Center              X                  Y                   Z               Mass
    ------------   -----------------  -----------------  -----------------  -----------------
         C           -0.495317824494     0.483296741010    -2.488628024351    12.000000000000
         C            0.543682175506    -0.150703258990    -1.607628024351    12.000000000000
         C            0.740682175506    -1.529703258990    -1.638628024351    12.000000000000
         C            1.286682175506     0.621296741010    -0.719628024351    12.000000000000
         C            1.658682175506    -2.136703258990    -0.781628024351    12.000000000000
         C            2.210682175506     0.025296741010     0.130371975649    12.000000000000
         C            2.394682175506    -1.355703258990     0.107371975649    12.000000000000
         H           -0.663317824494     1.519296741010    -2.189628024351     1.007825032230
         H           -1.430317824494    -0.055703258990    -2.326628024351     1.007825032230
         H            0.180682175506    -2.139703258990    -2.331628024351     1.007825032230
         H            1.139682175506     1.691296741010    -0.679628024351     1.007825032230
         H            1.788682175506    -3.207703258990    -0.796628024351     1.007825032230
         H            2.772682175506     0.621296741010     0.829371975649     1.007825032230
         H            3.095682175506    -1.821703258990     0.784371975649     1.007825032230
         H           -0.248329824494     0.445246741010    -3.559865024351     1.007825032230
         C           -1.646317824494     0.986296741010     1.355371975649    12.000000000000
         C           -1.320317824494     1.926296741010     2.538371975649    12.000000000000
         C           -1.239317824494    -0.455703258990     1.631371975649    12.000000000000
         C           -3.121317824494     1.093296741010     0.950371975649    12.000000000000
         H           -1.069317824494     1.330296741010     0.498371975649     1.007825032230
         H           -1.625317824494     2.927296741010     2.232371975649     1.007825032230
         H           -1.861317824494    -0.873703258990     2.420371975649     1.007825032230
         H           -1.390317824494    -1.044703258990     0.726371975649     1.007825032230
         H           -0.183317824494    -0.506703258990     1.893371975649     1.007825032230
         H           -3.378317824494     2.132296741010     0.745371975649     1.007825032230
         H           -3.287317824494     0.509296741010     0.043371975649     1.007825032230
         H           -3.765317824494     0.698296741010     1.736371975649     1.007825032230
         H           -0.241478824494     1.954326741010     2.751260775649     1.007825032230
         H           -1.889134824494     1.687896741010     3.449203775649     1.007825032230

  Running in c1 symmetry.

  Rotational constants: A =      0.04903  B =      0.02047  C =      0.01792 [cm^-1]
  Rotational constants: A =   1469.84873  B =    613.79142  C =    537.35187 [MHz]
  Nuclear repulsion =  598.815170419006677

  Charge       = 0
  Multiplicity = 1
  Electrons    = 84
  Nalpha       = 42
  Nbeta        = 42

  ==> Algorithm <==

  SCF Algorithm Type is PK.
  DIIS enabled.
  MOM disabled.
  Fractional occupation disabled.
  Guess Type is SAD.
  Energy threshold   = 1.00e-06
  Density threshold  = 1.00e-10
  Integral threshold = 0.00e+00

  ==> Primary Basis <==

  Basis Set: CC-PVDZ
    Blend: CC-PVDZ
    Number of shells: 120
    Number of basis function: 244
    Number of Cartesian functions: 255
    Spherical Harmonics?: true
    Max angular momentum: 2

  ==> Pre-Iterations <==

   -------------------------------------------------------
    Irrep   Nso     Nmo     Nalpha   Nbeta   Ndocc  Nsocc
   -------------------------------------------------------
     A        244     244       0       0       0       0
   -------------------------------------------------------
    Total     244     244      42      42      42       0
   -------------------------------------------------------

  ==> Integral Setup <==

  Using integral reordering PK algorithm.
  Sizing the integral batches needed.
  Building batch lookup table.
   Calculation information:
      Number of atoms:                  29
      Number of AO shells:             120
      Number of primitives:            332
      Number of atomic orbitals:       255
      Number of basis functions:       244

      Integral cutoff                 1.00e-12
      Number of threads:                 1

	Batch   1 pq = [       0,    9405] index = [             0,44231715] size =     44231715
	Batch   2 pq = [    9405,   13301] index = [      44231715,88464951] size =     44233236
	Batch   3 pq = [   13301,   16290] index = [      88464951,132690195] size =     44225244
	Batch   4 pq = [   16290,   18810] index = [     132690195,176917455] size =     44227260
	Batch   5 pq = [   18810,   21030] index = [     176917455,221140965] size =     44223510
	Batch   6 pq = [   21030,   23037] index = [     221140965,265363203] size =     44222238
	Batch   7 pq = [   23037,   24883] index = [     265363203,309594286] size =     44231083
	Batch   8 pq = [   24883,   26601] index = [     309594286,353819901] size =     44225615
	Batch   9 pq = [   26601,   28214] index = [     353819901,398029005] size =     44209104
	Batch  10 pq = [   28214,   29740] index = [     398029005,442248670] size =     44219665
	Batch  11 pq = [   29740,   29890] index = [     442248670,446720995] size =      4472325
  Task number: 41
  Buffer size: 11059200
  Buffer per thread: 2
  We computed 29585516 shell quartets total.
  Whereas there are 26357430 unique shell quartets.
    12.25 percent of shell quartets recomputed by reordering.

  ==> DiskJK: Disk-Based J/K Matrices <==

    J tasked:                  Yes
    K tasked:                  Yes
    wK tasked:                  No
    Memory [MiB]:              375
    Schwarz Cutoff:          1E-12

    OpenMP threads:              1

  Minimum eigenvalue in the overlap matrix is 3.0932739750E-04.
  Using Symmetric Orthogonalization.

  SCF Guess: Superposition of Atomic Densities via on-the-fly atomic UHF.

  ==> Iterations <==

                        Total Energy        Delta E     RMS |[F,P]|

   @RHF iter SAD:  -425.93465755191016   -4.25935e+02   0.00000e+00
   @RHF iter   1:  -426.77238357066074   -8.37726e-01   2.64877e-03 DIIS
   @RHF iter   2:  -427.02130218556448   -2.48919e-01   1.12333e-03 DIIS
   @RHF iter   3:  -427.06195145484475   -4.06493e-02   2.47940e-04 DIIS
   @RHF iter   4:  -427.06525443206556   -3.30298e-03   6.40868e-05 DIIS
   @RHF iter   5:  -427.06540689488168   -1.52463e-04   1.63476e-05 DIIS
   @RHF iter   6:  -427.06541720809872   -1.03132e-05   5.39204e-06 DIIS
   @RHF iter   7:  -427.06541842269650   -1.21460e-06   1.15631e-06 DIIS
   @RHF iter   8:  -427.06541849807223   -7.53757e-08   2.92164e-07 DIIS
   @RHF iter   9:  -427.06541850717844   -9.10620e-09   1.29313e-07 DIIS
   @RHF iter  10:  -427.06541850895422   -1.77579e-09   6.21680e-08 DIIS
   @RHF iter  11:  -427.06541850957530   -6.21071e-10   2.87271e-08 DIIS
   @RHF iter  12:  -427.06541850971951   -1.44212e-10   1.25799e-08 DIIS
   @RHF iter  13:  -427.06541850973849   -1.89857e-11   3.80015e-09 DIIS
   @RHF iter  14:  -427.06541850974071   -2.21689e-12   9.75707e-10 DIIS
   @RHF iter  15:  -427.06541850974133   -6.25278e-13   3.59329e-10 DIIS
   @RHF iter  16:  -427.06541850974367   -2.33058e-12   1.51131e-10 DIIS
   @RHF iter  17:  -427.06541850974116    2.50111e-12   7.24663e-11 DIIS
  Energy and wave function converged.

  ==> Post-Iterations <==

    Orbital Energies [Eh]
    ---------------------

    Doubly Occupied:

       1A    -11.241549     2A    -11.237315     3A    -11.235997
       4A    -11.232628     5A    -11.231860     6A    -11.231395
       7A    -11.230876     8A    -11.217003     9A    -11.212256
      10A    -11.210324    11A    -11.201376    12A     -1.154475
      13A     -1.072308    14A     -1.046154    15A     -1.013374
      16A     -0.932589    17A     -0.920611    18A     -0.919702
      19A     -0.827018    20A     -0.797061    21A     -0.756456
      22A     -0.692513    23A     -0.633626    24A     -0.631994
      25A     -0.623029    26A     -0.584740    27A     -0.584361
      28A     -0.580136    29A     -0.576293    30A     -0.564035
      31A     -0.537055    32A     -0.531503    33A     -0.529066
      34A     -0.502822    35A     -0.486824    36A     -0.485935
      37A     -0.483737    38A     -0.452073    39A     -0.450383
      40A     -0.447419    41A     -0.333245    42A     -0.322626

    Virtual:

      43A      0.131547    44A      0.140022    45A      0.165258
      46A      0.189042    47A      0.199607    48A      0.209951
      49A      0.228178    50A      0.234928    51A      0.243845
      52A      0.251953    53A      0.260798    54A      0.261780
      55A      0.264284    56A      0.280419    57A      0.293885
      58A      0.304760    59A      0.311897    60A      0.322184
      61A      0.323924    62A      0.338274    63A      0.361141
      64A      0.373847    65A      0.384983    66A      0.410121
      67A      0.416990    68A      0.450519    69A      0.461089
      70A      0.476839    71A      0.498320    72A      0.555189
      73A      0.562951    74A      0.574262    75A      0.597955
      76A      0.600316    77A      0.615533    78A      0.627885
      79A      0.669907    80A      0.681378    81A      0.698500
      82A      0.708203    83A      0.729461    84A      0.735871
      85A      0.740950    86A      0.747287    87A      0.754014
      88A      0.763323    89A      0.772726    90A      0.779460
      91A      0.790119    92A      0.797864    93A      0.830737
      94A      0.838951    95A      0.847382    96A      0.852268
      97A      0.860655    98A      0.867281    99A      0.876313
     100A      0.884955   101A      0.889290   102A      0.896270
     103A      0.906019   104A      0.908530   105A      0.913905
     106A      0.916911   107A      0.925867   108A      0.926623
     109A      0.944081   110A      0.954188   111A      0.961699
     112A      0.968532   113A      0.981575   114A      0.991732
     115A      0.998180   116A      1.003139   117A      1.014756
     118A      1.044664   119A      1.062820   120A      1.076718
     121A      1.127435   122A      1.133587   123A      1.142551
     124A      1.150082   125A      1.153478   126A      1.174182
     127A      1.198642   128A      1.210288   129A      1.226451
     130A      1.250769   131A      1.259091   132A      1.270478
     133A      1.296789   134A      1.309927   135A      1.316959
     136A      1.332070   137A      1.381278   138A      1.407523
     139A      1.422098   140A      1.442016   141A      1.504030
     142A      1.523232   143A      1.545552   144A      1.550782
     145A      1.582893   146A      1.608166   147A      1.658229
     148A      1.668968   149A      1.684213   150A      1.689103
     151A      1.698799   152A      1.700024   153A      1.710874
     154A      1.712319   155A      1.738496   156A      1.746539
     157A      1.759363   158A      1.764479   159A      1.796915
     160A      1.826162   161A      1.849787   162A      1.851527
     163A      1.859884   164A      1.873475   165A      1.882602
     166A      1.902216   167A      1.916220   168A      1.919998
     169A      1.928065   170A      1.944359   171A      1.945358
     172A      1.954451   173A      1.959118   174A      1.959911
     175A      1.963976   176A      1.975739   177A      1.979892
     178A      1.997850   179A      1.999308   180A      2.019138
     181A      2.023998   182A      2.031380   183A      2.037727
     184A      2.059410   185A      2.078172   186A      2.080476
     187A      2.093310   188A      2.116038   189A      2.127476
     190A      2.130981   191A      2.143517   192A      2.150364
     193A      2.160426   194A      2.166426   195A      2.174401
     196A      2.197047   197A      2.240992   198A      2.257713
     199A      2.270280   200A      2.275433   201A      2.290867
     202A      2.297458   203A      2.316782   204A      2.320045
     205A      2.331421   206A      2.335611   207A      2.359217
     208A      2.384859   209A      2.399544   210A      2.446324
     211A      2.476838   212A      2.501316   213A      2.523687
     214A      2.535988   215A      2.586480   216A      2.619508
     217A      2.624211   218A      2.634231   219A      2.722625
     220A      2.733328   221A      2.737196   222A      2.759440
     223A      2.765911   224A      2.775930   225A      2.785430
     226A      2.791838   227A      2.805707   228A      2.811525
     229A      2.822701   230A      2.836169   231A      2.854543
     232A      2.869730   233A      2.871595   234A      2.878444
     235A      2.989380   236A      3.011078   237A      3.021902
     238A      3.041979   239A      3.054181   240A      3.134613
     241A      3.163901   242A      3.200937   243A      3.305370
     244A      3.970764

    Final Occupation by Irrep:
              A
    DOCC [    42 ]

  @RHF Final Energy:  -427.06541850974116

   => Energetics <=

    Nuclear Repulsion Energy =            598.8151704190066766
    One-Electron Energy =               -1763.8496934710983624
    Two-Electron Energy =                 737.9691045423503510
    Total Energy =                       -427.0654185097412210

Computation Completed

Properties will be evaluated at   0.000000,   0.000000,   0.000000 [a0]

Properties computed using the SCF density matrix

  Nuclear Dipole Moment: [e a0]
     X:   -11.3019      Y:     5.5001      Z:     5.8369

  Electronic Dipole Moment: [e a0]
     X:    11.3107      Y:    -5.5100      Z:    -6.0013

  Dipole Moment: [e a0]
     X:     0.0089      Y:    -0.0099      Z:    -0.1644     Total:     0.1650

  Dipole Moment: [D]
     X:     0.0226      Y:    -0.0253      Z:    -0.4179     Total:     0.4193

*** tstop() called on ds3 at Sun Apr 26 22:13:11 2020
Module time:
	user time   =     203.31 seconds =       3.39 minutes
	system time =      69.68 seconds =       1.16 minutes
	total time  =        337 seconds =       5.62 minutes
Total time:
	user time   =     203.31 seconds =       3.39 minutes
	system time =      69.68 seconds =       1.16 minutes
	total time  =        337 seconds =       5.62 minutes
                                     G D M A

                                 by Anthony Stone

                           version 2.2.06, 22 June 2011

               Distributed Multipoles from Gaussian wavefunctions

Starting at 22:13:11 on 26 Apr 2020

Using SCF density matrix from file ./SSI/SSI-049PHE-093VAL-1-dimer.test.30143.fchk

                         Distributed Multipole Analysis

Standard DMA

Positions and radii in angstrom
Multipole moments in atomic units, ea_0^k for rank k

C          x = -0.495318  y =  0.483297  z = -2.488628 angstrom
           Maximum rank =  0   Radius =  0.650 angstrom
                   Q00  =  -0.200268

C          x =  0.543682  y = -0.150703  z = -1.607628 angstrom
           Maximum rank =  0   Radius =  0.650 angstrom
                   Q00  =  -0.098245

C          x =  0.740682  y = -1.529703  z = -1.638628 angstrom
           Maximum rank =  0   Radius =  0.650 angstrom
                   Q00  =  -0.020107

C          x =  1.286682  y =  0.621297  z = -0.719628 angstrom
           Maximum rank =  0   Radius =  0.650 angstrom
                   Q00  =  -0.049212

C          x =  1.658682  y = -2.136703  z = -0.781628 angstrom
           Maximum rank =  0   Radius =  0.650 angstrom
                   Q00  =  -0.067701

C          x =  2.210682  y =  0.025297  z =  0.130372 angstrom
           Maximum rank =  0   Radius =  0.650 angstrom
                   Q00  =  -0.079698

C          x =  2.394682  y = -1.355703  z =  0.107372 angstrom
           Maximum rank =  0   Radius =  0.650 angstrom
                   Q00  =  -0.090637

H          x = -0.663318  y =  1.519297  z = -2.189628 angstrom
           Maximum rank =  0   Radius =  0.325 angstrom
                   Q00  =   0.097804

H          x = -1.430318  y = -0.055703  z = -2.326628 angstrom
           Maximum rank =  0   Radius =  0.325 angstrom
                   Q00  =   0.097647

H          x =  0.180682  y = -2.139703  z = -2.331628 angstrom
           Maximum rank =  0   Radius =  0.325 angstrom
                   Q00  =   0.055478

H          x =  1.139682  y =  1.691297  z = -0.679628 angstrom
           Maximum rank =  0   Radius =  0.325 angstrom
                   Q00  =   0.059088

H          x =  1.788682  y = -3.207703  z = -0.796628 angstrom
           Maximum rank =  0   Radius =  0.325 angstrom
                   Q00  =   0.066238

H          x =  2.772682  y =  0.621297  z =  0.829372 angstrom
           Maximum rank =  0   Radius =  0.325 angstrom
                   Q00  =   0.064586

H          x =  3.095682  y = -1.821703  z =  0.784372 angstrom
           Maximum rank =  0   Radius =  0.325 angstrom
                   Q00  =   0.062425

H          x = -0.248330  y =  0.445247  z = -3.559865 angstrom
           Maximum rank =  0   Radius =  0.325 angstrom
                   Q00  =   0.106202

C          x = -1.646318  y =  0.986297  z =  1.355372 angstrom
           Maximum rank =  0   Radius =  0.650 angstrom
                   Q00  =   0.033668

C          x = -1.320318  y =  1.926297  z =  2.538372 angstrom
           Maximum rank =  0   Radius =  0.650 angstrom
                   Q00  =  -0.261439

C          x = -1.239318  y = -0.455703  z =  1.631372 angstrom
           Maximum rank =  0   Radius =  0.650 angstrom
                   Q00  =  -0.231430

C          x = -3.121318  y =  1.093297  z =  0.950372 angstrom
           Maximum rank =  0   Radius =  0.650 angstrom
                   Q00  =  -0.257466

H          x = -1.069318  y =  1.330297  z =  0.498372 angstrom
           Maximum rank =  0   Radius =  0.325 angstrom
                   Q00  =   0.005591

H          x = -1.625318  y =  2.927297  z =  2.232372 angstrom
           Maximum rank =  0   Radius =  0.325 angstrom
                   Q00  =   0.073354

H          x = -1.861318  y = -0.873703  z =  2.420372 angstrom
           Maximum rank =  0   Radius =  0.325 angstrom
                   Q00  =   0.068956

H          x = -1.390318  y = -1.044703  z =  0.726372 angstrom
           Maximum rank =  0   Radius =  0.325 angstrom
                   Q00  =   0.081063

H          x = -0.183318  y = -0.506703  z =  1.893372 angstrom
           Maximum rank =  0   Radius =  0.325 angstrom
                   Q00  =   0.090878

H          x = -3.378318  y =  2.132297  z =  0.745372 angstrom
           Maximum rank =  0   Radius =  0.325 angstrom
                   Q00  =   0.078898

H          x = -3.287318  y =  0.509297  z =  0.043372 angstrom
           Maximum rank =  0   Radius =  0.325 angstrom
                   Q00  =   0.078030

H          x = -3.765318  y =  0.698297  z =  1.736372 angstrom
           Maximum rank =  0   Radius =  0.325 angstrom
                   Q00  =   0.076365

H          x = -0.241479  y =  1.954327  z =  2.751261 angstrom
           Maximum rank =  0   Radius =  0.325 angstrom
                   Q00  =   0.082027

H          x = -1.889135  y =  1.687897  z =  3.449204 angstrom
           Maximum rank =  0   Radius =  0.325 angstrom
                   Q00  =   0.077902

Total multipoles referred to origin at
           x =   0.000000,  y =    0.000000,  z =    0.000000 angstrom
                   Q00  =  -0.000000

Finished at 22:13:11 on 26 Apr 2020

  DMA results are available in the Python driver through the
	  variable('DMA DISTRIBUTED MULTIPOLES')
  and
	  variable('DMA TOTAL MULTIPOLES')
  commands.

    Psi4 stopped on: Sunday, 26 April 2020 10:13PM
    Psi4 wall time for execution: 0:05:38.02

*** Psi4 exiting successfully. Buy a developer a beer!
