                               Psi4 1.3.2 release

  ==> Input File <==

--------------------------------------------------------------------------
import numpy as np
set {scf_type pk
basis cc-pvdz
d_convergence 10
gdma_switch   0
gdma_limit    0
gdma_origin   [ 0.0,  0.0,  0.0 ]
}
molecule test {
    units Angstrom
    -1 1
    --
    -1 1
    C               -0.058378439199864     0.550738760243738    -3.992834428746131
    C               -0.698378439199864     1.109738760243739    -1.604834428746131
    C                0.297621560800136    -0.494261239756262    -0.381834428746131
    C               -0.124378439199864     0.290738760243739    -2.517834428746131
    C                0.515621560800136    -0.775261239756261    -1.759834428746131
    C                0.786621560800136    -1.313261239756262     0.628165571253869
    C                1.511621560800136    -2.442261239756262     0.273165571253869
    C                1.265621560800136    -1.923261239756262    -2.098834428746131
    C                1.753621560800136    -2.756261239756261    -1.071834428746131
    N               -0.447378439199864     0.661738760243738    -0.322834428746131
    H               -0.648378439199864     1.199738760243739     0.523165571253869
    H               -1.224378439199864     2.017738760243739    -1.860834428746131
    H                0.578621560800136    -1.086261239756261     1.664165571253869
    H                0.966621560800136     0.534738760243738    -4.333834428746131
    H               -0.413378439199864     1.571738760243739    -4.142834428746131
    H                1.892621560800136    -3.094261239756261     1.046165571253869
    H                1.474621560800136    -2.160261239756261    -3.128834428746130
    H                2.323621560800136    -3.638261239756262    -1.327834428746131
    H               -0.647668439199864    -0.118671239756262    -4.636751428746131
    C               -2.406378439199864     1.366738760243739     3.280165571253869
    C               -0.950378439199864     1.513738760243739     2.891165571253869
    O               -0.687378439199864     2.343738760243739     1.999165571253869
    O               -0.087378439199864     0.781738760243738     3.438165571253869
    H               -2.924378439199864     0.903738760243738     2.439165571253870
    H               -2.851378439199864     2.346738760243738     3.443165571253869
    H               -2.552248439199865     0.745728760243738     4.176303571253869

}
e, wfn = energy('scf', return_wfn=True)
gdma(wfn)
dmavals = variable('DMA DISTRIBUTED MULTIPOLES')
charges = np.array(dmavals)
print(charges)
np.save('SSI-113TRP-171ASP-1-dimer.npy', np.array(charges))--------------------------------------------------------------------------

*** tstart() called on ds3
*** at Mon Apr 27 23:52:45 2020

   => Loading Basis Set <=

    Name: CC-PVDZ
    Role: ORBITAL
    Keyword: BASIS
    atoms 1-9, 20-21   entry C          line   138 file /theoryfs2/ds/metcalf/miniconda2/envs/tf2gpu/share/psi4/basis/cc-pvdz.gbs
    atoms 10           entry N          line   168 file /theoryfs2/ds/metcalf/miniconda2/envs/tf2gpu/share/psi4/basis/cc-pvdz.gbs
    atoms 11-19, 24-26 entry H          line    22 file /theoryfs2/ds/metcalf/miniconda2/envs/tf2gpu/share/psi4/basis/cc-pvdz.gbs
    atoms 22-23        entry O          line   198 file /theoryfs2/ds/metcalf/miniconda2/envs/tf2gpu/share/psi4/basis/cc-pvdz.gbs

         ---------------------------------------------------------
                                   SCF
               by Justin Turney, Rob Parrish, Andy Simmonett
                          and Daniel G. A. Smith
                              RHF Reference
                        1 Threads,    500 MiB Core
         ---------------------------------------------------------

  ==> Geometry <==

    Molecular point group: c1
    Full point group: C1

    Geometry (in Angstrom), charge = -1, multiplicity = 1:

       Center              X                  Y                   Z               Mass
    ------------   -----------------  -----------------  -----------------  -----------------
         C           -0.058378439200     0.550738760244    -3.992834428746    12.000000000000
         C           -0.698378439200     1.109738760244    -1.604834428746    12.000000000000
         C            0.297621560800    -0.494261239756    -0.381834428746    12.000000000000
         C           -0.124378439200     0.290738760244    -2.517834428746    12.000000000000
         C            0.515621560800    -0.775261239756    -1.759834428746    12.000000000000
         C            0.786621560800    -1.313261239756     0.628165571254    12.000000000000
         C            1.511621560800    -2.442261239756     0.273165571254    12.000000000000
         C            1.265621560800    -1.923261239756    -2.098834428746    12.000000000000
         C            1.753621560800    -2.756261239756    -1.071834428746    12.000000000000
         N           -0.447378439200     0.661738760244    -0.322834428746    14.003074004430
         H           -0.648378439200     1.199738760244     0.523165571254     1.007825032230
         H           -1.224378439200     2.017738760244    -1.860834428746     1.007825032230
         H            0.578621560800    -1.086261239756     1.664165571254     1.007825032230
         H            0.966621560800     0.534738760244    -4.333834428746     1.007825032230
         H           -0.413378439200     1.571738760244    -4.142834428746     1.007825032230
         H            1.892621560800    -3.094261239756     1.046165571254     1.007825032230
         H            1.474621560800    -2.160261239756    -3.128834428746     1.007825032230
         H            2.323621560800    -3.638261239756    -1.327834428746     1.007825032230
         H           -0.647668439200    -0.118671239756    -4.636751428746     1.007825032230
         C           -2.406378439200     1.366738760244     3.280165571254    12.000000000000
         C           -0.950378439200     1.513738760244     2.891165571254    12.000000000000
         O           -0.687378439200     2.343738760244     1.999165571254    15.994914619570
         O           -0.087378439200     0.781738760244     3.438165571254    15.994914619570
         H           -2.924378439200     0.903738760244     2.439165571254     1.007825032230
         H           -2.851378439200     2.346738760244     3.443165571254     1.007825032230
         H           -2.552248439200     0.745728760244     4.176303571254     1.007825032230

  Running in c1 symmetry.

  Rotational constants: A =      0.03484  B =      0.01353  C =      0.01020 [cm^-1]
  Rotational constants: A =   1044.51927  B =    405.47504  C =    305.64079 [MHz]
  Nuclear repulsion =  821.424867276281134

  Charge       = -1
  Multiplicity = 1
  Electrons    = 102
  Nalpha       = 51
  Nbeta        = 51

  ==> Algorithm <==

  SCF Algorithm Type is PK.
  DIIS enabled.
  MOM disabled.
  Fractional occupation disabled.
  Guess Type is SAD.
  Energy threshold   = 1.00e-06
  Density threshold  = 1.00e-10
  Integral threshold = 0.00e+00

  ==> Primary Basis <==

  Basis Set: CC-PVDZ
    Blend: CC-PVDZ
    Number of shells: 120
    Number of basis function: 256
    Number of Cartesian functions: 270
    Spherical Harmonics?: true
    Max angular momentum: 2

  ==> Pre-Iterations <==

   -------------------------------------------------------
    Irrep   Nso     Nmo     Nalpha   Nbeta   Ndocc  Nsocc
   -------------------------------------------------------
     A        256     256       0       0       0       0
   -------------------------------------------------------
    Total     256     256      51      51      51       0
   -------------------------------------------------------

  ==> Integral Setup <==

  Using integral reordering PK algorithm.
  Sizing the integral batches needed.
  Building batch lookup table.
   Calculation information:
      Number of atoms:                  26
      Number of AO shells:             120
      Number of primitives:            368
      Number of atomic orbitals:       270
      Number of basis functions:       256

      Integral cutoff                 1.00e-12
      Number of threads:                 1

	Batch   1 pq = [       0,    9405] index = [             0,44231715] size =     44231715
	Batch   2 pq = [    9405,   13301] index = [      44231715,88464951] size =     44233236
	Batch   3 pq = [   13301,   16290] index = [      88464951,132690195] size =     44225244
	Batch   4 pq = [   16290,   18810] index = [     132690195,176917455] size =     44227260
	Batch   5 pq = [   18810,   21030] index = [     176917455,221140965] size =     44223510
	Batch   6 pq = [   21030,   23037] index = [     221140965,265363203] size =     44222238
	Batch   7 pq = [   23037,   24883] index = [     265363203,309594286] size =     44231083
	Batch   8 pq = [   24883,   26601] index = [     309594286,353819901] size =     44225615
	Batch   9 pq = [   26601,   28214] index = [     353819901,398029005] size =     44209104
	Batch  10 pq = [   28214,   29740] index = [     398029005,442248670] size =     44219665
	Batch  11 pq = [   29740,   31191] index = [     442248670,486454836] size =     44206166
	Batch  12 pq = [   31191,   32578] index = [     486454836,530679331] size =     44224495
	Batch  13 pq = [   32578,   32896] index = [     530679331,541089856] size =     10410525
  Task number: 49
  Buffer size: 11059200
  Buffer per thread: 2
  We computed 23937804 shell quartets total.
  Whereas there are 26357430 unique shell quartets.

  ==> DiskJK: Disk-Based J/K Matrices <==

    J tasked:                  Yes
    K tasked:                  Yes
    wK tasked:                  No
    Memory [MiB]:              375
    Schwarz Cutoff:          1E-12

    OpenMP threads:              1

  Minimum eigenvalue in the overlap matrix is 2.4358798186E-04.
  Using Symmetric Orthogonalization.

  SCF Guess: Superposition of Atomic Densities via on-the-fly atomic UHF.

  ==> Iterations <==

                        Total Energy        Delta E     RMS |[F,P]|

   @RHF iter SAD:  -626.50389627777236   -6.26504e+02   0.00000e+00
   @RHF iter   1:  -627.44804206448907   -9.44146e-01   3.14718e-03 DIIS
   @RHF iter   2:  -627.73307466356971   -2.85033e-01   1.66932e-03 DIIS
   @RHF iter   3:  -627.80399135186735   -7.09167e-02   3.15774e-04 DIIS
   @RHF iter   4:  -627.80817132753259   -4.17998e-03   1.18897e-04 DIIS
   @RHF iter   5:  -627.80874150363059   -5.70176e-04   2.19146e-05 DIIS
   @RHF iter   6:  -627.80876678341872   -2.52798e-05   1.10473e-05 DIIS
   @RHF iter   7:  -627.80877262287731   -5.83946e-06   2.76256e-06 DIIS
   @RHF iter   8:  -627.80877350731339   -8.84436e-07   1.02763e-06 DIIS
   @RHF iter   9:  -627.80877363347940   -1.26166e-07   4.20689e-07 DIIS
   @RHF iter  10:  -627.80877364888920   -1.54098e-08   1.22251e-07 DIIS
   @RHF iter  11:  -627.80877365072035   -1.83115e-09   5.19215e-08 DIIS
   @RHF iter  12:  -627.80877365104539   -3.25031e-10   2.87923e-08 DIIS
   @RHF iter  13:  -627.80877365117431   -1.28921e-10   1.22841e-08 DIIS
   @RHF iter  14:  -627.80877365121034   -3.60387e-11   4.29690e-09 DIIS
   @RHF iter  15:  -627.80877365121376   -3.41061e-12   1.34773e-09 DIIS
   @RHF iter  16:  -627.80877365121512   -1.36424e-12   5.97691e-10 DIIS
   @RHF iter  17:  -627.80877365121103    4.09273e-12   2.62697e-10 DIIS
   @RHF iter  18:  -627.80877365121285   -1.81899e-12   1.10938e-10 DIIS
   @RHF iter  19:  -627.80877365121341   -5.68434e-13   4.59419e-11 DIIS
  Energy and wave function converged.

  ==> Post-Iterations <==

    Orbital Energies [Eh]
    ---------------------

    Doubly Occupied:

       1A    -20.299842     2A    -20.295177     3A    -15.457426
       4A    -11.150330     5A    -11.148323     6A    -11.141566
       7A    -11.133103     8A    -11.124946     9A    -11.117099
      10A    -11.115265    11A    -11.110702    12A    -11.106155
      13A    -11.104535    14A    -11.072119    15A     -1.188517
      16A     -1.159148    17A     -1.074468    18A     -1.008327
      19A     -0.956996    20A     -0.882139    21A     -0.872409
      22A     -0.822619    23A     -0.820035    24A     -0.720972
      25A     -0.684384    26A     -0.634368    27A     -0.593876
      28A     -0.546302    29A     -0.533070    30A     -0.529491
      31A     -0.484689    32A     -0.481458    33A     -0.470899
      34A     -0.455340    35A     -0.442127    36A     -0.438160
      37A     -0.437992    38A     -0.435013    39A     -0.428221
      40A     -0.418797    41A     -0.385822    42A     -0.372765
      43A     -0.356061    44A     -0.343260    45A     -0.331663
      46A     -0.255187    47A     -0.218991    48A     -0.209026
      49A     -0.200448    50A     -0.177755    51A     -0.160562

    Virtual:

      52A      0.239938    53A      0.276981    54A      0.280212
      55A      0.303355    56A      0.316474    57A      0.333040
      58A      0.334568    59A      0.343485    60A      0.363263
      61A      0.367794    62A      0.374170    63A      0.383680
      64A      0.398246    65A      0.431674    66A      0.451366
      67A      0.471447    68A      0.480703    69A      0.494819
      70A      0.531593    71A      0.540724    72A      0.552072
      73A      0.560858    74A      0.584394    75A      0.597252
      76A      0.625794    77A      0.631995    78A      0.703194
      79A      0.704265    80A      0.724585    81A      0.733108
      82A      0.746023    83A      0.757740    84A      0.783134
      85A      0.799848    86A      0.803141    87A      0.811137
      88A      0.827199    89A      0.838270    90A      0.844716
      91A      0.849059    92A      0.855643    93A      0.857077
      94A      0.862723    95A      0.872811    96A      0.888524
      97A      0.891011    98A      0.908605    99A      0.913988
     100A      0.936741   101A      0.950823   102A      0.964887
     103A      0.967522   104A      0.973691   105A      0.982135
     106A      0.999035   107A      1.004312   108A      1.007896
     109A      1.013341   110A      1.016829   111A      1.025471
     112A      1.040774   113A      1.053434   114A      1.060532
     115A      1.067048   116A      1.085567   117A      1.092791
     118A      1.102968   119A      1.122002   120A      1.168834
     121A      1.177037   122A      1.194475   123A      1.206045
     124A      1.220964   125A      1.239916   126A      1.249853
     127A      1.263197   128A      1.282600   129A      1.285865
     130A      1.304315   131A      1.323767   132A      1.332030
     133A      1.346644   134A      1.349332   135A      1.366793
     136A      1.368355   137A      1.383774   138A      1.399227
     139A      1.419199   140A      1.439053   141A      1.440797
     142A      1.449501   143A      1.476631   144A      1.490024
     145A      1.512060   146A      1.539144   147A      1.556006
     148A      1.571389   149A      1.582509   150A      1.625900
     151A      1.636849   152A      1.662547   153A      1.678959
     154A      1.685343   155A      1.700422   156A      1.712326
     157A      1.741269   158A      1.750523   159A      1.762026
     160A      1.778641   161A      1.792219   162A      1.822357
     163A      1.826045   164A      1.840440   165A      1.868279
     166A      1.879240   167A      1.897995   168A      1.914007
     169A      1.929209   170A      1.934995   171A      1.953124
     172A      1.999169   173A      2.006778   174A      2.015425
     175A      2.026339   176A      2.030093   177A      2.034123
     178A      2.040605   179A      2.053850   180A      2.058948
     181A      2.070411   182A      2.075295   183A      2.083511
     184A      2.103496   185A      2.113858   186A      2.132617
     187A      2.141315   188A      2.162218   189A      2.182275
     190A      2.188333   191A      2.191755   192A      2.206812
     193A      2.218399   194A      2.223683   195A      2.241752
     196A      2.250482   197A      2.256824   198A      2.282071
     199A      2.284728   200A      2.298953   201A      2.332310
     202A      2.342610   203A      2.352607   204A      2.405865
     205A      2.409922   206A      2.417903   207A      2.425309
     208A      2.441022   209A      2.466126   210A      2.486403
     211A      2.508579   212A      2.522026   213A      2.560525
     214A      2.564430   215A      2.590410   216A      2.633193
     217A      2.660327   218A      2.695515   219A      2.714286
     220A      2.721875   221A      2.739868   222A      2.758271
     223A      2.789108   224A      2.820617   225A      2.828303
     226A      2.870835   227A      2.876811   228A      2.901123
     229A      2.913664   230A      2.922522   231A      2.948737
     232A      2.956451   233A      2.977210   234A      2.991501
     235A      3.001701   236A      3.030938   237A      3.093508
     238A      3.138808   239A      3.158604   240A      3.183822
     241A      3.205356   242A      3.226855   243A      3.263459
     244A      3.266763   245A      3.318489   246A      3.372804
     247A      3.408974   248A      3.498874   249A      3.596454
     250A      3.770833   251A      3.806664   252A      3.887853
     253A      4.041333   254A      4.045107   255A      4.071440
     256A      4.160763

    Final Occupation by Irrep:
              A
    DOCC [    51 ]

  @RHF Final Energy:  -627.80877365121341

   => Energetics <=

    Nuclear Repulsion Energy =            821.4248672762811339
    One-Electron Energy =               -2500.6513925062572525
    Two-Electron Energy =                1051.4177515787628181
    Total Energy =                       -627.8087736512134143

Computation Completed

Properties will be evaluated at   0.000000,   0.000000,   0.000000 [a0]

Properties computed using the SCF density matrix

  Nuclear Dipole Moment: [e a0]
     X:    -3.7764      Y:    -0.7158      Z:    -5.7279

  Electronic Dipole Moment: [e a0]
     X:     3.5404      Y:    -0.7452      Z:     2.3995

  Dipole Moment: [e a0]
     X:    -0.2360      Y:    -1.4611      Z:    -3.3284     Total:     3.6426

  Dipole Moment: [D]
     X:    -0.5997      Y:    -3.7136      Z:    -8.4599     Total:     9.2586

*** tstop() called on ds3 at Mon Apr 27 23:59:44 2020
Module time:
	user time   =     219.79 seconds =       3.66 minutes
	system time =      86.59 seconds =       1.44 minutes
	total time  =        419 seconds =       6.98 minutes
Total time:
	user time   =     219.79 seconds =       3.66 minutes
	system time =      86.59 seconds =       1.44 minutes
	total time  =        419 seconds =       6.98 minutes
                                     G D M A

                                 by Anthony Stone

                           version 2.2.06, 22 June 2011

               Distributed Multipoles from Gaussian wavefunctions

Starting at 23:59:44 on 27 Apr 2020

Using SCF density matrix from file ./SSI/SSI-113TRP-171ASP-1-dimer.test.4408.fchk

                         Distributed Multipole Analysis

Standard DMA

Positions and radii in angstrom
Multipole moments in atomic units, ea_0^k for rank k

C          x = -0.058378  y =  0.550739  z = -3.992834 angstrom
           Maximum rank =  0   Radius =  0.650 angstrom
                   Q00  =  -0.199149

C          x = -0.698378  y =  1.109739  z = -1.604834 angstrom
           Maximum rank =  0   Radius =  0.650 angstrom
                   Q00  =   0.146068

C          x =  0.297622  y = -0.494261  z = -0.381834 angstrom
           Maximum rank =  0   Radius =  0.650 angstrom
                   Q00  =   0.332979

C          x = -0.124378  y =  0.290739  z = -2.517834 angstrom
           Maximum rank =  0   Radius =  0.650 angstrom
                   Q00  =  -0.173562

C          x =  0.515622  y = -0.775261  z = -1.759834 angstrom
           Maximum rank =  0   Radius =  0.650 angstrom
                   Q00  =  -0.091131

C          x =  0.786622  y = -1.313261  z =  0.628166 angstrom
           Maximum rank =  0   Radius =  0.650 angstrom
                   Q00  =  -0.077500

C          x =  1.511622  y = -2.442261  z =  0.273166 angstrom
           Maximum rank =  0   Radius =  0.650 angstrom
                   Q00  =  -0.050567

C          x =  1.265622  y = -1.923261  z = -2.098834 angstrom
           Maximum rank =  0   Radius =  0.650 angstrom
                   Q00  =  -0.111692

C          x =  1.753622  y = -2.756261  z = -1.071834 angstrom
           Maximum rank =  0   Radius =  0.650 angstrom
                   Q00  =  -0.096037

N          x = -0.447378  y =  0.661739  z = -0.322834 angstrom
           Maximum rank =  0   Radius =  0.650 angstrom
                   Q00  =  -0.538833

H          x = -0.648378  y =  1.199739  z =  0.523166 angstrom
           Maximum rank =  0   Radius =  0.325 angstrom
                   Q00  =   0.302672

H          x = -1.224378  y =  2.017739  z = -1.860834 angstrom
           Maximum rank =  0   Radius =  0.325 angstrom
                   Q00  =   0.081433

H          x =  0.578622  y = -1.086261  z =  1.664166 angstrom
           Maximum rank =  0   Radius =  0.325 angstrom
                   Q00  =   0.084820

H          x =  0.966622  y =  0.534739  z = -4.333834 angstrom
           Maximum rank =  0   Radius =  0.325 angstrom
                   Q00  =   0.087982

H          x = -0.413378  y =  1.571739  z = -4.142834 angstrom
           Maximum rank =  0   Radius =  0.325 angstrom
                   Q00  =   0.085870

H          x =  1.892622  y = -3.094261  z =  1.046166 angstrom
           Maximum rank =  0   Radius =  0.325 angstrom
                   Q00  =   0.041861

H          x =  1.474622  y = -2.160261  z = -3.128834 angstrom
           Maximum rank =  0   Radius =  0.325 angstrom
                   Q00  =   0.042281

H          x =  2.323622  y = -3.638261  z = -1.327834 angstrom
           Maximum rank =  0   Radius =  0.325 angstrom
                   Q00  =   0.031951

H          x = -0.647668  y = -0.118671  z = -4.636751 angstrom
           Maximum rank =  0   Radius =  0.325 angstrom
                   Q00  =   0.071791

C          x = -2.406378  y =  1.366739  z =  3.280166 angstrom
           Maximum rank =  0   Radius =  0.650 angstrom
                   Q00  =  -0.283019

C          x = -0.950378  y =  1.513739  z =  2.891166 angstrom
           Maximum rank =  0   Radius =  0.650 angstrom
                   Q00  =   0.933337

O          x = -0.687378  y =  2.343739  z =  1.999166 angstrom
           Maximum rank =  0   Radius =  0.650 angstrom
                   Q00  =  -0.923335

O          x = -0.087378  y =  0.781739  z =  3.438166 angstrom
           Maximum rank =  0   Radius =  0.650 angstrom
                   Q00  =  -0.910080

H          x = -2.924378  y =  0.903739  z =  2.439166 angstrom
           Maximum rank =  0   Radius =  0.325 angstrom
                   Q00  =   0.080550

H          x = -2.851378  y =  2.346739  z =  3.443166 angstrom
           Maximum rank =  0   Radius =  0.325 angstrom
                   Q00  =   0.070587

H          x = -2.552248  y =  0.745729  z =  4.176304 angstrom
           Maximum rank =  0   Radius =  0.325 angstrom
                   Q00  =   0.060721

Total multipoles referred to origin at
           x =   0.000000,  y =    0.000000,  z =    0.000000 angstrom
                   Q00  =  -1.000000

Finished at 23:59:44 on 27 Apr 2020

  DMA results are available in the Python driver through the
	  variable('DMA DISTRIBUTED MULTIPOLES')
  and
	  variable('DMA TOTAL MULTIPOLES')
  commands.

    Psi4 stopped on: Monday, 27 April 2020 11:59PM
    Psi4 wall time for execution: 0:06:59.02

*** Psi4 exiting successfully. Buy a developer a beer!
