                               Psi4 1.3.2 release

  ==> Input File <==

--------------------------------------------------------------------------
import numpy as np
set {scf_type pk
basis cc-pvdz
d_convergence 10
gdma_switch   0
gdma_limit    0
gdma_origin   [ 0.0,  0.0,  0.0 ]
}
molecule test {
    units Angstrom
    0 1
    --
    0 1
    C               -0.796088042044768    -2.309710697993598     0.812951342282214
    C               -1.116088042044769     0.161289302006402     1.098951342282214
    C               -1.414088042044768    -1.132710697993598     1.513951342282214
    C               -1.667088042044768     1.259289302006402     1.741951342282214
    C               -2.282088042044768    -1.317710697993598     2.592951342282214
    C               -2.529088042044768     1.071289302006402     2.815951342282214
    C               -2.842088042044768    -0.219710697993598     3.245951342282214
    O               -3.056088042044768     2.161289302006402     3.440951342282214
    H               -0.421088042044768     0.309289302006402     0.289951342282214
    H               -1.419088042044768     2.255289302006402     1.412951342282214
    H               -0.382088042044768    -1.998710697993598    -0.147048657717786
    H               -1.584088042044768    -3.033710697993599     0.613951342282214
    H               -2.525088042044768    -2.319710697993599     2.921951342282214
    H               -3.510088042044768    -0.373710697993598     4.082951342282214
    H               -3.595088042044768     1.933289302006401     4.207951342282215
    H               -0.013458042044768    -2.804340697993598     1.406944342282214
    C                4.417911957955233    -0.582710697993598    -0.927048657717786
    C                0.911911957955232    -0.401710697993598    -2.276048657717786
    C                1.991911957955232     0.192289302006402    -1.569048657717786
    C                3.056911957955232    -0.771710697993598    -1.528048657717786
    C                2.599911957955232    -1.864710697993599    -2.205048657717786
    C               -0.421088042044768     1.541289302006402    -1.992048657717786
    C               -0.290088042044768     0.256289302006402    -2.490048657717786
    C                0.625911957955232     2.156289302006401    -1.287048657717786
    C                1.834911957955232     1.493289302006402    -1.072048657717786
    N                1.317911957955232    -1.653710697993598    -2.647048657717786
    H               -1.348088042044768     2.079289302006401    -2.141048657717786
    H               -1.089088042044768    -0.220710697993598    -3.033048657717786
    H                0.488911957955232     3.158289302006402    -0.904048657717786
    H                2.645911957955231     1.971289302006402    -0.551048657717786
    H                0.737911957955232    -2.345710697993598    -3.135048657717786
    H                3.173911957955232    -2.760710697993598    -2.397048657717786
    H                4.668911957955232    -1.435710697993599    -0.295048657717786
    H                4.404911957955232     0.312289302006402    -0.303048657717786
    H                5.172431957955233    -0.461270697993598    -1.718218257717786

}
e, wfn = energy('scf', return_wfn=True)
gdma(wfn)
dmavals = variable('DMA DISTRIBUTED MULTIPOLES')
charges = np.array(dmavals)
print(charges)
np.save('SSI-097TYR-101TRP-1-dimer.npy', np.array(charges))--------------------------------------------------------------------------

*** tstart() called on ds3
*** at Tue Apr 28 20:12:25 2020

   => Loading Basis Set <=

    Name: CC-PVDZ
    Role: ORBITAL
    Keyword: BASIS
    atoms 1-7, 17-25  entry C          line   138 file /theoryfs2/ds/metcalf/miniconda2/envs/tf2gpu/share/psi4/basis/cc-pvdz.gbs
    atoms 8           entry O          line   198 file /theoryfs2/ds/metcalf/miniconda2/envs/tf2gpu/share/psi4/basis/cc-pvdz.gbs
    atoms 9-16, 27-35 entry H          line    22 file /theoryfs2/ds/metcalf/miniconda2/envs/tf2gpu/share/psi4/basis/cc-pvdz.gbs
    atoms 26          entry N          line   168 file /theoryfs2/ds/metcalf/miniconda2/envs/tf2gpu/share/psi4/basis/cc-pvdz.gbs

         ---------------------------------------------------------
                                   SCF
               by Justin Turney, Rob Parrish, Andy Simmonett
                          and Daniel G. A. Smith
                              RHF Reference
                        1 Threads,    500 MiB Core
         ---------------------------------------------------------

  ==> Geometry <==

    Molecular point group: c1
    Full point group: C1

    Geometry (in Angstrom), charge = 0, multiplicity = 1:

       Center              X                  Y                   Z               Mass
    ------------   -----------------  -----------------  -----------------  -----------------
         C           -0.796088042045    -2.309710697994     0.812951342282    12.000000000000
         C           -1.116088042045     0.161289302006     1.098951342282    12.000000000000
         C           -1.414088042045    -1.132710697994     1.513951342282    12.000000000000
         C           -1.667088042045     1.259289302006     1.741951342282    12.000000000000
         C           -2.282088042045    -1.317710697994     2.592951342282    12.000000000000
         C           -2.529088042045     1.071289302006     2.815951342282    12.000000000000
         C           -2.842088042045    -0.219710697994     3.245951342282    12.000000000000
         O           -3.056088042045     2.161289302006     3.440951342282    15.994914619570
         H           -0.421088042045     0.309289302006     0.289951342282     1.007825032230
         H           -1.419088042045     2.255289302006     1.412951342282     1.007825032230
         H           -0.382088042045    -1.998710697994    -0.147048657718     1.007825032230
         H           -1.584088042045    -3.033710697994     0.613951342282     1.007825032230
         H           -2.525088042045    -2.319710697994     2.921951342282     1.007825032230
         H           -3.510088042045    -0.373710697994     4.082951342282     1.007825032230
         H           -3.595088042045     1.933289302006     4.207951342282     1.007825032230
         H           -0.013458042045    -2.804340697994     1.406944342282     1.007825032230
         C            4.417911957955    -0.582710697994    -0.927048657718    12.000000000000
         C            0.911911957955    -0.401710697994    -2.276048657718    12.000000000000
         C            1.991911957955     0.192289302006    -1.569048657718    12.000000000000
         C            3.056911957955    -0.771710697994    -1.528048657718    12.000000000000
         C            2.599911957955    -1.864710697994    -2.205048657718    12.000000000000
         C           -0.421088042045     1.541289302006    -1.992048657718    12.000000000000
         C           -0.290088042045     0.256289302006    -2.490048657718    12.000000000000
         C            0.625911957955     2.156289302006    -1.287048657718    12.000000000000
         C            1.834911957955     1.493289302006    -1.072048657718    12.000000000000
         N            1.317911957955    -1.653710697994    -2.647048657718    14.003074004430
         H           -1.348088042045     2.079289302006    -2.141048657718     1.007825032230
         H           -1.089088042045    -0.220710697994    -3.033048657718     1.007825032230
         H            0.488911957955     3.158289302006    -0.904048657718     1.007825032230
         H            2.645911957955     1.971289302006    -0.551048657718     1.007825032230
         H            0.737911957955    -2.345710697994    -3.135048657718     1.007825032230
         H            3.173911957955    -2.760710697994    -2.397048657718     1.007825032230
         H            4.668911957955    -1.435710697994    -0.295048657718     1.007825032230
         H            4.404911957955     0.312289302006    -0.303048657718     1.007825032230
         H            5.172431957955    -0.461270697994    -1.718218257718     1.007825032230

  Running in c1 symmetry.

  Rotational constants: A =      0.02420  B =      0.00739  C =      0.00676 [cm^-1]
  Rotational constants: A =    725.45071  B =    221.65272  C =    202.68382 [MHz]
  Nuclear repulsion = 1212.333220897603724

  Charge       = 0
  Multiplicity = 1
  Electrons    = 128
  Nalpha       = 64
  Nbeta        = 64

  ==> Algorithm <==

  SCF Algorithm Type is PK.
  DIIS enabled.
  MOM disabled.
  Fractional occupation disabled.
  Guess Type is SAD.
  Energy threshold   = 1.00e-06
  Density threshold  = 1.00e-10
  Integral threshold = 0.00e+00

  ==> Primary Basis <==

  Basis Set: CC-PVDZ
    Blend: CC-PVDZ
    Number of shells: 159
    Number of basis function: 337
    Number of Cartesian functions: 355
    Spherical Harmonics?: true
    Max angular momentum: 2

  ==> Pre-Iterations <==

   -------------------------------------------------------
    Irrep   Nso     Nmo     Nalpha   Nbeta   Ndocc  Nsocc
   -------------------------------------------------------
     A        337     337       0       0       0       0
   -------------------------------------------------------
    Total     337     337      64      64      64       0
   -------------------------------------------------------

  ==> Integral Setup <==

  Using integral reordering PK algorithm.
  Sizing the integral batches needed.
  Building batch lookup table.
   Calculation information:
      Number of atoms:                  35
      Number of AO shells:             159
      Number of primitives:            481
      Number of atomic orbitals:       355
      Number of basis functions:       337

      Integral cutoff                 1.00e-12
      Number of threads:                 1

	Batch   1 pq = [       0,    9405] index = [             0,44231715] size =     44231715
	Batch   2 pq = [    9405,   13301] index = [      44231715,88464951] size =     44233236
	Batch   3 pq = [   13301,   16290] index = [      88464951,132690195] size =     44225244
	Batch   4 pq = [   16290,   18810] index = [     132690195,176917455] size =     44227260
	Batch   5 pq = [   18810,   21030] index = [     176917455,221140965] size =     44223510
	Batch   6 pq = [   21030,   23037] index = [     221140965,265363203] size =     44222238
	Batch   7 pq = [   23037,   24883] index = [     265363203,309594286] size =     44231083
	Batch   8 pq = [   24883,   26601] index = [     309594286,353819901] size =     44225615
	Batch   9 pq = [   26601,   28214] index = [     353819901,398029005] size =     44209104
	Batch  10 pq = [   28214,   29740] index = [     398029005,442248670] size =     44219665
	Batch  11 pq = [   29740,   31191] index = [     442248670,486454836] size =     44206166
	Batch  12 pq = [   31191,   32578] index = [     486454836,530679331] size =     44224495
	Batch  13 pq = [   32578,   33908] index = [     530679331,574893186] size =     44213855
	Batch  14 pq = [   33908,   35188] index = [     574893186,619115266] size =     44222080
	Batch  15 pq = [   35188,   36423] index = [     619115266,663335676] size =     44220410
	Batch  16 pq = [   36423,   37617] index = [     663335676,707538153] size =     44202477
	Batch  17 pq = [   37617,   38775] index = [     707538153,751769700] size =     44231547
	Batch  18 pq = [   38775,   39899] index = [     751769700,795985050] size =     44215350
	Batch  19 pq = [   39899,   40992] index = [     795985050,840192528] size =     44207478
	Batch  20 pq = [   40992,   42057] index = [     840192528,884416653] size =     44224125
	Batch  21 pq = [   42057,   43095] index = [     884416653,928611060] size =     44194407
	Batch  22 pq = [   43095,   44109] index = [     928611060,972823995] size =     44212935
	Batch  23 pq = [   44109,   45100] index = [     972823995,1017027550] size =     44203555
	Batch  24 pq = [   45100,   46070] index = [    1017027550,1061245485] size =     44217935
	Batch  25 pq = [   46070,   47020] index = [    1061245485,1105463710] size =     44218225
	Batch  26 pq = [   47020,   47951] index = [    1105463710,1149673176] size =     44209466
	Batch  27 pq = [   47951,   48864] index = [    1149673176,1193869680] size =     44196504
	Batch  28 pq = [   48864,   49761] index = [    1193869680,1238103441] size =     44233761
	Batch  29 pq = [   49761,   50642] index = [    1238103441,1282331403] size =     44227962
	Batch  30 pq = [   50642,   51508] index = [    1282331403,1326562786] size =     44231383
	Batch  31 pq = [   51508,   52359] index = [    1326562786,1370758620] size =     44195834
	Batch  32 pq = [   52359,   53197] index = [    1370758620,1414987003] size =     44228383
	Batch  33 pq = [   53197,   54022] index = [    1414987003,1459215253] size =     44228250
	Batch  34 pq = [   54022,   54834] index = [    1459215253,1503411195] size =     44195942
	Batch  35 pq = [   54834,   55634] index = [    1503411195,1547598795] size =     44187600
	Batch  36 pq = [   55634,   56423] index = [    1547598795,1591805676] size =     44206881
	Batch  37 pq = [   56423,   56953] index = [    1591805676,1621850581] size =     30044905
  Task number: 147
  Buffer size: 11059200
  Buffer per thread: 2
  We computed 95317913 shell quartets total.
  Whereas there are 80905560 unique shell quartets.
    17.81 percent of shell quartets recomputed by reordering.

  ==> DiskJK: Disk-Based J/K Matrices <==

    J tasked:                  Yes
    K tasked:                  Yes
    wK tasked:                  No
    Memory [MiB]:              375
    Schwarz Cutoff:          1E-12

    OpenMP threads:              1

  Minimum eigenvalue in the overlap matrix is 2.3398715230E-04.
  Using Symmetric Orthogonalization.

  SCF Guess: Superposition of Atomic Densities via on-the-fly atomic UHF.

  ==> Iterations <==

                        Total Energy        Delta E     RMS |[F,P]|

   @RHF iter SAD:  -744.41874620545491   -7.44419e+02   0.00000e+00
   @RHF iter   1:  -744.78032027458596   -3.61574e-01   2.21024e-03 DIIS
   @RHF iter   2:  -745.09523190168568   -3.14912e-01   9.77239e-04 DIIS
   @RHF iter   3:  -745.14990782714176   -5.46759e-02   2.66702e-04 DIIS
   @RHF iter   4:  -745.15524628116373   -5.33845e-03   1.17510e-04 DIIS
   @RHF iter   5:  -745.15615078537439   -9.04504e-04   1.65553e-05 DIIS
   @RHF iter   6:  -745.15618882459455   -3.80392e-05   7.97548e-06 DIIS
   @RHF iter   7:  -745.15619659475033   -7.77016e-06   3.14937e-06 DIIS
   @RHF iter   8:  -745.15619865686199   -2.06211e-06   1.37006e-06 DIIS
   @RHF iter   9:  -745.15619909276961   -4.35908e-07   6.04607e-07 DIIS
   @RHF iter  10:  -745.15619919716414   -1.04395e-07   2.85358e-07 DIIS
   @RHF iter  11:  -745.15619922405108   -2.68869e-08   1.06412e-07 DIIS
   @RHF iter  12:  -745.15619922737244   -3.32136e-09   4.02962e-08 DIIS
   @RHF iter  13:  -745.15619922774317   -3.70733e-10   1.41027e-08 DIIS
   @RHF iter  14:  -745.15619922777501   -3.18323e-11   5.46872e-09 DIIS
   @RHF iter  15:  -745.15619922777773   -2.72848e-12   2.20914e-09 DIIS
   @RHF iter  16:  -745.15619922776796    9.77707e-12   1.10057e-09 DIIS
   @RHF iter  17:  -745.15619922777978   -1.18234e-11   5.62536e-10 DIIS
   @RHF iter  18:  -745.15619922778353   -3.75167e-12   2.16953e-10 DIIS
   @RHF iter  19:  -745.15619922778831   -4.77485e-12   8.99162e-11 DIIS
  Energy and wave function converged.

  ==> Post-Iterations <==

    Orbital Energies [Eh]
    ---------------------

    Doubly Occupied:

       1A    -20.574236     2A    -15.607229     3A    -11.289356
       4A    -11.267041     5A    -11.266470     6A    -11.234786
       7A    -11.232844     8A    -11.231423     9A    -11.229314
      10A    -11.229150    11A    -11.225556    12A    -11.225006
      13A    -11.224062    14A    -11.221096    15A    -11.219631
      16A    -11.218093    17A    -11.216050    18A    -11.215280
      19A     -1.390004    20A     -1.299886    21A     -1.139170
      22A     -1.132001    23A     -1.076464    24A     -1.026310
      25A     -1.006451    26A     -1.000601    27A     -0.990294
      28A     -0.934299    29A     -0.914938    30A     -0.843248
      31A     -0.832606    32A     -0.805992    33A     -0.791540
      34A     -0.756509    35A     -0.723035    36A     -0.721684
      37A     -0.665199    38A     -0.656421    39A     -0.645644
      40A     -0.629724    41A     -0.606890    42A     -0.601064
      43A     -0.594600    44A     -0.592486    45A     -0.577143
      46A     -0.576404    47A     -0.570714    48A     -0.559841
      49A     -0.557122    50A     -0.555554    51A     -0.540525
      52A     -0.528088    53A     -0.515220    54A     -0.497850
      55A     -0.488175    56A     -0.475979    57A     -0.474933
      58A     -0.457318    59A     -0.454734    60A     -0.377700
      61A     -0.327120    62A     -0.299875    63A     -0.290043
      64A     -0.276505

    Virtual:

      65A      0.120298    66A      0.141930    67A      0.162419
      68A      0.169842    69A      0.173155    70A      0.185734
      71A      0.187160    72A      0.197407    73A      0.205264
      74A      0.214822    75A      0.221004    76A      0.230345
      77A      0.236114    78A      0.249701    79A      0.267385
      80A      0.271967    81A      0.277806    82A      0.286582
      83A      0.293210    84A      0.293757    85A      0.320466
      86A      0.339594    87A      0.370425    88A      0.379933
      89A      0.383514    90A      0.387321    91A      0.401881
      92A      0.422353    93A      0.432867    94A      0.441463
      95A      0.463282    96A      0.464249    97A      0.476374
      98A      0.492660    99A      0.506568   100A      0.517537
     101A      0.522991   102A      0.528028   103A      0.589817
     104A      0.605665   105A      0.625533   106A      0.635028
     107A      0.645433   108A      0.649098   109A      0.651873
     110A      0.661715   111A      0.671380   112A      0.686741
     113A      0.694211   114A      0.696877   115A      0.704282
     116A      0.713590   117A      0.722225   118A      0.726758
     119A      0.732472   120A      0.736781   121A      0.738083
     122A      0.745075   123A      0.747214   124A      0.752991
     125A      0.760019   126A      0.770284   127A      0.775030
     128A      0.781948   129A      0.788176   130A      0.792640
     131A      0.802189   132A      0.812010   133A      0.834114
     134A      0.840600   135A      0.850361   136A      0.858311
     137A      0.861647   138A      0.868965   139A      0.873839
     140A      0.879514   141A      0.881748   142A      0.890687
     143A      0.894596   144A      0.901857   145A      0.903259
     146A      0.907719   147A      0.910898   148A      0.924891
     149A      0.939191   150A      0.941487   151A      0.948220
     152A      0.949255   153A      0.958953   154A      0.968454
     155A      0.980505   156A      0.985416   157A      0.999493
     158A      1.008611   159A      1.016114   160A      1.038386
     161A      1.057001   162A      1.066512   163A      1.083196
     164A      1.106394   165A      1.118966   166A      1.131490
     167A      1.139174   168A      1.140987   169A      1.155624
     170A      1.161219   171A      1.170524   172A      1.185322
     173A      1.196155   174A      1.208760   175A      1.221434
     176A      1.222975   177A      1.231509   178A      1.237532
     179A      1.248311   180A      1.258012   181A      1.267064
     182A      1.274427   183A      1.283597   184A      1.289948
     185A      1.293404   186A      1.298853   187A      1.307491
     188A      1.317905   189A      1.327431   190A      1.333494
     191A      1.354492   192A      1.354834   193A      1.367631
     194A      1.376887   195A      1.384292   196A      1.418855
     197A      1.428140   198A      1.453580   199A      1.480684
     200A      1.513777   201A      1.516556   202A      1.528543
     203A      1.546839   204A      1.547720   205A      1.563721
     206A      1.582424   207A      1.600701   208A      1.622987
     209A      1.629837   210A      1.634281   211A      1.645723
     212A      1.662447   213A      1.686225   214A      1.694639
     215A      1.705791   216A      1.716461   217A      1.734016
     218A      1.744139   219A      1.755636   220A      1.760245
     221A      1.776266   222A      1.785194   223A      1.795640
     224A      1.815320   225A      1.819343   226A      1.826157
     227A      1.829153   228A      1.867361   229A      1.874714
     230A      1.883828   231A      1.886843   232A      1.895275
     233A      1.897314   234A      1.905963   235A      1.914423
     236A      1.915825   237A      1.928977   238A      1.933433
     239A      1.936500   240A      1.948675   241A      1.952120
     242A      1.958089   243A      1.967665   244A      1.982718
     245A      1.984999   246A      1.993311   247A      2.001211
     248A      2.003364   249A      2.016762   250A      2.021662
     251A      2.035731   252A      2.047541   253A      2.063120
     254A      2.070835   255A      2.074482   256A      2.076927
     257A      2.083883   258A      2.085547   259A      2.098049
     260A      2.105567   261A      2.113526   262A      2.129916
     263A      2.141838   264A      2.154032   265A      2.159327
     266A      2.176088   267A      2.187647   268A      2.195415
     269A      2.214212   270A      2.217095   271A      2.230087
     272A      2.245057   273A      2.260238   274A      2.274672
     275A      2.280880   276A      2.297782   277A      2.307029
     278A      2.319737   279A      2.323220   280A      2.347366
     281A      2.362053   282A      2.380386   283A      2.400756
     284A      2.401184   285A      2.406236   286A      2.432514
     287A      2.448564   288A      2.462492   289A      2.463930
     290A      2.515388   291A      2.520688   292A      2.544651
     293A      2.547960   294A      2.559857   295A      2.586883
     296A      2.598182   297A      2.627415   298A      2.631724
     299A      2.647854   300A      2.679419   301A      2.685617
     302A      2.733640   303A      2.763472   304A      2.769660
     305A      2.774318   306A      2.785521   307A      2.794115
     308A      2.805282   309A      2.810976   310A      2.828781
     311A      2.841085   312A      2.858950   313A      2.868491
     314A      2.897484   315A      2.916697   316A      2.935565
     317A      2.975430   318A      2.983488   319A      3.019971
     320A      3.027552   321A      3.060276   322A      3.073821
     323A      3.117400   324A      3.122079   325A      3.148370
     326A      3.208043   327A      3.252239   328A      3.298319
     329A      3.308730   330A      3.359107   331A      3.371473
     332A      3.579919   333A      3.688499   334A      3.736045
     335A      3.950316   336A      3.984173   337A      4.203983

    Final Occupation by Irrep:
              A
    DOCC [    64 ]

  @RHF Final Energy:  -745.15619922778831

   => Energetics <=

    Nuclear Repulsion Energy =           1212.3332208976037236
    One-Electron Energy =               -3419.5697901525718407
    Two-Electron Energy =                1462.0803700271799244
    Total Energy =                       -745.1561992277884201

Computation Completed

Properties will be evaluated at   0.000000,   0.000000,   0.000000 [a0]

Properties computed using the SCF density matrix

  Nuclear Dipole Moment: [e a0]
     X:     5.0491      Y:    -5.3615      Z:     0.3167

  Electronic Dipole Moment: [e a0]
     X:    -5.0370      Y:     4.2175      Z:    -0.5641

  Dipole Moment: [e a0]
     X:     0.0121      Y:    -1.1440      Z:    -0.2474     Total:     1.1705

  Dipole Moment: [D]
     X:     0.0307      Y:    -2.9077      Z:    -0.6289     Total:     2.9751

*** tstop() called on ds3 at Tue Apr 28 20:39:55 2020
Module time:
	user time   =     885.66 seconds =      14.76 minutes
	system time =     273.05 seconds =       4.55 minutes
	total time  =       1650 seconds =      27.50 minutes
Total time:
	user time   =     885.66 seconds =      14.76 minutes
	system time =     273.05 seconds =       4.55 minutes
	total time  =       1650 seconds =      27.50 minutes
                                     G D M A

                                 by Anthony Stone

                           version 2.2.06, 22 June 2011

               Distributed Multipoles from Gaussian wavefunctions

Starting at 20:39:55 on 28 Apr 2020

Using SCF density matrix from file ./SSI/SSI-097TYR-101TRP-1-dimer.test.28331.fchk

                         Distributed Multipole Analysis

Standard DMA

Positions and radii in angstrom
Multipole moments in atomic units, ea_0^k for rank k

C          x = -0.796088  y = -2.309711  z =  0.812951 angstrom
           Maximum rank =  0   Radius =  0.650 angstrom
                   Q00  =  -0.199702

C          x = -1.116088  y =  0.161289  z =  1.098951 angstrom
           Maximum rank =  0   Radius =  0.650 angstrom
                   Q00  =   0.062089

C          x = -1.414088  y = -1.132711  z =  1.513951 angstrom
           Maximum rank =  0   Radius =  0.650 angstrom
                   Q00  =  -0.138007

C          x = -1.667088  y =  1.259289  z =  1.741951 angstrom
           Maximum rank =  0   Radius =  0.650 angstrom
                   Q00  =  -0.108662

C          x = -2.282088  y = -1.317711  z =  2.592951 angstrom
           Maximum rank =  0   Radius =  0.650 angstrom
                   Q00  =  -0.070566

C          x = -2.529088  y =  1.071289  z =  2.815951 angstrom
           Maximum rank =  0   Radius =  0.650 angstrom
                   Q00  =   0.355166

C          x = -2.842088  y = -0.219711  z =  3.245951 angstrom
           Maximum rank =  0   Radius =  0.650 angstrom
                   Q00  =  -0.202764

O          x = -3.056088  y =  2.161289  z =  3.440951 angstrom
           Maximum rank =  0   Radius =  0.650 angstrom
                   Q00  =  -0.671549

H          x = -0.421088  y =  0.309289  z =  0.289951 angstrom
           Maximum rank =  0   Radius =  0.325 angstrom
                   Q00  =   0.070474

H          x = -1.419088  y =  2.255289  z =  1.412951 angstrom
           Maximum rank =  0   Radius =  0.325 angstrom
                   Q00  =   0.069262

H          x = -0.382088  y = -1.998711  z = -0.147049 angstrom
           Maximum rank =  0   Radius =  0.325 angstrom
                   Q00  =   0.099090

H          x = -1.584088  y = -3.033711  z =  0.613951 angstrom
           Maximum rank =  0   Radius =  0.325 angstrom
                   Q00  =   0.086691

H          x = -2.525088  y = -2.319711  z =  2.921951 angstrom
           Maximum rank =  0   Radius =  0.325 angstrom
                   Q00  =   0.063027

H          x = -3.510088  y = -0.373711  z =  4.082951 angstrom
           Maximum rank =  0   Radius =  0.325 angstrom
                   Q00  =   0.068903

H          x = -3.595088  y =  1.933289  z =  4.207951 angstrom
           Maximum rank =  0   Radius =  0.325 angstrom
                   Q00  =   0.404412

H          x = -0.013458  y = -2.804341  z =  1.406944 angstrom
           Maximum rank =  0   Radius =  0.325 angstrom
                   Q00  =   0.096486

C          x =  4.417912  y = -0.582711  z = -0.927049 angstrom
           Maximum rank =  0   Radius =  0.650 angstrom
                   Q00  =  -0.218012

C          x =  0.911912  y = -0.401711  z = -2.276049 angstrom
           Maximum rank =  0   Radius =  0.650 angstrom
                   Q00  =   0.281726

C          x =  1.991912  y =  0.192289  z = -1.569049 angstrom
           Maximum rank =  0   Radius =  0.650 angstrom
                   Q00  =  -0.045800

C          x =  3.056912  y = -0.771711  z = -1.528049 angstrom
           Maximum rank =  0   Radius =  0.650 angstrom
                   Q00  =  -0.123642

C          x =  2.599912  y = -1.864711  z = -2.205049 angstrom
           Maximum rank =  0   Radius =  0.650 angstrom
                   Q00  =   0.073134

C          x = -0.421088  y =  1.541289  z = -1.992049 angstrom
           Maximum rank =  0   Radius =  0.650 angstrom
                   Q00  =  -0.068231

C          x = -0.290088  y =  0.256289  z = -2.490049 angstrom
           Maximum rank =  0   Radius =  0.650 angstrom
                   Q00  =  -0.113962

C          x =  0.625912  y =  2.156289  z = -1.287049 angstrom
           Maximum rank =  0   Radius =  0.650 angstrom
                   Q00  =  -0.095306

C          x =  1.834912  y =  1.493289  z = -1.072049 angstrom
           Maximum rank =  0   Radius =  0.650 angstrom
                   Q00  =  -0.099306

N          x =  1.317912  y = -1.653711  z = -2.647049 angstrom
           Maximum rank =  0   Radius =  0.650 angstrom
                   Q00  =  -0.495169

H          x = -1.348088  y =  2.079289  z = -2.141049 angstrom
           Maximum rank =  0   Radius =  0.325 angstrom
                   Q00  =   0.069740

H          x = -1.089088  y = -0.220711  z = -3.033049 angstrom
           Maximum rank =  0   Radius =  0.325 angstrom
                   Q00  =   0.073030

H          x =  0.488912  y =  3.158289  z = -0.904049 angstrom
           Maximum rank =  0   Radius =  0.325 angstrom
                   Q00  =   0.063920

H          x =  2.645912  y =  1.971289  z = -0.551049 angstrom
           Maximum rank =  0   Radius =  0.325 angstrom
                   Q00  =   0.073777

H          x =  0.737912  y = -2.345711  z = -3.135049 angstrom
           Maximum rank =  0   Radius =  0.325 angstrom
                   Q00  =   0.223552

H          x =  3.173912  y = -2.760711  z = -2.397049 angstrom
           Maximum rank =  0   Radius =  0.325 angstrom
                   Q00  =   0.098215

H          x =  4.668912  y = -1.435711  z = -0.295049 angstrom
           Maximum rank =  0   Radius =  0.325 angstrom
                   Q00  =   0.106574

H          x =  4.404912  y =  0.312289  z = -0.303049 angstrom
           Maximum rank =  0   Radius =  0.325 angstrom
                   Q00  =   0.109443

H          x =  5.172432  y = -0.461271  z = -1.718218 angstrom
           Maximum rank =  0   Radius =  0.325 angstrom
                   Q00  =   0.101969

Total multipoles referred to origin at
           x =   0.000000,  y =    0.000000,  z =    0.000000 angstrom
                   Q00  =  -0.000000

Finished at 20:39:55 on 28 Apr 2020

  DMA results are available in the Python driver through the
	  variable('DMA DISTRIBUTED MULTIPOLES')
  and
	  variable('DMA TOTAL MULTIPOLES')
  commands.

    Psi4 stopped on: Tuesday, 28 April 2020 08:39PM
    Psi4 wall time for execution: 0:27:30.15

*** Psi4 exiting successfully. Buy a developer a beer!
