                               Psi4 1.3.2 release

  ==> Input File <==

--------------------------------------------------------------------------
import numpy as np
set {scf_type pk
basis cc-pvdz
d_convergence 10
gdma_switch   0
gdma_limit    0
gdma_origin   [ 0.0,  0.0,  0.0 ]
}
molecule test {
    units Angstrom
    0 1
    --
    0 1
    C                2.808931067178298     1.692352284029984     0.923845763996959
    C                0.006931067178298    -1.342647715970016    -0.374154236003041
    C                0.467931067178298    -0.382647715970016    -1.283154236003041
    C                0.461931067178298    -1.310647715970016     0.947845763996959
    C                1.393931067178298     0.586352284029984    -0.862154236003041
    C                1.366931067178298    -0.333647715970016     1.358845763996959
    C                1.856931067178298     0.614352284029984     0.457845763996959
    O               -0.897068932821702    -2.299647715970016    -0.768154236003041
    H                0.123931067178298    -0.391647715970016    -2.307154236003041
    H               -1.154068932821702    -2.190647715970016    -1.703154236003041
    H                0.082931067178298    -2.025647715970017     1.658845763996959
    H                1.735931067178298     1.327352284029984    -1.574154236003041
    H                1.674931067178298    -0.308647715970016     2.395845763996959
    H                3.037931067178298     1.561352284029984     1.982845763996959
    H                2.268931067178298     2.635352284029984     0.838845763996959
    H                3.745891067178298     1.778572284029984     0.354055763996959
    C               -3.242068932821702     0.572352284029984    -0.068154236003041
    C               -3.248068932821702     2.097352284029983    -0.160154236003041
    H               -2.538068932821702     0.220352284029984     0.682845763996959
    H               -4.240068932821702     0.236352284029984     0.211845763996959
    H               -2.984068932821702     0.142352284029984    -1.036154236003041
    H               -3.497068932821702     2.508352284029984     0.818845763996959
    H               -4.044068932821702     2.384352284029984    -0.840154236003041
    H               -2.281938932821702     2.505572284029984    -0.491744236003041

}
e, wfn = energy('scf', return_wfn=True)
gdma(wfn)
dmavals = variable('DMA DISTRIBUTED MULTIPOLES')
charges = np.array(dmavals)
print(charges)
np.save('SSI-033TYR-094ILE-2-dimer.npy', np.array(charges))--------------------------------------------------------------------------

*** tstart() called on ds3
*** at Mon Apr 27 19:00:58 2020

   => Loading Basis Set <=

    Name: CC-PVDZ
    Role: ORBITAL
    Keyword: BASIS
    atoms 1-7, 17-18  entry C          line   138 file /theoryfs2/ds/metcalf/miniconda2/envs/tf2gpu/share/psi4/basis/cc-pvdz.gbs
    atoms 8           entry O          line   198 file /theoryfs2/ds/metcalf/miniconda2/envs/tf2gpu/share/psi4/basis/cc-pvdz.gbs
    atoms 9-16, 19-24 entry H          line    22 file /theoryfs2/ds/metcalf/miniconda2/envs/tf2gpu/share/psi4/basis/cc-pvdz.gbs

         ---------------------------------------------------------
                                   SCF
               by Justin Turney, Rob Parrish, Andy Simmonett
                          and Daniel G. A. Smith
                              RHF Reference
                        1 Threads,    500 MiB Core
         ---------------------------------------------------------

  ==> Geometry <==

    Molecular point group: c1
    Full point group: C1

    Geometry (in Angstrom), charge = 0, multiplicity = 1:

       Center              X                  Y                   Z               Mass
    ------------   -----------------  -----------------  -----------------  -----------------
         C            2.808931067178     1.692352284030     0.923845763997    12.000000000000
         C            0.006931067178    -1.342647715970    -0.374154236003    12.000000000000
         C            0.467931067178    -0.382647715970    -1.283154236003    12.000000000000
         C            0.461931067178    -1.310647715970     0.947845763997    12.000000000000
         C            1.393931067178     0.586352284030    -0.862154236003    12.000000000000
         C            1.366931067178    -0.333647715970     1.358845763997    12.000000000000
         C            1.856931067178     0.614352284030     0.457845763997    12.000000000000
         O           -0.897068932822    -2.299647715970    -0.768154236003    15.994914619570
         H            0.123931067178    -0.391647715970    -2.307154236003     1.007825032230
         H           -1.154068932822    -2.190647715970    -1.703154236003     1.007825032230
         H            0.082931067178    -2.025647715970     1.658845763997     1.007825032230
         H            1.735931067178     1.327352284030    -1.574154236003     1.007825032230
         H            1.674931067178    -0.308647715970     2.395845763997     1.007825032230
         H            3.037931067178     1.561352284030     1.982845763997     1.007825032230
         H            2.268931067178     2.635352284030     0.838845763997     1.007825032230
         H            3.745891067178     1.778572284030     0.354055763997     1.007825032230
         C           -3.242068932822     0.572352284030    -0.068154236003    12.000000000000
         C           -3.248068932822     2.097352284030    -0.160154236003    12.000000000000
         H           -2.538068932822     0.220352284030     0.682845763997     1.007825032230
         H           -4.240068932822     0.236352284030     0.211845763997     1.007825032230
         H           -2.984068932822     0.142352284030    -1.036154236003     1.007825032230
         H           -3.497068932822     2.508352284030     0.818845763997     1.007825032230
         H           -4.044068932822     2.384352284030    -0.840154236003     1.007825032230
         H           -2.281938932822     2.505572284030    -0.491744236003     1.007825032230

  Running in c1 symmetry.

  Rotational constants: A =      0.04551  B =      0.02546  C =      0.01984 [cm^-1]
  Rotational constants: A =   1364.38962  B =    763.16897  C =    594.78789 [MHz]
  Nuclear repulsion =  497.708692985052039

  Charge       = 0
  Multiplicity = 1
  Electrons    = 76
  Nalpha       = 38
  Nbeta        = 38

  ==> Algorithm <==

  SCF Algorithm Type is PK.
  DIIS enabled.
  MOM disabled.
  Fractional occupation disabled.
  Guess Type is SAD.
  Energy threshold   = 1.00e-06
  Density threshold  = 1.00e-10
  Integral threshold = 0.00e+00

  ==> Primary Basis <==

  Basis Set: CC-PVDZ
    Blend: CC-PVDZ
    Number of shells: 102
    Number of basis function: 210
    Number of Cartesian functions: 220
    Spherical Harmonics?: true
    Max angular momentum: 2

  ==> Pre-Iterations <==

   -------------------------------------------------------
    Irrep   Nso     Nmo     Nalpha   Nbeta   Ndocc  Nsocc
   -------------------------------------------------------
     A        210     210       0       0       0       0
   -------------------------------------------------------
    Total     210     210      38      38      38       0
   -------------------------------------------------------

  ==> Integral Setup <==

  Using integral reordering PK algorithm.
  Sizing the integral batches needed.
  Building batch lookup table.
   Calculation information:
      Number of atoms:                  24
      Number of AO shells:             102
      Number of primitives:            290
      Number of atomic orbitals:       220
      Number of basis functions:       210

      Integral cutoff                 1.00e-12
      Number of threads:                 1

	Batch   1 pq = [       0,    9405] index = [             0,44231715] size =     44231715
	Batch   2 pq = [    9405,   13301] index = [      44231715,88464951] size =     44233236
	Batch   3 pq = [   13301,   16290] index = [      88464951,132690195] size =     44225244
	Batch   4 pq = [   16290,   18810] index = [     132690195,176917455] size =     44227260
	Batch   5 pq = [   18810,   21030] index = [     176917455,221140965] size =     44223510
	Batch   6 pq = [   21030,   22155] index = [     221140965,245433090] size =     24292125
  Task number: 23
  Buffer size: 11059200
  Buffer per thread: 2
  We computed 12232020 shell quartets total.
  Whereas there are 13799631 unique shell quartets.

  ==> DiskJK: Disk-Based J/K Matrices <==

    J tasked:                  Yes
    K tasked:                  Yes
    wK tasked:                  No
    Memory [MiB]:              375
    Schwarz Cutoff:          1E-12

    OpenMP threads:              1

  Minimum eigenvalue in the overlap matrix is 3.3562441270E-04.
  Using Symmetric Orthogonalization.

  SCF Guess: Superposition of Atomic Densities via on-the-fly atomic UHF.

  ==> Iterations <==

                        Total Energy        Delta E     RMS |[F,P]|

   @RHF iter SAD:  -422.57177430553037   -4.22572e+02   0.00000e+00
   @RHF iter   1:  -423.60074737580823   -1.02897e+00   2.97849e-03 DIIS
   @RHF iter   2:  -423.81661589808419   -2.15869e-01   1.27081e-03 DIIS
   @RHF iter   3:  -423.85211077234828   -3.54949e-02   2.87106e-04 DIIS
   @RHF iter   4:  -423.85501102913105   -2.90026e-03   1.21030e-04 DIIS
   @RHF iter   5:  -423.85538831522535   -3.77286e-04   2.09547e-05 DIIS
   @RHF iter   6:  -423.85540627730541   -1.79621e-05   6.46851e-06 DIIS
   @RHF iter   7:  -423.85540795615748   -1.67885e-06   2.11162e-06 DIIS
   @RHF iter   8:  -423.85540817540181   -2.19244e-07   7.79862e-07 DIIS
   @RHF iter   9:  -423.85540820670525   -3.13034e-08   2.79135e-07 DIIS
   @RHF iter  10:  -423.85540821133998   -4.63473e-09   1.04274e-07 DIIS
   @RHF iter  11:  -423.85540821246764   -1.12766e-09   4.92143e-08 DIIS
   @RHF iter  12:  -423.85540821274913   -2.81489e-10   2.73458e-08 DIIS
   @RHF iter  13:  -423.85540821282785   -7.87281e-11   8.61907e-09 DIIS
   @RHF iter  14:  -423.85540821283314   -5.28644e-12   2.25056e-09 DIIS
   @RHF iter  15:  -423.85540821283428   -1.13687e-12   7.18040e-10 DIIS
   @RHF iter  16:  -423.85540821283587   -1.59162e-12   2.16611e-10 DIIS
   @RHF iter  17:  -423.85540821283610   -2.27374e-13   7.79862e-11 DIIS
  Energy and wave function converged.

  ==> Post-Iterations <==

    Orbital Energies [Eh]
    ---------------------

    Doubly Occupied:

       1A    -20.584789     2A    -11.301916     3A    -11.241894
       4A    -11.239309     5A    -11.237140     6A    -11.236394
       7A    -11.231403     8A    -11.229345     9A    -11.212485
      10A    -11.209628    11A     -1.392218    12A     -1.147967
      13A     -1.035873    14A     -1.015888    15A     -1.013153
      16A     -0.925884    17A     -0.842367    18A     -0.831529
      19A     -0.801001    20A     -0.727817    21A     -0.665133
      22A     -0.641616    23A     -0.607976    24A     -0.595197
      25A     -0.592188    26A     -0.586029    27A     -0.581494
      28A     -0.569031    29A     -0.565645    30A     -0.527211
      31A     -0.499033    32A     -0.493944    33A     -0.484868
      34A     -0.481214    35A     -0.479488    36A     -0.465342
      37A     -0.337840    38A     -0.301599

    Virtual:

      39A      0.127425    40A      0.153280    41A      0.167067
      42A      0.183909    43A      0.200658    44A      0.213293
      45A      0.218760    46A      0.247616    47A      0.252980
      48A      0.267463    49A      0.267917    50A      0.271524
      51A      0.273538    52A      0.292645    53A      0.296272
      54A      0.303955    55A      0.367763    56A      0.371234
      57A      0.400287    58A      0.423736    59A      0.451584
      60A      0.485132    61A      0.491015    62A      0.506811
      63A      0.582439    64A      0.599803    65A      0.603775
      66A      0.613993    67A      0.623017    68A      0.646755
      69A      0.652120    70A      0.667961    71A      0.680897
      72A      0.693886    73A      0.712930    74A      0.726901
      75A      0.735282    76A      0.741335    77A      0.750278
      78A      0.768252    79A      0.775065    80A      0.788937
      81A      0.816579    82A      0.830510    83A      0.844961
      84A      0.852909    85A      0.874679    86A      0.884492
      87A      0.888979    88A      0.891554    89A      0.895370
      90A      0.902212    91A      0.905932    92A      0.911071
      93A      0.924599    94A      0.930260    95A      0.938345
      96A      0.946197    97A      0.955446    98A      0.961819
      99A      0.990982   100A      1.010629   101A      1.028951
     102A      1.061697   103A      1.123438   104A      1.129922
     105A      1.136819   106A      1.143939   107A      1.156481
     108A      1.160971   109A      1.205774   110A      1.231406
     111A      1.244830   112A      1.251765   113A      1.264514
     114A      1.282593   115A      1.293245   116A      1.302533
     117A      1.311625   118A      1.356065   119A      1.359696
     120A      1.380383   121A      1.473443   122A      1.480045
     123A      1.491991   124A      1.506986   125A      1.511092
     126A      1.558127   127A      1.585272   128A      1.616469
     129A      1.619245   130A      1.674982   131A      1.687235
     132A      1.692372   133A      1.700690   134A      1.732806
     135A      1.745424   136A      1.780410   137A      1.803350
     138A      1.811108   139A      1.857576   140A      1.874803
     141A      1.877490   142A      1.881953   143A      1.893976
     144A      1.899408   145A      1.906248   146A      1.918688
     147A      1.924567   148A      1.939761   149A      1.951798
     150A      1.955377   151A      1.960056   152A      1.965040
     153A      1.971286   154A      1.975337   155A      1.979862
     156A      2.004106   157A      2.023234   158A      2.043319
     159A      2.060882   160A      2.067214   161A      2.076623
     162A      2.106089   163A      2.115161   164A      2.126440
     165A      2.137357   166A      2.179791   167A      2.192703
     168A      2.208396   169A      2.252339   170A      2.267729
     171A      2.298149   172A      2.303379   173A      2.322785
     174A      2.365452   175A      2.380777   176A      2.387739
     177A      2.437975   178A      2.457201   179A      2.469100
     180A      2.476905   181A      2.486404   182A      2.525639
     183A      2.560953   184A      2.576075   185A      2.583156
     186A      2.610094   187A      2.623567   188A      2.723967
     189A      2.765258   190A      2.778545   191A      2.783367
     192A      2.801792   193A      2.803272   194A      2.845935
     195A      2.858715   196A      2.872058   197A      2.888899
     198A      2.944491   199A      2.969519   200A      2.981432
     201A      2.994182   202A      3.075019   203A      3.127211
     204A      3.241324   205A      3.269828   206A      3.335289
     207A      3.565149   208A      3.653613   209A      3.947552
     210A      4.170051

    Final Occupation by Irrep:
              A
    DOCC [    38 ]

  @RHF Final Energy:  -423.85540821283610

   => Energetics <=

    Nuclear Repulsion Energy =            497.7086929850520391
    One-Electron Energy =               -1561.2625136673409543
    Two-Electron Energy =                 639.6984124694528191
    Total Energy =                       -423.8554082128360960

Computation Completed

Properties will be evaluated at   0.000000,   0.000000,   0.000000 [a0]

Properties computed using the SCF density matrix

  Nuclear Dipole Moment: [e a0]
     X:    -7.5686      Y:     9.7230      Z:     0.9258

  Electronic Dipole Moment: [e a0]
     X:     7.6997      Y:    -9.3601      Z:    -1.3248

  Dipole Moment: [e a0]
     X:     0.1311      Y:     0.3630      Z:    -0.3990     Total:     0.5551

  Dipole Moment: [D]
     X:     0.3333      Y:     0.9226      Z:    -1.0142     Total:     1.4110

*** tstop() called on ds3 at Mon Apr 27 19:04:05 2020
Module time:
	user time   =      90.64 seconds =       1.51 minutes
	system time =      34.47 seconds =       0.57 minutes
	total time  =        187 seconds =       3.12 minutes
Total time:
	user time   =      90.64 seconds =       1.51 minutes
	system time =      34.47 seconds =       0.57 minutes
	total time  =        187 seconds =       3.12 minutes
                                     G D M A

                                 by Anthony Stone

                           version 2.2.06, 22 June 2011

               Distributed Multipoles from Gaussian wavefunctions

Starting at 19:4:5 on 27 Apr 2020

Using SCF density matrix from file ./SSI/SSI-033TYR-094ILE-2-dimer.test.1833.fchk

                         Distributed Multipole Analysis

Standard DMA

Positions and radii in angstrom
Multipole moments in atomic units, ea_0^k for rank k

C          x =  2.808931  y =  1.692352  z =  0.923846 angstrom
           Maximum rank =  0   Radius =  0.650 angstrom
                   Q00  =  -0.202964

C          x =  0.006931  y = -1.342648  z = -0.374154 angstrom
           Maximum rank =  0   Radius =  0.650 angstrom
                   Q00  =   0.334279

C          x =  0.467931  y = -0.382648  z = -1.283154 angstrom
           Maximum rank =  0   Radius =  0.650 angstrom
                   Q00  =  -0.194094

C          x =  0.461931  y = -1.310648  z =  0.947846 angstrom
           Maximum rank =  0   Radius =  0.650 angstrom
                   Q00  =  -0.121717

C          x =  1.393931  y =  0.586352  z = -0.862154 angstrom
           Maximum rank =  0   Radius =  0.650 angstrom
                   Q00  =  -0.030948

C          x =  1.366931  y = -0.333648  z =  1.358846 angstrom
           Maximum rank =  0   Radius =  0.650 angstrom
                   Q00  =   0.036117

C          x =  1.856931  y =  0.614352  z =  0.457846 angstrom
           Maximum rank =  0   Radius =  0.650 angstrom
                   Q00  =  -0.130886

O          x = -0.897069  y = -2.299648  z = -0.768154 angstrom
           Maximum rank =  0   Radius =  0.650 angstrom
                   Q00  =  -0.683058

H          x =  0.123931  y = -0.391648  z = -2.307154 angstrom
           Maximum rank =  0   Radius =  0.325 angstrom
                   Q00  =   0.073490

H          x = -1.154069  y = -2.190648  z = -1.703154 angstrom
           Maximum rank =  0   Radius =  0.325 angstrom
                   Q00  =   0.412496

H          x =  0.082931  y = -2.025648  z =  1.658846 angstrom
           Maximum rank =  0   Radius =  0.325 angstrom
                   Q00  =   0.080869

H          x =  1.735931  y =  1.327352  z = -1.574154 angstrom
           Maximum rank =  0   Radius =  0.325 angstrom
                   Q00  =   0.068954

H          x =  1.674931  y = -0.308648  z =  2.395846 angstrom
           Maximum rank =  0   Radius =  0.325 angstrom
                   Q00  =   0.065981

H          x =  3.037931  y =  1.561352  z =  1.982846 angstrom
           Maximum rank =  0   Radius =  0.325 angstrom
                   Q00  =   0.097607

H          x =  2.268931  y =  2.635352  z =  0.838846 angstrom
           Maximum rank =  0   Radius =  0.325 angstrom
                   Q00  =   0.096111

H          x =  3.745891  y =  1.778572  z =  0.354056 angstrom
           Maximum rank =  0   Radius =  0.325 angstrom
                   Q00  =   0.100846

C          x = -3.242069  y =  0.572352  z = -0.068154 angstrom
           Maximum rank =  0   Radius =  0.650 angstrom
                   Q00  =  -0.229903

C          x = -3.248069  y =  2.097352  z = -0.160154 angstrom
           Maximum rank =  0   Radius =  0.650 angstrom
                   Q00  =  -0.233711

H          x = -2.538069  y =  0.220352  z =  0.682846 angstrom
           Maximum rank =  0   Radius =  0.325 angstrom
                   Q00  =   0.090600

H          x = -4.240069  y =  0.236352  z =  0.211846 angstrom
           Maximum rank =  0   Radius =  0.325 angstrom
                   Q00  =   0.073053

H          x = -2.984069  y =  0.142352  z = -1.036154 angstrom
           Maximum rank =  0   Radius =  0.325 angstrom
                   Q00  =   0.065267

H          x = -3.497069  y =  2.508352  z =  0.818846 angstrom
           Maximum rank =  0   Radius =  0.325 angstrom
                   Q00  =   0.076923

H          x = -4.044069  y =  2.384352  z = -0.840154 angstrom
           Maximum rank =  0   Radius =  0.325 angstrom
                   Q00  =   0.073355

H          x = -2.281939  y =  2.505572  z = -0.491744 angstrom
           Maximum rank =  0   Radius =  0.325 angstrom
                   Q00  =   0.081332

Total multipoles referred to origin at
           x =   0.000000,  y =    0.000000,  z =    0.000000 angstrom
                   Q00  =  -0.000000

Finished at 19:4:5 on 27 Apr 2020

  DMA results are available in the Python driver through the
	  variable('DMA DISTRIBUTED MULTIPOLES')
  and
	  variable('DMA TOTAL MULTIPOLES')
  commands.

    Psi4 stopped on: Monday, 27 April 2020 07:04PM
    Psi4 wall time for execution: 0:03:07.76

*** Psi4 exiting successfully. Buy a developer a beer!
