                               Psi4 1.3.2 release

  ==> Input File <==

--------------------------------------------------------------------------
import numpy as np
set {scf_type pk
basis cc-pvdz
d_convergence 10
gdma_switch   0
gdma_limit    0
gdma_origin   [ 0.0,  0.0,  0.0 ]
}
molecule test {
    units Angstrom
    0 1
    --
    0 1
    C               -2.922083329480959    -0.993497456207829     2.229807492627209
    C               -1.799083329480959    -0.464497456207829     1.349807492627209
    O               -1.881083329480959     0.694502543792171     0.876807492627209
    O               -0.831083329480959    -1.222497456207829     1.112807492627210
    H               -2.507083329480959    -1.695497456207829     2.956807492627210
    H               -3.637083329480959    -1.543497456207829     1.614807492627210
    H               -3.448603329480959    -0.198307456207829     2.777939492627210
    C                1.608916670519041    -1.572497456207829    -1.459192507372790
    C                1.448916670519041     0.876502543792171    -1.019192507372791
    N                0.759916670519041     1.874502543792171    -0.501192507372791
    N                0.966916670519041    -0.358497456207829    -0.935192507372791
    N                2.600916670519041     1.125502543792171    -1.617192507372790
    H               -0.126083329480959     1.655502543792171    -0.048192507372791
    H                1.076916670519041     2.826502543792171    -0.571192507372791
    H                0.151916670519041    -0.494497456207829    -0.333192507372790
    H                3.063916670519041     0.386502543792171    -2.119192507372790
    H                2.917916670519041     2.075502543792171    -1.725192507372791
    H                2.217916670519041    -1.356497456207829    -2.340192507372790
    H                0.798916670519041    -2.230497456207829    -1.770192507372790
    H                2.209156670519041    -2.100397456207828    -0.703521507372791

}
e, wfn = energy('scf', return_wfn=True)
gdma(wfn)
dmavals = variable('DMA DISTRIBUTED MULTIPOLES')
charges = np.array(dmavals)
print(charges)
np.save('SSI-055ASP-185ARG-1-dimer.npy', np.array(charges))--------------------------------------------------------------------------

*** tstart() called on ds3
*** at Tue Apr 28 09:28:20 2020

   => Loading Basis Set <=

    Name: CC-PVDZ
    Role: ORBITAL
    Keyword: BASIS
    atoms 1-2, 8-9   entry C          line   138 file /theoryfs2/ds/metcalf/miniconda2/envs/tf2gpu/share/psi4/basis/cc-pvdz.gbs
    atoms 3-4        entry O          line   198 file /theoryfs2/ds/metcalf/miniconda2/envs/tf2gpu/share/psi4/basis/cc-pvdz.gbs
    atoms 5-7, 13-20 entry H          line    22 file /theoryfs2/ds/metcalf/miniconda2/envs/tf2gpu/share/psi4/basis/cc-pvdz.gbs
    atoms 10-12      entry N          line   168 file /theoryfs2/ds/metcalf/miniconda2/envs/tf2gpu/share/psi4/basis/cc-pvdz.gbs

         ---------------------------------------------------------
                                   SCF
               by Justin Turney, Rob Parrish, Andy Simmonett
                          and Daniel G. A. Smith
                              RHF Reference
                        1 Threads,    500 MiB Core
         ---------------------------------------------------------

  ==> Geometry <==

    Molecular point group: c1
    Full point group: C1

    Geometry (in Angstrom), charge = 0, multiplicity = 1:

       Center              X                  Y                   Z               Mass
    ------------   -----------------  -----------------  -----------------  -----------------
         C           -2.922083329481    -0.993497456208     2.229807492627    12.000000000000
         C           -1.799083329481    -0.464497456208     1.349807492627    12.000000000000
         O           -1.881083329481     0.694502543792     0.876807492627    15.994914619570
         O           -0.831083329481    -1.222497456208     1.112807492627    15.994914619570
         H           -2.507083329481    -1.695497456208     2.956807492627     1.007825032230
         H           -3.637083329481    -1.543497456208     1.614807492627     1.007825032230
         H           -3.448603329481    -0.198307456208     2.777939492627     1.007825032230
         C            1.608916670519    -1.572497456208    -1.459192507373    12.000000000000
         C            1.448916670519     0.876502543792    -1.019192507373    12.000000000000
         N            0.759916670519     1.874502543792    -0.501192507373    14.003074004430
         N            0.966916670519    -0.358497456208    -0.935192507373    14.003074004430
         N            2.600916670519     1.125502543792    -1.617192507373    14.003074004430
         H           -0.126083329481     1.655502543792    -0.048192507373     1.007825032230
         H            1.076916670519     2.826502543792    -0.571192507373     1.007825032230
         H            0.151916670519    -0.494497456208    -0.333192507373     1.007825032230
         H            3.063916670519     0.386502543792    -2.119192507373     1.007825032230
         H            2.917916670519     2.075502543792    -1.725192507373     1.007825032230
         H            2.217916670519    -1.356497456208    -2.340192507373     1.007825032230
         H            0.798916670519    -2.230497456208    -1.770192507373     1.007825032230
         H            2.209156670519    -2.100397456208    -0.703521507373     1.007825032230

  Running in c1 symmetry.

  Rotational constants: A =      0.09869  B =      0.02378  C =      0.01965 [cm^-1]
  Rotational constants: A =   2958.69317  B =    713.00711  C =    589.00047 [MHz]
  Nuclear repulsion =  460.905209024699445

  Charge       = 0
  Multiplicity = 1
  Electrons    = 72
  Nalpha       = 36
  Nbeta        = 36

  ==> Algorithm <==

  SCF Algorithm Type is PK.
  DIIS enabled.
  MOM disabled.
  Fractional occupation disabled.
  Guess Type is SAD.
  Energy threshold   = 1.00e-06
  Density threshold  = 1.00e-10
  Integral threshold = 0.00e+00

  ==> Primary Basis <==

  Basis Set: CC-PVDZ
    Blend: CC-PVDZ
    Number of shells: 87
    Number of basis function: 181
    Number of Cartesian functions: 190
    Spherical Harmonics?: true
    Max angular momentum: 2

  ==> Pre-Iterations <==

   -------------------------------------------------------
    Irrep   Nso     Nmo     Nalpha   Nbeta   Ndocc  Nsocc
   -------------------------------------------------------
     A        181     181       0       0       0       0
   -------------------------------------------------------
    Total     181     181      36      36      36       0
   -------------------------------------------------------

  ==> Integral Setup <==

  Using integral reordering PK algorithm.
  Sizing the integral batches needed.
  Building batch lookup table.
   Calculation information:
      Number of atoms:                  20
      Number of AO shells:              87
      Number of primitives:            253
      Number of atomic orbitals:       190
      Number of basis functions:       181

      Integral cutoff                 1.00e-12
      Number of threads:                 1

	Batch   1 pq = [       0,    9405] index = [             0,44231715] size =     44231715
	Batch   2 pq = [    9405,   13301] index = [      44231715,88464951] size =     44233236
	Batch   3 pq = [   13301,   16471] index = [      88464951,135655156] size =     47190205
  Task number: 13
  Buffer size: 11059200
  Buffer per thread: 2
  We computed 5847858 shell quartets total.
  Whereas there are 7328706 unique shell quartets.

  ==> DiskJK: Disk-Based J/K Matrices <==

    J tasked:                  Yes
    K tasked:                  Yes
    wK tasked:                  No
    Memory [MiB]:              375
    Schwarz Cutoff:          1E-12

    OpenMP threads:              1

  Minimum eigenvalue in the overlap matrix is 3.8332968857E-03.
  Using Symmetric Orthogonalization.

  SCF Guess: Superposition of Atomic Densities via on-the-fly atomic UHF.

  ==> Iterations <==

                        Total Energy        Delta E     RMS |[F,P]|

   @RHF iter SAD:  -469.66378375786729   -4.69664e+02   0.00000e+00
   @RHF iter   1:  -470.71807242625022   -1.05429e+00   4.21547e-03 DIIS
   @RHF iter   2:  -470.94060880433858   -2.22536e-01   2.19612e-03 DIIS
   @RHF iter   3:  -470.99804829372226   -5.74395e-02   3.89151e-04 DIIS
   @RHF iter   4:  -471.00120219090854   -3.15390e-03   1.29536e-04 DIIS
   @RHF iter   5:  -471.00155335428934   -3.51163e-04   2.34030e-05 DIIS
   @RHF iter   6:  -471.00156999134805   -1.66371e-05   7.88312e-06 DIIS
   @RHF iter   7:  -471.00157140743676   -1.41609e-06   2.41966e-06 DIIS
   @RHF iter   8:  -471.00157157892721   -1.71490e-07   1.01818e-06 DIIS
   @RHF iter   9:  -471.00157160064316   -2.17159e-08   2.95957e-07 DIIS
   @RHF iter  10:  -471.00157160308567   -2.44250e-09   7.24846e-08 DIIS
   @RHF iter  11:  -471.00157160332787   -2.42210e-10   2.23470e-08 DIIS
   @RHF iter  12:  -471.00157160335465   -2.67733e-11   1.02546e-08 DIIS
   @RHF iter  13:  -471.00157160336016   -5.51381e-12   3.77456e-09 DIIS
   @RHF iter  14:  -471.00157160336062   -4.54747e-13   1.20503e-09 DIIS
   @RHF iter  15:  -471.00157160336005    5.68434e-13   4.67285e-10 DIIS
   @RHF iter  16:  -471.00157160335931    7.38964e-13   1.62109e-10 DIIS
   @RHF iter  17:  -471.00157160336073   -1.42109e-12   7.39965e-11 DIIS
  Energy and wave function converged.

  ==> Post-Iterations <==

    Orbital Energies [Eh]
    ---------------------

    Doubly Occupied:

       1A    -20.419784     2A    -20.418150     3A    -15.651753
       4A    -15.622336     5A    -15.611189     6A    -11.432810
       7A    -11.302696     8A    -11.266575     9A    -11.168781
      10A     -1.389510    11A     -1.307088    12A     -1.246070
      13A     -1.233789    14A     -1.191840    15A     -0.992591
      16A     -0.918822    17A     -0.884560    18A     -0.823651
      19A     -0.788724    20A     -0.709095    21A     -0.698824
      22A     -0.669812    23A     -0.645293    24A     -0.631746
      25A     -0.601500    26A     -0.582059    27A     -0.551483
      28A     -0.542942    29A     -0.536014    30A     -0.476273
      31A     -0.473307    32A     -0.448246    33A     -0.420536
      34A     -0.338517    35A     -0.328459    36A     -0.322085

    Virtual:

      37A      0.120620    38A      0.153833    39A      0.178135
      40A      0.201570    41A      0.210704    42A      0.244197
      43A      0.252447    44A      0.263028    45A      0.279908
      46A      0.303825    47A      0.314486    48A      0.323696
      49A      0.352265    50A      0.402682    51A      0.423407
      52A      0.454262    53A      0.481179    54A      0.491607
      55A      0.577526    56A      0.585817    57A      0.591385
      58A      0.606476    59A      0.667726    60A      0.670008
      61A      0.680459    62A      0.697376    63A      0.704598
      64A      0.710763    65A      0.721329    66A      0.759512
      67A      0.796975    68A      0.814840    69A      0.821103
      70A      0.844156    71A      0.844428    72A      0.864241
      73A      0.886121    74A      0.908981    75A      0.916070
      76A      0.924665    77A      0.936013    78A      0.947163
      79A      0.958981    80A      0.971675    81A      0.983640
      82A      0.997100    83A      1.041386    84A      1.073749
      85A      1.085073    86A      1.098300    87A      1.131503
      88A      1.143929    89A      1.194400    90A      1.217491
      91A      1.249136    92A      1.270317    93A      1.293303
      94A      1.301644    95A      1.311801    96A      1.352034
      97A      1.358986    98A      1.385285    99A      1.393188
     100A      1.424559   101A      1.450499   102A      1.475264
     103A      1.505314   104A      1.521392   105A      1.568174
     106A      1.594840   107A      1.602673   108A      1.626416
     109A      1.636738   110A      1.684156   111A      1.698568
     112A      1.708414   113A      1.730484   114A      1.764443
     115A      1.791350   116A      1.809592   117A      1.858240
     118A      1.879509   119A      1.888223   120A      1.891799
     121A      1.900451   122A      1.914543   123A      1.931298
     124A      1.949687   125A      1.958399   126A      1.978385
     127A      1.994372   128A      2.011511   129A      2.026404
     130A      2.053812   131A      2.088011   132A      2.122301
     133A      2.140941   134A      2.162843   135A      2.206520
     136A      2.233501   137A      2.276356   138A      2.290528
     139A      2.296125   140A      2.313194   141A      2.329420
     142A      2.393873   143A      2.407187   144A      2.414963
     145A      2.445073   146A      2.496517   147A      2.515452
     148A      2.532638   149A      2.569986   150A      2.575958
     151A      2.599471   152A      2.627919   153A      2.637146
     154A      2.694083   155A      2.722859   156A      2.735932
     157A      2.793700   158A      2.799414   159A      2.852965
     160A      2.861468   161A      2.884213   162A      2.898514
     163A      2.950485   164A      2.973588   165A      2.980153
     166A      3.061299   167A      3.084518   168A      3.124806
     169A      3.144605   170A      3.206213   171A      3.228636
     172A      3.270535   173A      3.334928   174A      3.481392
     175A      3.621311   176A      3.675244   177A      3.729244
     178A      3.788641   179A      3.918441   180A      3.932344
     181A      4.072690

    Final Occupation by Irrep:
              A
    DOCC [    36 ]

  @RHF Final Energy:  -471.00157160336073

   => Energetics <=

    Nuclear Repulsion Energy =            460.9052090246994453
    One-Electron Energy =               -1558.5197396913213197
    Two-Electron Energy =                 626.6129590632612008
    Total Energy =                       -471.0015716033607305

Computation Completed

Properties will be evaluated at   0.000000,   0.000000,   0.000000 [a0]

Properties computed using the SCF density matrix

  Nuclear Dipole Moment: [e a0]
     X:     2.5223      Y:    -2.5181      Z:    -2.1015

  Electronic Dipole Moment: [e a0]
     X:     1.2386      Y:     3.8166      Z:    -0.6737

  Dipole Moment: [e a0]
     X:     3.7608      Y:     1.2985      Z:    -2.7752     Total:     4.8509

  Dipole Moment: [D]
     X:     9.5591      Y:     3.3004      Z:    -7.0538     Total:    12.3299

*** tstop() called on ds3 at Tue Apr 28 09:29:27 2020
Module time:
	user time   =      46.65 seconds =       0.78 minutes
	system time =      22.67 seconds =       0.38 minutes
	total time  =         67 seconds =       1.12 minutes
Total time:
	user time   =      46.65 seconds =       0.78 minutes
	system time =      22.67 seconds =       0.38 minutes
	total time  =         67 seconds =       1.12 minutes
                                     G D M A

                                 by Anthony Stone

                           version 2.2.06, 22 June 2011

               Distributed Multipoles from Gaussian wavefunctions

Starting at 9:29:27 on 28 Apr 2020

Using SCF density matrix from file ./SSI/SSI-055ASP-185ARG-1-dimer.test.10548.fchk

                         Distributed Multipole Analysis

Standard DMA

Positions and radii in angstrom
Multipole moments in atomic units, ea_0^k for rank k

C          x = -2.922083  y = -0.993497  z =  2.229807 angstrom
           Maximum rank =  0   Radius =  0.650 angstrom
                   Q00  =  -0.252798

C          x = -1.799083  y = -0.464497  z =  1.349807 angstrom
           Maximum rank =  0   Radius =  0.650 angstrom
                   Q00  =   0.871425

O          x = -1.881083  y =  0.694503  z =  0.876807 angstrom
           Maximum rank =  0   Radius =  0.650 angstrom
                   Q00  =  -0.911459

O          x = -0.831083  y = -1.222497  z =  1.112807 angstrom
           Maximum rank =  0   Radius =  0.650 angstrom
                   Q00  =  -0.897587

H          x = -2.507083  y = -1.695497  z =  2.956807 angstrom
           Maximum rank =  0   Radius =  0.325 angstrom
                   Q00  =   0.083702

H          x = -3.637083  y = -1.543497  z =  1.614807 angstrom
           Maximum rank =  0   Radius =  0.325 angstrom
                   Q00  =   0.102541

H          x = -3.448603  y = -0.198307  z =  2.777939 angstrom
           Maximum rank =  0   Radius =  0.325 angstrom
                   Q00  =   0.082269

C          x =  1.608917  y = -1.572497  z = -1.459193 angstrom
           Maximum rank =  0   Radius =  0.650 angstrom
                   Q00  =  -0.096567

C          x =  1.448917  y =  0.876503  z = -1.019193 angstrom
           Maximum rank =  0   Radius =  0.650 angstrom
                   Q00  =   1.056279

N          x =  0.759917  y =  1.874503  z = -0.501193 angstrom
           Maximum rank =  0   Radius =  0.650 angstrom
                   Q00  =  -0.592441

N          x =  0.966917  y = -0.358497  z = -0.935193 angstrom
           Maximum rank =  0   Radius =  0.650 angstrom
                   Q00  =  -0.498634

N          x =  2.600917  y =  1.125503  z = -1.617193 angstrom
           Maximum rank =  0   Radius =  0.650 angstrom
                   Q00  =  -0.577656

H          x = -0.126083  y =  1.655503  z = -0.048193 angstrom
           Maximum rank =  0   Radius =  0.325 angstrom
                   Q00  =   0.298591

H          x =  1.076917  y =  2.826503  z = -0.571193 angstrom
           Maximum rank =  0   Radius =  0.325 angstrom
                   Q00  =   0.230446

H          x =  0.151917  y = -0.494497  z = -0.333193 angstrom
           Maximum rank =  0   Radius =  0.325 angstrom
                   Q00  =   0.286238

H          x =  3.063917  y =  0.386503  z = -2.119193 angstrom
           Maximum rank =  0   Radius =  0.325 angstrom
                   Q00  =   0.242557

H          x =  2.917917  y =  2.075503  z = -1.725193 angstrom
           Maximum rank =  0   Radius =  0.325 angstrom
                   Q00  =   0.237063

H          x =  2.217917  y = -1.356497  z = -2.340193 angstrom
           Maximum rank =  0   Radius =  0.325 angstrom
                   Q00  =   0.071665

H          x =  0.798917  y = -2.230497  z = -1.770193 angstrom
           Maximum rank =  0   Radius =  0.325 angstrom
                   Q00  =   0.145205

H          x =  2.209157  y = -2.100397  z = -0.703522 angstrom
           Maximum rank =  0   Radius =  0.325 angstrom
                   Q00  =   0.119162

Total multipoles referred to origin at
           x =   0.000000,  y =    0.000000,  z =    0.000000 angstrom
                   Q00  =  -0.000000

Finished at 9:29:27 on 28 Apr 2020

  DMA results are available in the Python driver through the
	  variable('DMA DISTRIBUTED MULTIPOLES')
  and
	  variable('DMA TOTAL MULTIPOLES')
  commands.

    Psi4 stopped on: Tuesday, 28 April 2020 09:29AM
    Psi4 wall time for execution: 0:01:07.71

*** Psi4 exiting successfully. Buy a developer a beer!
