                               Psi4 1.3.2 release

  ==> Input File <==

--------------------------------------------------------------------------
import numpy as np
set {scf_type pk
basis cc-pvdz
d_convergence 10
gdma_switch   0
gdma_limit    0
gdma_origin   [ 0.0,  0.0,  0.0 ]
}
molecule test {
    units Angstrom
    0 1
    --
    0 1
    C               -0.375882105338379    -1.649745181653097    -1.315172861290886
    C               -0.352882105338379    -3.053745181653097    -1.915172861290886
    H               -1.402882105338379    -1.358745181653097    -1.082172861290886
    H                0.186117894661621    -1.615745181653097    -0.388172861290886
    H                0.052117894661621    -0.922745181653097    -2.006172861290886
    H                0.665117894661621    -3.283745181653097    -2.233172861290886
    H               -1.014822105338379    -3.099545181653097    -2.792512861290886
    H               -0.637362105338379    -3.809745181653097    -1.168492861290886
    C                0.369117894661621     1.114254818346903     0.857827138709114
    C               -0.417882105338379     1.210254818346903     2.165827138709114
    C                0.803117894661621     2.455254818346903     0.268827138709114
    H                1.253117894661621     0.496254818346903     1.017827138709114
    H               -0.264882105338379     0.621254818346903     0.121827138709114
    H               -1.321882105338379     1.796254818346903     1.997827138709114
    H                1.445117894661621     2.978254818346903     0.975827138709114
    H                0.191107894661621     1.708924818346903     2.934239138709114
    H               -0.758432105338379     0.209574818346903     2.470226138709114
    H                1.381747894661621     2.291274818346903    -0.652202861290886
    H               -0.078872105338379     3.080294818346903     0.065287138709114

}
e, wfn = energy('scf', return_wfn=True)
gdma(wfn)
dmavals = variable('DMA DISTRIBUTED MULTIPOLES')
charges = np.array(dmavals)
print(charges)
np.save('SSI-009ILE-038LEU-1-dimer.npy', np.array(charges))--------------------------------------------------------------------------

*** tstart() called on ds3
*** at Tue Apr 28 02:06:40 2020

   => Loading Basis Set <=

    Name: CC-PVDZ
    Role: ORBITAL
    Keyword: BASIS
    atoms 1-2, 9-11  entry C          line   138 file /theoryfs2/ds/metcalf/miniconda2/envs/tf2gpu/share/psi4/basis/cc-pvdz.gbs
    atoms 3-8, 12-19 entry H          line    22 file /theoryfs2/ds/metcalf/miniconda2/envs/tf2gpu/share/psi4/basis/cc-pvdz.gbs

         ---------------------------------------------------------
                                   SCF
               by Justin Turney, Rob Parrish, Andy Simmonett
                          and Daniel G. A. Smith
                              RHF Reference
                        1 Threads,    500 MiB Core
         ---------------------------------------------------------

  ==> Geometry <==

    Molecular point group: c1
    Full point group: C1

    Geometry (in Angstrom), charge = 0, multiplicity = 1:

       Center              X                  Y                   Z               Mass
    ------------   -----------------  -----------------  -----------------  -----------------
         C           -0.375882105338    -1.649745181653    -1.315172861291    12.000000000000
         C           -0.352882105338    -3.053745181653    -1.915172861291    12.000000000000
         H           -1.402882105338    -1.358745181653    -1.082172861291     1.007825032230
         H            0.186117894662    -1.615745181653    -0.388172861291     1.007825032230
         H            0.052117894662    -0.922745181653    -2.006172861291     1.007825032230
         H            0.665117894662    -3.283745181653    -2.233172861291     1.007825032230
         H           -1.014822105338    -3.099545181653    -2.792512861291     1.007825032230
         H           -0.637362105338    -3.809745181653    -1.168492861291     1.007825032230
         C            0.369117894662     1.114254818347     0.857827138709    12.000000000000
         C           -0.417882105338     1.210254818347     2.165827138709    12.000000000000
         C            0.803117894662     2.455254818347     0.268827138709    12.000000000000
         H            1.253117894662     0.496254818347     1.017827138709     1.007825032230
         H           -0.264882105338     0.621254818347     0.121827138709     1.007825032230
         H           -1.321882105338     1.796254818347     1.997827138709     1.007825032230
         H            1.445117894662     2.978254818347     0.975827138709     1.007825032230
         H            0.191107894662     1.708924818347     2.934239138709     1.007825032230
         H           -0.758432105338     0.209574818347     2.470226138709     1.007825032230
         H            1.381747894662     2.291274818347    -0.652202861291     1.007825032230
         H           -0.078872105338     3.080294818347     0.065287138709     1.007825032230

  Running in c1 symmetry.

  Rotational constants: A =      0.24369  B =      0.03670  C =      0.03310 [cm^-1]
  Rotational constants: A =   7305.67897  B =   1100.13010  C =    992.31542 [MHz]
  Nuclear repulsion =  176.319603172294194

  Charge       = 0
  Multiplicity = 1
  Electrons    = 44
  Nalpha       = 22
  Nbeta        = 22

  ==> Algorithm <==

  SCF Algorithm Type is PK.
  DIIS enabled.
  MOM disabled.
  Fractional occupation disabled.
  Guess Type is SAD.
  Energy threshold   = 1.00e-06
  Density threshold  = 1.00e-10
  Integral threshold = 0.00e+00

  ==> Primary Basis <==

  Basis Set: CC-PVDZ
    Blend: CC-PVDZ
    Number of shells: 72
    Number of basis function: 140
    Number of Cartesian functions: 145
    Spherical Harmonics?: true
    Max angular momentum: 2

  ==> Pre-Iterations <==

   -------------------------------------------------------
    Irrep   Nso     Nmo     Nalpha   Nbeta   Ndocc  Nsocc
   -------------------------------------------------------
     A        140     140       0       0       0       0
   -------------------------------------------------------
    Total     140     140      22      22      22       0
   -------------------------------------------------------

  ==> Integral Setup <==

  Using integral reordering PK algorithm.
  Sizing the integral batches needed.
  Building batch lookup table.
   Calculation information:
      Number of atoms:                  19
      Number of AO shells:              72
      Number of primitives:            180
      Number of atomic orbitals:       145
      Number of basis functions:       140

      Integral cutoff                 1.00e-12
      Number of threads:                 1

	Batch   1 pq = [       0,    9405] index = [             0,44231715] size =     44231715
	Batch   2 pq = [    9405,    9870] index = [      44231715,48713385] size =      4481670
  Task number: 5
  Buffer size: 11059200
  Buffer per thread: 2
  We computed 2797304 shell quartets total.
  Whereas there are 3454506 unique shell quartets.

  ==> DiskJK: Disk-Based J/K Matrices <==

    J tasked:                  Yes
    K tasked:                  Yes
    wK tasked:                  No
    Memory [MiB]:              375
    Schwarz Cutoff:          1E-12

    OpenMP threads:              1

  Minimum eigenvalue in the overlap matrix is 5.1740704423E-03.
  Using Symmetric Orthogonalization.

  SCF Guess: Superposition of Atomic Densities via on-the-fly atomic UHF.

  ==> Iterations <==

                        Total Energy        Delta E     RMS |[F,P]|

   @RHF iter SAD:  -196.36255243512394   -1.96363e+02   0.00000e+00
   @RHF iter   1:  -197.31193321195155   -9.49381e-01   3.79520e-03 DIIS
   @RHF iter   2:  -197.47204200754564   -1.60109e-01   1.63038e-03 DIIS
   @RHF iter   3:  -197.50017394440161   -2.81319e-02   3.26512e-04 DIIS
   @RHF iter   4:  -197.50242191199300   -2.24797e-03   4.86568e-05 DIIS
   @RHF iter   5:  -197.50246158927882   -3.96773e-05   1.48075e-05 DIIS
   @RHF iter   6:  -197.50246500380578   -3.41453e-06   2.56082e-06 DIIS
   @RHF iter   7:  -197.50246512137636   -1.17571e-07   4.98742e-07 DIIS
   @RHF iter   8:  -197.50246512682872   -5.45236e-09   1.31549e-07 DIIS
   @RHF iter   9:  -197.50246512718900   -3.60274e-10   4.22428e-08 DIIS
   @RHF iter  10:  -197.50246512723081   -4.18083e-11   8.79207e-09 DIIS
   @RHF iter  11:  -197.50246512723155   -7.38964e-13   1.61612e-09 DIIS
   @RHF iter  12:  -197.50246512723297   -1.42109e-12   2.93514e-10 DIIS
   @RHF iter  13:  -197.50246512723328   -3.12639e-13   5.37958e-11 DIIS
  Energy and wave function converged.

  ==> Post-Iterations <==

    Orbital Energies [Eh]
    ---------------------

    Doubly Occupied:

       1A    -11.219586     2A    -11.217329     3A    -11.216816
       4A    -11.216517     5A    -11.216291     6A     -1.051628
       7A     -1.018424     8A     -0.924028     9A     -0.839085
      10A     -0.793269    11A     -0.625434    12A     -0.599267
      13A     -0.596027    14A     -0.592261    15A     -0.548912
      16A     -0.530937    17A     -0.505637    18A     -0.488448
      19A     -0.483351    20A     -0.472337    21A     -0.466089
      22A     -0.461167

    Virtual:

      23A      0.172292    24A      0.192944    25A      0.217694
      26A      0.223058    27A      0.228310    28A      0.253158
      29A      0.259342    30A      0.266562    31A      0.273634
      32A      0.285546    33A      0.293862    34A      0.304461
      35A      0.309592    36A      0.328804    37A      0.374571
      38A      0.417045    39A      0.430171    40A      0.573046
      41A      0.587933    42A      0.595386    43A      0.597484
      44A      0.614165    45A      0.615981    46A      0.621543
      47A      0.683152    48A      0.699682    49A      0.756140
      50A      0.787399    51A      0.808089    52A      0.855015
      53A      0.879942    54A      0.886815    55A      0.890191
      56A      0.891016    57A      0.893735    58A      0.895960
      59A      0.903261    60A      0.905465    61A      0.907230
      62A      0.912298    63A      0.917620    64A      0.951594
      65A      0.953081    66A      0.968986    67A      0.984691
      68A      1.032744    69A      1.122249    70A      1.122808
      71A      1.128003    72A      1.154801    73A      1.218057
      74A      1.266195    75A      1.377212    76A      1.464571
      77A      1.474210    78A      1.478159    79A      1.505966
      80A      1.524162    81A      1.585491    82A      1.629120
      83A      1.678446    84A      1.682103    85A      1.685674
      86A      1.694295    87A      1.697811    88A      1.859176
      89A      1.861595    90A      1.874913    91A      1.881452
      92A      1.887676    93A      1.906756    94A      1.917194
      95A      1.921119    96A      1.929980    97A      1.940815
      98A      1.943065    99A      1.949424   100A      1.958211
     101A      1.964327   102A      1.982778   103A      1.991104
     104A      1.996192   105A      2.008466   106A      2.030983
     107A      2.088914   108A      2.101952   109A      2.119428
     110A      2.131289   111A      2.158690   112A      2.284656
     113A      2.292738   114A      2.313667   115A      2.329045
     116A      2.339249   117A      2.353055   118A      2.444842
     119A      2.464848   120A      2.513724   121A      2.531182
     122A      2.555667   123A      2.573886   124A      2.592935
     125A      2.617757   126A      2.630668   127A      2.746899
     128A      2.753889   129A      2.762268   130A      2.783992
     131A      2.786172   132A      2.805619   133A      2.851277
     134A      2.868966   135A      2.922402   136A      2.941982
     137A      2.961851   138A      2.969502   139A      2.982576
     140A      3.085449

    Final Occupation by Irrep:
              A
    DOCC [    22 ]

  @RHF Final Energy:  -197.50246512723328

   => Energetics <=

    Nuclear Repulsion Energy =            176.3196031722941939
    One-Electron Energy =                -613.4784613899565784
    Two-Electron Energy =                 239.6563930904291055
    Total Energy =                       -197.5024651272332790

Computation Completed

Properties will be evaluated at   0.000000,   0.000000,   0.000000 [a0]

Properties computed using the SCF density matrix

  Nuclear Dipole Moment: [e a0]
     X:    -0.2856      Y:    -0.8514      Z:    -0.6936

  Electronic Dipole Moment: [e a0]
     X:     0.2920      Y:     0.8177      Z:     0.6713

  Dipole Moment: [e a0]
     X:     0.0064      Y:    -0.0337      Z:    -0.0222     Total:     0.0409

  Dipole Moment: [D]
     X:     0.0162      Y:    -0.0857      Z:    -0.0565     Total:     0.1039

*** tstop() called on ds3 at Tue Apr 28 02:06:58 2020
Module time:
	user time   =      13.26 seconds =       0.22 minutes
	system time =       5.70 seconds =       0.09 minutes
	total time  =         18 seconds =       0.30 minutes
Total time:
	user time   =      13.26 seconds =       0.22 minutes
	system time =       5.70 seconds =       0.09 minutes
	total time  =         18 seconds =       0.30 minutes
                                     G D M A

                                 by Anthony Stone

                           version 2.2.06, 22 June 2011

               Distributed Multipoles from Gaussian wavefunctions

Starting at 2:6:58 on 28 Apr 2020

Using SCF density matrix from file ./SSI/SSI-009ILE-038LEU-1-dimer.test.10497.fchk

                         Distributed Multipole Analysis

Standard DMA

Positions and radii in angstrom
Multipole moments in atomic units, ea_0^k for rank k

C          x = -0.375882  y = -1.649745  z = -1.315173 angstrom
           Maximum rank =  0   Radius =  0.650 angstrom
                   Q00  =  -0.249134

C          x = -0.352882  y = -3.053745  z = -1.915173 angstrom
           Maximum rank =  0   Radius =  0.650 angstrom
                   Q00  =  -0.222792

H          x = -1.402882  y = -1.358745  z = -1.082173 angstrom
           Maximum rank =  0   Radius =  0.325 angstrom
                   Q00  =   0.074241

H          x =  0.186118  y = -1.615745  z = -0.388173 angstrom
           Maximum rank =  0   Radius =  0.325 angstrom
                   Q00  =   0.082341

H          x =  0.052118  y = -0.922745  z = -2.006173 angstrom
           Maximum rank =  0   Radius =  0.325 angstrom
                   Q00  =   0.079494

H          x =  0.665118  y = -3.283745  z = -2.233173 angstrom
           Maximum rank =  0   Radius =  0.325 angstrom
                   Q00  =   0.079022

H          x = -1.014822  y = -3.099545  z = -2.792513 angstrom
           Maximum rank =  0   Radius =  0.325 angstrom
                   Q00  =   0.080572

H          x = -0.637362  y = -3.809745  z = -1.168493 angstrom
           Maximum rank =  0   Radius =  0.325 angstrom
                   Q00  =   0.081046

C          x =  0.369118  y =  1.114255  z =  0.857827 angstrom
           Maximum rank =  0   Radius =  0.650 angstrom
                   Q00  =  -0.074370

C          x = -0.417882  y =  1.210255  z =  2.165827 angstrom
           Maximum rank =  0   Radius =  0.650 angstrom
                   Q00  =  -0.240256

C          x =  0.803118  y =  2.455255  z =  0.268827 angstrom
           Maximum rank =  0   Radius =  0.650 angstrom
                   Q00  =  -0.252010

H          x =  1.253118  y =  0.496255  z =  1.017827 angstrom
           Maximum rank =  0   Radius =  0.325 angstrom
                   Q00  =   0.043314

H          x = -0.264882  y =  0.621255  z =  0.121827 angstrom
           Maximum rank =  0   Radius =  0.325 angstrom
                   Q00  =   0.047674

H          x = -1.321882  y =  1.796255  z =  1.997827 angstrom
           Maximum rank =  0   Radius =  0.325 angstrom
                   Q00  =   0.074576

H          x =  1.445118  y =  2.978255  z =  0.975827 angstrom
           Maximum rank =  0   Radius =  0.325 angstrom
                   Q00  =   0.075356

H          x =  0.191108  y =  1.708925  z =  2.934239 angstrom
           Maximum rank =  0   Radius =  0.325 angstrom
                   Q00  =   0.076982

H          x = -0.758432  y =  0.209575  z =  2.470226 angstrom
           Maximum rank =  0   Radius =  0.325 angstrom
                   Q00  =   0.084127

H          x =  1.381748  y =  2.291275  z = -0.652203 angstrom
           Maximum rank =  0   Radius =  0.325 angstrom
                   Q00  =   0.083778

H          x = -0.078872  y =  3.080295  z =  0.065287 angstrom
           Maximum rank =  0   Radius =  0.325 angstrom
                   Q00  =   0.076038

Total multipoles referred to origin at
           x =   0.000000,  y =    0.000000,  z =    0.000000 angstrom
                   Q00  =  -0.000000

Finished at 2:6:58 on 28 Apr 2020

  DMA results are available in the Python driver through the
	  variable('DMA DISTRIBUTED MULTIPOLES')
  and
	  variable('DMA TOTAL MULTIPOLES')
  commands.

    Psi4 stopped on: Tuesday, 28 April 2020 02:06AM
    Psi4 wall time for execution: 0:00:18.65

*** Psi4 exiting successfully. Buy a developer a beer!
