                               Psi4 1.3.2 release

  ==> Input File <==

--------------------------------------------------------------------------
import numpy as np
set {scf_type pk
basis cc-pvdz
d_convergence 10
gdma_switch   0
gdma_limit    0
gdma_origin   [ 0.0,  0.0,  0.0 ]
}
molecule test {
    units Angstrom
    -1 1
    --
    -1 1
    C                2.871018189363593     2.734337008142870    -2.090478149573952
    C                2.807018189363593     1.225337008142870    -1.866478149573952
    O                2.281018189363593     0.779337008142870    -0.821478149573953
    O                3.289018189363592     0.484337008142870    -2.743478149573953
    H                2.926018189363592     2.966337008142871    -3.157478149573952
    H                3.791018189363593     3.120337008142870    -1.642478149573952
    H                2.021698189363593     3.276517008142870    -1.649238149573953
    C               -1.118981810636408    -3.581662991857130     1.507521850426047
    C               -0.436981810636407     0.095337008142870     0.811521850426047
    C               -1.718981810636407     0.627337008142871     0.794521850426047
    C               -0.249981810636407    -1.262662991857129     1.043521850426048
    C               -1.332981810636407    -2.101662991857129     1.284521850426047
    C               -2.816981810636408    -0.200662991857130     1.015521850426047
    C               -2.617981810636407    -1.560662991857129     1.252521850426048
    O               -1.891981810636407     1.960337008142871     0.562521850426047
    H                0.403018189363593     0.752337008142871     0.668521850426047
    H                0.748018189363593    -1.667662991857130     1.052521850426047
    H               -3.816981810636408     0.208337008142870     1.014521850426047
    H               -2.816981810636408     2.215337008142871     0.627521850426047
    H               -0.093981810636407    -3.847662991857129     1.267521850426047
    H               -1.764981810636407    -4.084662991857130     0.805521850426047
    H               -3.451981810636408    -2.194662991857130     1.482521850426048
    H               -1.370191810636408    -3.987352991857129     2.498638850426047

}
e, wfn = energy('scf', return_wfn=True)
gdma(wfn)
dmavals = variable('DMA DISTRIBUTED MULTIPOLES')
charges = np.array(dmavals)
print(charges)
np.save('SSI-115GLU-163TYR-2-dimer.npy', np.array(charges))--------------------------------------------------------------------------

*** tstart() called on ds3
*** at Sun Apr 26 17:03:20 2020

   => Loading Basis Set <=

    Name: CC-PVDZ
    Role: ORBITAL
    Keyword: BASIS
    atoms 1-2, 8-14  entry C          line   138 file /theoryfs2/ds/metcalf/miniconda2/envs/tf2gpu/share/psi4/basis/cc-pvdz.gbs
    atoms 3-4, 15    entry O          line   198 file /theoryfs2/ds/metcalf/miniconda2/envs/tf2gpu/share/psi4/basis/cc-pvdz.gbs
    atoms 5-7, 16-23 entry H          line    22 file /theoryfs2/ds/metcalf/miniconda2/envs/tf2gpu/share/psi4/basis/cc-pvdz.gbs

         ---------------------------------------------------------
                                   SCF
               by Justin Turney, Rob Parrish, Andy Simmonett
                          and Daniel G. A. Smith
                              RHF Reference
                        1 Threads,    500 MiB Core
         ---------------------------------------------------------

  ==> Geometry <==

    Molecular point group: c1
    Full point group: C1

    Geometry (in Angstrom), charge = -1, multiplicity = 1:

       Center              X                  Y                   Z               Mass
    ------------   -----------------  -----------------  -----------------  -----------------
         C            2.871018189364     2.734337008143    -2.090478149574    12.000000000000
         C            2.807018189364     1.225337008143    -1.866478149574    12.000000000000
         O            2.281018189364     0.779337008143    -0.821478149574    15.994914619570
         O            3.289018189364     0.484337008143    -2.743478149574    15.994914619570
         H            2.926018189364     2.966337008143    -3.157478149574     1.007825032230
         H            3.791018189364     3.120337008143    -1.642478149574     1.007825032230
         H            2.021698189364     3.276517008143    -1.649238149574     1.007825032230
         C           -1.118981810636    -3.581662991857     1.507521850426    12.000000000000
         C           -0.436981810636     0.095337008143     0.811521850426    12.000000000000
         C           -1.718981810636     0.627337008143     0.794521850426    12.000000000000
         C           -0.249981810636    -1.262662991857     1.043521850426    12.000000000000
         C           -1.332981810636    -2.101662991857     1.284521850426    12.000000000000
         C           -2.816981810636    -0.200662991857     1.015521850426    12.000000000000
         C           -2.617981810636    -1.560662991857     1.252521850426    12.000000000000
         O           -1.891981810636     1.960337008143     0.562521850426    15.994914619570
         H            0.403018189364     0.752337008143     0.668521850426     1.007825032230
         H            0.748018189364    -1.667662991857     1.052521850426     1.007825032230
         H           -3.816981810636     0.208337008143     1.014521850426     1.007825032230
         H           -2.816981810636     2.215337008143     0.627521850426     1.007825032230
         H           -0.093981810636    -3.847662991857     1.267521850426     1.007825032230
         H           -1.764981810636    -4.084662991857     0.805521850426     1.007825032230
         H           -3.451981810636    -2.194662991857     1.482521850426     1.007825032230
         H           -1.370191810636    -3.987352991857     2.498638850426     1.007825032230

  Running in c1 symmetry.

  Rotational constants: A =      0.04433  B =      0.01223  C =      0.00994 [cm^-1]
  Rotational constants: A =   1328.89846  B =    366.75042  C =    297.91431 [MHz]
  Nuclear repulsion =  622.095735299311855

  Charge       = -1
  Multiplicity = 1
  Electrons    = 90
  Nalpha       = 45
  Nbeta        = 45

  ==> Algorithm <==

  SCF Algorithm Type is PK.
  DIIS enabled.
  MOM disabled.
  Fractional occupation disabled.
  Guess Type is SAD.
  Energy threshold   = 1.00e-06
  Density threshold  = 1.00e-10
  Integral threshold = 0.00e+00

  ==> Primary Basis <==

  Basis Set: CC-PVDZ
    Blend: CC-PVDZ
    Number of shells: 105
    Number of basis function: 223
    Number of Cartesian functions: 235
    Spherical Harmonics?: true
    Max angular momentum: 2

  ==> Pre-Iterations <==

   -------------------------------------------------------
    Irrep   Nso     Nmo     Nalpha   Nbeta   Ndocc  Nsocc
   -------------------------------------------------------
     A        223     223       0       0       0       0
   -------------------------------------------------------
    Total     223     223      45      45      45       0
   -------------------------------------------------------

  ==> Integral Setup <==

  Using integral reordering PK algorithm.
  Sizing the integral batches needed.
  Building batch lookup table.
   Calculation information:
      Number of atoms:                  23
      Number of AO shells:             105
      Number of primitives:            319
      Number of atomic orbitals:       235
      Number of basis functions:       223

      Integral cutoff                 1.00e-12
      Number of threads:                 1

	Batch   1 pq = [       0,    9405] index = [             0,44231715] size =     44231715
	Batch   2 pq = [    9405,   13301] index = [      44231715,88464951] size =     44233236
	Batch   3 pq = [   13301,   16290] index = [      88464951,132690195] size =     44225244
	Batch   4 pq = [   16290,   18810] index = [     132690195,176917455] size =     44227260
	Batch   5 pq = [   18810,   21030] index = [     176917455,221140965] size =     44223510
	Batch   6 pq = [   21030,   23037] index = [     221140965,265363203] size =     44222238
	Batch   7 pq = [   23037,   24976] index = [     265363203,311912776] size =     46549573
  Task number: 29
  Buffer size: 11059200
  Buffer per thread: 2
  We computed 11327595 shell quartets total.
  Whereas there are 15487395 unique shell quartets.

  ==> DiskJK: Disk-Based J/K Matrices <==

    J tasked:                  Yes
    K tasked:                  Yes
    wK tasked:                  No
    Memory [MiB]:              375
    Schwarz Cutoff:          1E-12

    OpenMP threads:              1

  Minimum eigenvalue in the overlap matrix is 3.2473540081E-04.
  Using Symmetric Orthogonalization.

  SCF Guess: Superposition of Atomic Densities via on-the-fly atomic UHF.

  ==> Iterations <==

                        Total Energy        Delta E     RMS |[F,P]|

   @RHF iter SAD:  -570.19353141642068   -5.70194e+02   0.00000e+00
   @RHF iter   1:  -571.50121687632247   -1.30769e+00   3.72474e-03 DIIS
   @RHF iter   2:  -571.78847939554987   -2.87263e-01   1.99041e-03 DIIS
   @RHF iter   3:  -571.86297213084424   -7.44927e-02   3.47541e-04 DIIS
   @RHF iter   4:  -571.86688549828068   -3.91337e-03   1.28887e-04 DIIS
   @RHF iter   5:  -571.86743984093323   -5.54343e-04   2.11099e-05 DIIS
   @RHF iter   6:  -571.86746011903494   -2.02781e-05   8.61101e-06 DIIS
   @RHF iter   7:  -571.86746295905550   -2.84002e-06   2.92387e-06 DIIS
   @RHF iter   8:  -571.86746340372542   -4.44670e-07   9.31749e-07 DIIS
   @RHF iter   9:  -571.86746347234691   -6.86215e-08   4.11765e-07 DIIS
   @RHF iter  10:  -571.86746348606096   -1.37140e-08   1.58272e-07 DIIS
   @RHF iter  11:  -571.86746348924623   -3.18528e-09   8.58212e-08 DIIS
   @RHF iter  12:  -571.86746348989880   -6.52562e-10   3.24534e-08 DIIS
   @RHF iter  13:  -571.86746349002158   -1.22782e-10   1.13322e-08 DIIS
   @RHF iter  14:  -571.86746349003863   -1.70530e-11   6.02560e-09 DIIS
   @RHF iter  15:  -571.86746349004261   -3.97904e-12   2.20094e-09 DIIS
   @RHF iter  16:  -571.86746349004704   -4.43379e-12   9.84560e-10 DIIS
   @RHF iter  17:  -571.86746349004488    2.16005e-12   4.20575e-10 DIIS
   @RHF iter  18:  -571.86746349003204    1.28466e-11   1.15435e-10 DIIS
   @RHF iter  19:  -571.86746349003715   -5.11591e-12   4.89335e-11 DIIS
  Energy and wave function converged.

  ==> Post-Iterations <==

    Orbital Energies [Eh]
    ---------------------

    Doubly Occupied:

       1A    -20.482024     2A    -20.259528     3A    -20.255686
       4A    -11.191262     5A    -11.138133     6A    -11.137876
       7A    -11.135067     8A    -11.132205     9A    -11.124406
      10A    -11.115803    11A    -11.108992    12A    -11.050303
      13A     -1.298154    14A     -1.149524    15A     -1.046899
      16A     -1.034739    17A     -0.937906    18A     -0.910224
      19A     -0.831020    20A     -0.793928    21A     -0.741294
      22A     -0.697054    23A     -0.628587    24A     -0.565855
      25A     -0.537595    26A     -0.507457    27A     -0.501653
      28A     -0.486937    29A     -0.476553    30A     -0.473467
      31A     -0.466200    32A     -0.432707    33A     -0.407282
      34A     -0.406876    35A     -0.402214    36A     -0.398843
      37A     -0.375583    38A     -0.364809    39A     -0.340977
      40A     -0.303750    41A     -0.230313    42A     -0.198965
      43A     -0.183223    44A     -0.169869    45A     -0.160053

    Virtual:

      46A      0.235967    47A      0.259659    48A      0.266513
      49A      0.275375    50A      0.307610    51A      0.333190
      52A      0.351612    53A      0.352800    54A      0.361539
      55A      0.390634    56A      0.396936    57A      0.413694
      58A      0.454645    59A      0.466275    60A      0.482761
      61A      0.487546    62A      0.528975    63A      0.551930
      64A      0.576971    65A      0.592274    66A      0.605030
      67A      0.622499    68A      0.695306    69A      0.706775
      70A      0.716511    71A      0.721930    72A      0.757381
      73A      0.760772    74A      0.789696    75A      0.800744
      76A      0.817333    77A      0.819501    78A      0.831315
      79A      0.839270    80A      0.857524    81A      0.866667
      82A      0.876486    83A      0.884002    84A      0.889735
      85A      0.901033    86A      0.924114    87A      0.941877
      88A      0.944192    89A      0.962857    90A      0.972469
      91A      0.976482    92A      0.978323    93A      0.996673
      94A      1.016207    95A      1.028204    96A      1.031951
      97A      1.034238    98A      1.038381    99A      1.043318
     100A      1.045446   101A      1.056456   102A      1.078143
     103A      1.118840   104A      1.131913   105A      1.147476
     106A      1.158884   107A      1.223730   108A      1.234828
     109A      1.247375   110A      1.255436   111A      1.266230
     112A      1.300618   113A      1.337175   114A      1.343289
     115A      1.346971   116A      1.352108   117A      1.370020
     118A      1.384740   119A      1.392297   120A      1.409030
     121A      1.412616   122A      1.455740   123A      1.466920
     124A      1.480883   125A      1.504304   126A      1.543519
     127A      1.568809   128A      1.578058   129A      1.590199
     130A      1.600945   131A      1.620429   132A      1.644980
     133A      1.651925   134A      1.679275   135A      1.701653
     136A      1.716429   137A      1.727216   138A      1.763863
     139A      1.784122   140A      1.789905   141A      1.835637
     142A      1.838491   143A      1.846881   144A      1.849269
     145A      1.885512   146A      1.908396   147A      1.919756
     148A      1.964179   149A      1.986468   150A      2.001014
     151A      2.009721   152A      2.028701   153A      2.035971
     154A      2.048999   155A      2.055684   156A      2.068064
     157A      2.072695   158A      2.079729   159A      2.085081
     160A      2.112082   161A      2.131621   162A      2.140781
     163A      2.155899   164A      2.160281   165A      2.178345
     166A      2.185701   167A      2.207035   168A      2.237078
     169A      2.243407   170A      2.259407   171A      2.282153
     172A      2.299318   173A      2.330074   174A      2.353329
     175A      2.364941   176A      2.399320   177A      2.410840
     178A      2.417551   179A      2.438033   180A      2.460932
     181A      2.486604   182A      2.507300   183A      2.549518
     184A      2.561030   185A      2.586467   186A      2.613518
     187A      2.634820   188A      2.647036   189A      2.681636
     190A      2.702466   191A      2.704798   192A      2.744720
     193A      2.785507   194A      2.845019   195A      2.871344
     196A      2.897094   197A      2.906952   198A      2.937978
     199A      2.962934   200A      2.970501   201A      2.981846
     202A      3.003086   203A      3.065185   204A      3.121415
     205A      3.199117   206A      3.237055   207A      3.243836
     208A      3.279757   209A      3.296470   210A      3.352965
     211A      3.361971   212A      3.404520   213A      3.448754
     214A      3.641294   215A      3.677195   216A      3.780960
     217A      3.785849   218A      3.834594   219A      4.066655
     220A      4.073869   221A      4.106433   222A      4.202086
     223A      4.297303

    Final Occupation by Irrep:
              A
    DOCC [    45 ]

  @RHF Final Energy:  -571.86746349003715

   => Energetics <=

    Nuclear Repulsion Energy =            622.0957352993118548
    One-Electron Energy =               -2028.7428074920667314
    Two-Electron Energy =                 834.7796087027177236
    Total Energy =                       -571.8674634900371530

Computation Completed

Properties will be evaluated at   0.000000,   0.000000,   0.000000 [a0]

Properties computed using the SCF density matrix

  Nuclear Dipole Moment: [e a0]
     X:    -3.1935      Y:    -3.0245      Z:     2.7681

  Electronic Dipole Moment: [e a0]
     X:    -1.7052      Y:     2.1627      Z:     0.3026

  Dipole Moment: [e a0]
     X:    -4.8986      Y:    -0.8618      Z:     3.0707     Total:     5.8454

  Dipole Moment: [D]
     X:   -12.4511      Y:    -2.1905      Z:     7.8049     Total:    14.8575

*** tstop() called on ds3 at Sun Apr 26 17:05:55 2020
Module time:
	user time   =     106.85 seconds =       1.78 minutes
	system time =      56.25 seconds =       0.94 minutes
	total time  =        155 seconds =       2.58 minutes
Total time:
	user time   =     106.85 seconds =       1.78 minutes
	system time =      56.25 seconds =       0.94 minutes
	total time  =        155 seconds =       2.58 minutes
                                     G D M A

                                 by Anthony Stone

                           version 2.2.06, 22 June 2011

               Distributed Multipoles from Gaussian wavefunctions

Starting at 17:5:56 on 26 Apr 2020

Using SCF density matrix from file ./SSI/SSI-115GLU-163TYR-2-dimer.test.17371.fchk

                         Distributed Multipole Analysis

Standard DMA

Positions and radii in angstrom
Multipole moments in atomic units, ea_0^k for rank k

C          x =  2.871018  y =  2.734337  z = -2.090478 angstrom
           Maximum rank =  0   Radius =  0.650 angstrom
                   Q00  =  -0.290552

C          x =  2.807018  y =  1.225337  z = -1.866478 angstrom
           Maximum rank =  0   Radius =  0.650 angstrom
                   Q00  =   0.973921

O          x =  2.281018  y =  0.779337  z = -0.821478 angstrom
           Maximum rank =  0   Radius =  0.650 angstrom
                   Q00  =  -0.939282

O          x =  3.289018  y =  0.484337  z = -2.743478 angstrom
           Maximum rank =  0   Radius =  0.650 angstrom
                   Q00  =  -0.917691

H          x =  2.926018  y =  2.966337  z = -3.157478 angstrom
           Maximum rank =  0   Radius =  0.325 angstrom
                   Q00  =   0.054669

H          x =  3.791018  y =  3.120337  z = -1.642478 angstrom
           Maximum rank =  0   Radius =  0.325 angstrom
                   Q00  =   0.075681

H          x =  2.021698  y =  3.276517  z = -1.649238 angstrom
           Maximum rank =  0   Radius =  0.325 angstrom
                   Q00  =   0.058714

C          x = -1.118982  y = -3.581663  z =  1.507522 angstrom
           Maximum rank =  0   Radius =  0.650 angstrom
                   Q00  =  -0.197433

C          x = -0.436982  y =  0.095337  z =  0.811522 angstrom
           Maximum rank =  0   Radius =  0.650 angstrom
                   Q00  =  -0.033044

C          x = -1.718982  y =  0.627337  z =  0.794522 angstrom
           Maximum rank =  0   Radius =  0.650 angstrom
                   Q00  =   0.302986

C          x = -0.249982  y = -1.262663  z =  1.043522 angstrom
           Maximum rank =  0   Radius =  0.650 angstrom
                   Q00  =   0.072021

C          x = -1.332982  y = -2.101663  z =  1.284522 angstrom
           Maximum rank =  0   Radius =  0.650 angstrom
                   Q00  =  -0.162331

C          x = -2.816982  y = -0.200663  z =  1.015522 angstrom
           Maximum rank =  0   Radius =  0.650 angstrom
                   Q00  =  -0.204155

C          x = -2.617982  y = -1.560663  z =  1.252522 angstrom
           Maximum rank =  0   Radius =  0.650 angstrom
                   Q00  =  -0.030219

O          x = -1.891982  y =  1.960337  z =  0.562522 angstrom
           Maximum rank =  0   Radius =  0.650 angstrom
                   Q00  =  -0.664800

H          x =  0.403018  y =  0.752337  z =  0.668522 angstrom
           Maximum rank =  0   Radius =  0.325 angstrom
                   Q00  =   0.097371

H          x =  0.748018  y = -1.667663  z =  1.052522 angstrom
           Maximum rank =  0   Radius =  0.325 angstrom
                   Q00  =   0.065857

H          x = -3.816982  y =  0.208337  z =  1.014522 angstrom
           Maximum rank =  0   Radius =  0.325 angstrom
                   Q00  =   0.048816

H          x = -2.816982  y =  2.215337  z =  0.627522 angstrom
           Maximum rank =  0   Radius =  0.325 angstrom
                   Q00  =   0.383259

H          x = -0.093982  y = -3.847663  z =  1.267522 angstrom
           Maximum rank =  0   Radius =  0.325 angstrom
                   Q00  =   0.104119

H          x = -1.764982  y = -4.084663  z =  0.805522 angstrom
           Maximum rank =  0   Radius =  0.325 angstrom
                   Q00  =   0.084769

H          x = -3.451982  y = -2.194663  z =  1.482522 angstrom
           Maximum rank =  0   Radius =  0.325 angstrom
                   Q00  =   0.040765

H          x = -1.370192  y = -3.987353  z =  2.498639 angstrom
           Maximum rank =  0   Radius =  0.325 angstrom
                   Q00  =   0.076562

Total multipoles referred to origin at
           x =   0.000000,  y =    0.000000,  z =    0.000000 angstrom
                   Q00  =  -1.000000

Finished at 17:5:56 on 26 Apr 2020

  DMA results are available in the Python driver through the
	  variable('DMA DISTRIBUTED MULTIPOLES')
  and
	  variable('DMA TOTAL MULTIPOLES')
  commands.

    Psi4 stopped on: Sunday, 26 April 2020 05:05PM
    Psi4 wall time for execution: 0:02:36.21

*** Psi4 exiting successfully. Buy a developer a beer!
