                               Psi4 1.3.2 release

  ==> Input File <==

--------------------------------------------------------------------------
import numpy as np
set {scf_type pk
basis cc-pvdz
d_convergence 10
gdma_switch   0
gdma_limit    0
gdma_origin   [ 0.0,  0.0,  0.0 ]
}
molecule test {
    units Angstrom
    0 1
    --
    0 1
    C               -0.584562784268934     1.510396065842381    -0.446587200203101
    C               -0.797562784268934     2.966396065842381    -0.853587200203101
    H                0.207437215731066     1.051396065842382    -1.035587200203101
    H               -0.304562784268934     1.454396065842382     0.606412799796899
    H               -1.506562784268934     0.943396065842382    -0.587587200203101
    H               -1.536562784268934     3.382396065842381    -0.168587200203101
    H               -1.209552784268933     3.010356065842382    -1.872577200203101
    H                0.139017215731066     3.534956065842382    -0.755827200203101
    C                0.947437215731066    -1.897603934157619     0.016412799796899
    C                0.436437215731066    -2.575603934157618     1.280412799796899
    H                1.767437215731067    -1.221603934157619     0.260412799796899
    H                1.311437215731066    -2.651603934157619    -0.683587200203101
    H                0.143437215731066    -1.333603934157619    -0.457587200203101
    H                1.240437215731067    -3.192603934157618     1.680412799796899
    H                0.153617215731066    -1.805893934157619     2.013602799796899
    H               -0.426402784268934    -3.214263934157619     1.040372799796899

}
e, wfn = energy('scf', return_wfn=True)
gdma(wfn)
dmavals = variable('DMA DISTRIBUTED MULTIPOLES')
charges = np.array(dmavals)
print(charges)
np.save('SSI-082ILE-121LEU-1-dimer.npy', np.array(charges))--------------------------------------------------------------------------

*** tstart() called on ds3
*** at Mon Apr 27 23:27:53 2020

   => Loading Basis Set <=

    Name: CC-PVDZ
    Role: ORBITAL
    Keyword: BASIS
    atoms 1-2, 9-10  entry C          line   138 file /theoryfs2/ds/metcalf/miniconda2/envs/tf2gpu/share/psi4/basis/cc-pvdz.gbs
    atoms 3-8, 11-16 entry H          line    22 file /theoryfs2/ds/metcalf/miniconda2/envs/tf2gpu/share/psi4/basis/cc-pvdz.gbs

         ---------------------------------------------------------
                                   SCF
               by Justin Turney, Rob Parrish, Andy Simmonett
                          and Daniel G. A. Smith
                              RHF Reference
                        1 Threads,    500 MiB Core
         ---------------------------------------------------------

  ==> Geometry <==

    Molecular point group: c1
    Full point group: C1

    Geometry (in Angstrom), charge = 0, multiplicity = 1:

       Center              X                  Y                   Z               Mass
    ------------   -----------------  -----------------  -----------------  -----------------
         C           -0.584562784269     1.510396065842    -0.446587200203    12.000000000000
         C           -0.797562784269     2.966396065842    -0.853587200203    12.000000000000
         H            0.207437215731     1.051396065842    -1.035587200203     1.007825032230
         H           -0.304562784269     1.454396065842     0.606412799797     1.007825032230
         H           -1.506562784269     0.943396065842    -0.587587200203     1.007825032230
         H           -1.536562784269     3.382396065842    -0.168587200203     1.007825032230
         H           -1.209552784269     3.010356065842    -1.872577200203     1.007825032230
         H            0.139017215731     3.534956065842    -0.755827200203     1.007825032230
         C            0.947437215731    -1.897603934158     0.016412799797    12.000000000000
         C            0.436437215731    -2.575603934158     1.280412799797    12.000000000000
         H            1.767437215731    -1.221603934158     0.260412799797     1.007825032230
         H            1.311437215731    -2.651603934158    -0.683587200203     1.007825032230
         H            0.143437215731    -1.333603934158    -0.457587200203     1.007825032230
         H            1.240437215731    -3.192603934158     1.680412799797     1.007825032230
         H            0.153617215731    -1.805893934158     2.013602799797     1.007825032230
         H           -0.426402784269    -3.214263934158     1.040372799797     1.007825032230

  Running in c1 symmetry.

  Rotational constants: A =      0.64657  B =      0.04306  C =      0.04172 [cm^-1]
  Rotational constants: A =  19383.56487  B =   1290.91929  C =   1250.73646 [MHz]
  Nuclear repulsion =  120.779578827333708

  Charge       = 0
  Multiplicity = 1
  Electrons    = 36
  Nalpha       = 18
  Nbeta        = 18

  ==> Algorithm <==

  SCF Algorithm Type is PK.
  DIIS enabled.
  MOM disabled.
  Fractional occupation disabled.
  Guess Type is SAD.
  Energy threshold   = 1.00e-06
  Density threshold  = 1.00e-10
  Integral threshold = 0.00e+00

  ==> Primary Basis <==

  Basis Set: CC-PVDZ
    Blend: CC-PVDZ
    Number of shells: 60
    Number of basis function: 116
    Number of Cartesian functions: 120
    Spherical Harmonics?: true
    Max angular momentum: 2

  ==> Pre-Iterations <==

   -------------------------------------------------------
    Irrep   Nso     Nmo     Nalpha   Nbeta   Ndocc  Nsocc
   -------------------------------------------------------
     A        116     116       0       0       0       0
   -------------------------------------------------------
    Total     116     116      18      18      18       0
   -------------------------------------------------------

  ==> Integral Setup <==

  Using integral reordering PK algorithm.
  Sizing the integral batches needed.
  Building batch lookup table.
   Calculation information:
      Number of atoms:                  16
      Number of AO shells:              60
      Number of primitives:            148
      Number of atomic orbitals:       120
      Number of basis functions:       116

      Integral cutoff                 1.00e-12
      Number of threads:                 1

	Batch   1 pq = [       0,    6786] index = [             0,23028291] size =     23028291
  Task number: 3
  Buffer size: 11059200
  Buffer per thread: 2
  We computed 1384840 shell quartets total.
  Whereas there are 1675365 unique shell quartets.

  ==> DiskJK: Disk-Based J/K Matrices <==

    J tasked:                  Yes
    K tasked:                  Yes
    wK tasked:                  No
    Memory [MiB]:              375
    Schwarz Cutoff:          1E-12

    OpenMP threads:              1

  Minimum eigenvalue in the overlap matrix is 6.5100549933E-03.
  Using Symmetric Orthogonalization.

  SCF Guess: Superposition of Atomic Densities via on-the-fly atomic UHF.

  ==> Iterations <==

                        Total Energy        Delta E     RMS |[F,P]|

   @RHF iter SAD:  -157.35953977677622   -1.57360e+02   0.00000e+00
   @RHF iter   1:  -158.30641903053964   -9.46879e-01   4.22816e-03 DIIS
   @RHF iter   2:  -158.44052292761938   -1.34104e-01   1.80498e-03 DIIS
   @RHF iter   3:  -158.46415402758157   -2.36311e-02   3.50550e-04 DIIS
   @RHF iter   4:  -158.46599659815260   -1.84257e-03   3.88651e-05 DIIS
   @RHF iter   5:  -158.46602059871526   -2.40006e-05   6.47642e-06 DIIS
   @RHF iter   6:  -158.46602123623822   -6.37523e-07   9.25354e-07 DIIS
   @RHF iter   7:  -158.46602124560104   -9.36282e-09   2.91069e-07 DIIS
   @RHF iter   8:  -158.46602124631193   -7.10884e-10   4.13365e-08 DIIS
   @RHF iter   9:  -158.46602124633881   -2.68869e-11   8.44406e-09 DIIS
   @RHF iter  10:  -158.46602124633984   -1.02318e-12   1.99517e-09 DIIS
   @RHF iter  11:  -158.46602124634006   -2.27374e-13   3.41329e-10 DIIS
   @RHF iter  12:  -158.46602124633978    2.84217e-13   6.15167e-11 DIIS
  Energy and wave function converged.

  ==> Post-Iterations <==

    Orbital Energies [Eh]
    ---------------------

    Doubly Occupied:

       1A    -11.219556     2A    -11.217983     3A    -11.216469
       4A    -11.214407     5A     -1.020071     6A     -1.018066
       7A     -0.837773     8A     -0.831847     9A     -0.600802
      10A     -0.600055    11A     -0.597655    12A     -0.596405
      13A     -0.503158    14A     -0.496551    15A     -0.488493
      16A     -0.486409    17A     -0.484145    18A     -0.478496

    Virtual:

      19A      0.173426    20A      0.193387    21A      0.228791
      22A      0.234731    23A      0.237434    24A      0.261514
      25A      0.264680    26A      0.277282    27A      0.278617
      28A      0.291916    29A      0.305617    30A      0.315838
      31A      0.393681    32A      0.410669    33A      0.572542
      34A      0.596152    35A      0.603867    36A      0.605444
      37A      0.607931    38A      0.634352    39A      0.674023
      40A      0.677371    41A      0.701503    42A      0.760255
      43A      0.846101    44A      0.872502    45A      0.882886
      46A      0.892276    47A      0.893812    48A      0.894792
      49A      0.901705    50A      0.906788    51A      0.916189
      52A      0.923500    53A      0.930923    54A      0.943478
      55A      0.967803    56A      0.999752    57A      1.123622
      58A      1.126844    59A      1.131774    60A      1.146645
      61A      1.233036    62A      1.251207    63A      1.471527
      64A      1.479488    65A      1.484638    66A      1.492517
      67A      1.562951    68A      1.582439    69A      1.675105
      70A      1.677097    71A      1.694366    72A      1.696579
      73A      1.844841    74A      1.854761    75A      1.864287
      76A      1.878318    77A      1.905623    78A      1.915131
      79A      1.935167    80A      1.943895    81A      1.948473
      82A      1.950719    83A      1.952036    84A      1.959347
      85A      1.965526    86A      1.974496    87A      1.984040
      88A      2.027855    89A      2.094540    90A      2.110887
      91A      2.123404    92A      2.124437    93A      2.286894
      94A      2.298329    95A      2.314395    96A      2.330505
      97A      2.443782    98A      2.455350    99A      2.469132
     100A      2.480811   101A      2.560229   102A      2.569761
     103A      2.572997   104A      2.581265   105A      2.760760
     106A      2.764848   107A      2.780377   108A      2.795642
     109A      2.839359   110A      2.843715   111A      2.848393
     112A      2.854913   113A      2.936598   114A      2.954715
     115A      2.960459   116A      2.970475

    Final Occupation by Irrep:
              A
    DOCC [    18 ]

  @RHF Final Energy:  -158.46602124633978

   => Energetics <=

    Nuclear Repulsion Energy =            120.7795788273337081
    One-Electron Energy =                -450.6745183327026325
    Two-Electron Energy =                 171.4289182590291603
    Total Energy =                       -158.4660212463397784

Computation Completed

Properties will be evaluated at   0.000000,   0.000000,   0.000000 [a0]

Properties computed using the SCF density matrix

  Nuclear Dipole Moment: [e a0]
     X:    -0.0195      Y:    -0.0400      Z:     0.0374

  Electronic Dipole Moment: [e a0]
     X:     0.0169      Y:     0.0447      Z:    -0.0403

  Dipole Moment: [e a0]
     X:    -0.0026      Y:     0.0047      Z:    -0.0029     Total:     0.0061

  Dipole Moment: [D]
     X:    -0.0066      Y:     0.0118      Z:    -0.0073     Total:     0.0154

*** tstop() called on ds3 at Mon Apr 27 23:28:05 2020
Module time:
	user time   =       8.61 seconds =       0.14 minutes
	system time =       4.21 seconds =       0.07 minutes
	total time  =         12 seconds =       0.20 minutes
Total time:
	user time   =       8.61 seconds =       0.14 minutes
	system time =       4.21 seconds =       0.07 minutes
	total time  =         12 seconds =       0.20 minutes
                                     G D M A

                                 by Anthony Stone

                           version 2.2.06, 22 June 2011

               Distributed Multipoles from Gaussian wavefunctions

Starting at 23:28:5 on 27 Apr 2020

Using SCF density matrix from file ./SSI/SSI-082ILE-121LEU-1-dimer.test.2910.fchk

                         Distributed Multipole Analysis

Standard DMA

Positions and radii in angstrom
Multipole moments in atomic units, ea_0^k for rank k

C          x = -0.584563  y =  1.510396  z = -0.446587 angstrom
           Maximum rank =  0   Radius =  0.650 angstrom
                   Q00  =  -0.236039

C          x = -0.797563  y =  2.966396  z = -0.853587 angstrom
           Maximum rank =  0   Radius =  0.650 angstrom
                   Q00  =  -0.235773

H          x =  0.207437  y =  1.051396  z = -1.035587 angstrom
           Maximum rank =  0   Radius =  0.325 angstrom
                   Q00  =   0.079456

H          x = -0.304563  y =  1.454396  z =  0.606413 angstrom
           Maximum rank =  0   Radius =  0.325 angstrom
                   Q00  =   0.077828

H          x = -1.506563  y =  0.943396  z = -0.587587 angstrom
           Maximum rank =  0   Radius =  0.325 angstrom
                   Q00  =   0.077147

H          x = -1.536563  y =  3.382396  z = -0.168587 angstrom
           Maximum rank =  0   Radius =  0.325 angstrom
                   Q00  =   0.077093

H          x = -1.209553  y =  3.010356  z = -1.872577 angstrom
           Maximum rank =  0   Radius =  0.325 angstrom
                   Q00  =   0.079936

H          x =  0.139017  y =  3.534956  z = -0.755827 angstrom
           Maximum rank =  0   Radius =  0.325 angstrom
                   Q00  =   0.081919

C          x =  0.947437  y = -1.897604  z =  0.016413 angstrom
           Maximum rank =  0   Radius =  0.650 angstrom
                   Q00  =  -0.232238

C          x =  0.436437  y = -2.575604  z =  1.280413 angstrom
           Maximum rank =  0   Radius =  0.650 angstrom
                   Q00  =  -0.238012

H          x =  1.767437  y = -1.221604  z =  0.260413 angstrom
           Maximum rank =  0   Radius =  0.325 angstrom
                   Q00  =   0.077222

H          x =  1.311437  y = -2.651604  z = -0.683587 angstrom
           Maximum rank =  0   Radius =  0.325 angstrom
                   Q00  =   0.075736

H          x =  0.143437  y = -1.333604  z = -0.457587 angstrom
           Maximum rank =  0   Radius =  0.325 angstrom
                   Q00  =   0.082649

H          x =  1.240437  y = -3.192604  z =  1.680413 angstrom
           Maximum rank =  0   Radius =  0.325 angstrom
                   Q00  =   0.077536

H          x =  0.153617  y = -1.805894  z =  2.013603 angstrom
           Maximum rank =  0   Radius =  0.325 angstrom
                   Q00  =   0.077451

H          x = -0.426403  y = -3.214264  z =  1.040373 angstrom
           Maximum rank =  0   Radius =  0.325 angstrom
                   Q00  =   0.078090

Total multipoles referred to origin at
           x =   0.000000,  y =    0.000000,  z =    0.000000 angstrom
                   Q00  =  -0.000000

Finished at 23:28:5 on 27 Apr 2020

  DMA results are available in the Python driver through the
	  variable('DMA DISTRIBUTED MULTIPOLES')
  and
	  variable('DMA TOTAL MULTIPOLES')
  commands.

    Psi4 stopped on: Monday, 27 April 2020 11:28PM
    Psi4 wall time for execution: 0:00:12.71

*** Psi4 exiting successfully. Buy a developer a beer!
