                               Psi4 1.3.2 release

  ==> Input File <==

--------------------------------------------------------------------------
import numpy as np
set {scf_type pk
basis cc-pvdz
d_convergence 10
gdma_switch   0
gdma_limit    0
gdma_origin   [ 0.0,  0.0,  0.0 ]
}
molecule test {
    units Angstrom
    0 1
    --
    0 1
    C                3.615099926023529     0.970928782610309    -1.187282182935215
    C                2.698099926023529     1.475928782610309    -2.302282182935215
    H                3.260099926023529     1.309928782610309    -0.215282182935215
    H                3.635099926023529    -0.117071217389691    -1.152282182935215
    H                4.630099926023529     1.341928782610309    -1.340282182935215
    H                1.687099926023529     1.099928782610309    -2.148282182935215
    H                3.065056926023529     1.123333782610309    -3.277484182935215
    H                2.649290926023529     2.574838782610310    -2.304435182935215
    C                0.705099926023529    -1.321071217389691    -0.325282182935215
    C                0.257099926023529    -2.656071217389691    -0.941282182935215
    C               -0.395900073976471    -0.507071217389691     0.308717817064785
    C               -1.617900073976471    -1.080071217389691     0.669717817064785
    C               -0.183900073976471     0.845928782610309     0.571717817064785
    C               -2.614900073976471    -0.303071217389691     1.261717817064785
    C               -1.177900073976471     1.623928782610310     1.158717817064785
    C               -2.393900073976471     1.047928782610309     1.506717817064785
    H                1.454099926023529    -1.526071217389690     0.441717817064785
    H                1.180099926023529    -0.722071217389691    -1.092282182935215
    H               -0.155900073976471    -3.271071217389691    -0.143282182935215
    H               -1.821900073976471    -2.129071217389691     0.525717817064785
    H                0.766099926023529     1.295928782610309     0.324717817064785
    H               -3.559900073976471    -0.745071217389691     1.540717817064785
    H               -1.000900073976471     2.672928782610310     1.353717817064785
    H               -3.167900073976471     1.648928782610309     1.965717817064785
    H                1.128856926023529    -3.164722217389691    -1.378677182935215
    H               -0.544722073976471    -2.550985217389691    -1.686962182935215

}
e, wfn = energy('scf', return_wfn=True)
gdma(wfn)
dmavals = variable('DMA DISTRIBUTED MULTIPOLES')
charges = np.array(dmavals)
print(charges)
np.save('SSI-056ILE-059PHE-2-dimer.npy', np.array(charges))--------------------------------------------------------------------------

*** tstart() called on ds3
*** at Tue Apr 28 03:16:47 2020

   => Loading Basis Set <=

    Name: CC-PVDZ
    Role: ORBITAL
    Keyword: BASIS
    atoms 1-2, 9-16  entry C          line   138 file /theoryfs2/ds/metcalf/miniconda2/envs/tf2gpu/share/psi4/basis/cc-pvdz.gbs
    atoms 3-8, 17-26 entry H          line    22 file /theoryfs2/ds/metcalf/miniconda2/envs/tf2gpu/share/psi4/basis/cc-pvdz.gbs

         ---------------------------------------------------------
                                   SCF
               by Justin Turney, Rob Parrish, Andy Simmonett
                          and Daniel G. A. Smith
                              RHF Reference
                        1 Threads,    500 MiB Core
         ---------------------------------------------------------

  ==> Geometry <==

    Molecular point group: c1
    Full point group: C1

    Geometry (in Angstrom), charge = 0, multiplicity = 1:

       Center              X                  Y                   Z               Mass
    ------------   -----------------  -----------------  -----------------  -----------------
         C            3.615099926024     0.970928782610    -1.187282182935    12.000000000000
         C            2.698099926024     1.475928782610    -2.302282182935    12.000000000000
         H            3.260099926024     1.309928782610    -0.215282182935     1.007825032230
         H            3.635099926024    -0.117071217390    -1.152282182935     1.007825032230
         H            4.630099926024     1.341928782610    -1.340282182935     1.007825032230
         H            1.687099926024     1.099928782610    -2.148282182935     1.007825032230
         H            3.065056926024     1.123333782610    -3.277484182935     1.007825032230
         H            2.649290926024     2.574838782610    -2.304435182935     1.007825032230
         C            0.705099926024    -1.321071217390    -0.325282182935    12.000000000000
         C            0.257099926024    -2.656071217390    -0.941282182935    12.000000000000
         C           -0.395900073976    -0.507071217390     0.308717817065    12.000000000000
         C           -1.617900073976    -1.080071217390     0.669717817065    12.000000000000
         C           -0.183900073976     0.845928782610     0.571717817065    12.000000000000
         C           -2.614900073976    -0.303071217390     1.261717817065    12.000000000000
         C           -1.177900073976     1.623928782610     1.158717817065    12.000000000000
         C           -2.393900073976     1.047928782610     1.506717817065    12.000000000000
         H            1.454099926024    -1.526071217390     0.441717817065     1.007825032230
         H            1.180099926024    -0.722071217390    -1.092282182935     1.007825032230
         H           -0.155900073976    -3.271071217390    -0.143282182935     1.007825032230
         H           -1.821900073976    -2.129071217390     0.525717817065     1.007825032230
         H            0.766099926024     1.295928782610     0.324717817065     1.007825032230
         H           -3.559900073976    -0.745071217390     1.540717817065     1.007825032230
         H           -1.000900073976     2.672928782610     1.353717817065     1.007825032230
         H           -3.167900073976     1.648928782610     1.965717817065     1.007825032230
         H            1.128856926024    -3.164722217390    -1.378677182935     1.007825032230
         H           -0.544722073976    -2.550985217390    -1.686962182935     1.007825032230

  Running in c1 symmetry.

  Rotational constants: A =      0.05517  B =      0.02242  C =      0.01686 [cm^-1]
  Rotational constants: A =   1653.83983  B =    672.07503  C =    505.49725 [MHz]
  Nuclear repulsion =  492.795407129649448

  Charge       = 0
  Multiplicity = 1
  Electrons    = 76
  Nalpha       = 38
  Nbeta        = 38

  ==> Algorithm <==

  SCF Algorithm Type is PK.
  DIIS enabled.
  MOM disabled.
  Fractional occupation disabled.
  Guess Type is SAD.
  Energy threshold   = 1.00e-06
  Density threshold  = 1.00e-10
  Integral threshold = 0.00e+00

  ==> Primary Basis <==

  Basis Set: CC-PVDZ
    Blend: CC-PVDZ
    Number of shells: 108
    Number of basis function: 220
    Number of Cartesian functions: 230
    Spherical Harmonics?: true
    Max angular momentum: 2

  ==> Pre-Iterations <==

   -------------------------------------------------------
    Irrep   Nso     Nmo     Nalpha   Nbeta   Ndocc  Nsocc
   -------------------------------------------------------
     A        220     220       0       0       0       0
   -------------------------------------------------------
    Total     220     220      38      38      38       0
   -------------------------------------------------------

  ==> Integral Setup <==

  Using integral reordering PK algorithm.
  Sizing the integral batches needed.
  Building batch lookup table.
   Calculation information:
      Number of atoms:                  26
      Number of AO shells:             108
      Number of primitives:            300
      Number of atomic orbitals:       230
      Number of basis functions:       220

      Integral cutoff                 1.00e-12
      Number of threads:                 1

	Batch   1 pq = [       0,    9405] index = [             0,44231715] size =     44231715
	Batch   2 pq = [    9405,   13301] index = [      44231715,88464951] size =     44233236
	Batch   3 pq = [   13301,   16290] index = [      88464951,132690195] size =     44225244
	Batch   4 pq = [   16290,   18810] index = [     132690195,176917455] size =     44227260
	Batch   5 pq = [   18810,   21030] index = [     176917455,221140965] size =     44223510
	Batch   6 pq = [   21030,   23037] index = [     221140965,265363203] size =     44222238
	Batch   7 pq = [   23037,   24310] index = [     265363203,295500205] size =     30137002
  Task number: 27
  Buffer size: 11059200
  Buffer per thread: 2
  We computed 15703191 shell quartets total.
  Whereas there are 17325441 unique shell quartets.

  ==> DiskJK: Disk-Based J/K Matrices <==

    J tasked:                  Yes
    K tasked:                  Yes
    wK tasked:                  No
    Memory [MiB]:              375
    Schwarz Cutoff:          1E-12

    OpenMP threads:              1

  Minimum eigenvalue in the overlap matrix is 2.9339016540E-04.
  Using Symmetric Orthogonalization.

  SCF Guess: Superposition of Atomic Densities via on-the-fly atomic UHF.

  ==> Iterations <==

                        Total Energy        Delta E     RMS |[F,P]|

   @RHF iter SAD:  -386.90707356189404   -3.86907e+02   0.00000e+00
   @RHF iter   1:  -387.77446479052503   -8.67391e-01   2.71568e-03 DIIS
   @RHF iter   2:  -387.99041384321595   -2.15949e-01   1.11682e-03 DIIS
   @RHF iter   3:  -388.02360330193778   -3.31895e-02   2.45167e-04 DIIS
   @RHF iter   4:  -388.02646001546600   -2.85671e-03   4.75374e-05 DIIS
   @RHF iter   5:  -388.02653416565136   -7.41502e-05   1.94610e-05 DIIS
   @RHF iter   6:  -388.02654563472902   -1.14691e-05   3.91656e-06 DIIS
   @RHF iter   7:  -388.02654624316818   -6.08439e-07   1.21873e-06 DIIS
   @RHF iter   8:  -388.02654630203028   -5.88621e-08   3.06891e-07 DIIS
   @RHF iter   9:  -388.02654630971540   -7.68512e-09   1.28281e-07 DIIS
   @RHF iter  10:  -388.02654631122675   -1.51135e-09   6.27763e-08 DIIS
   @RHF iter  11:  -388.02654631175187   -5.25120e-10   2.46969e-08 DIIS
   @RHF iter  12:  -388.02654631185032   -9.84528e-11   1.17758e-08 DIIS
   @RHF iter  13:  -388.02654631186675   -1.64277e-11   4.10722e-09 DIIS
   @RHF iter  14:  -388.02654631186653    2.27374e-13   1.05108e-09 DIIS
   @RHF iter  15:  -388.02654631187033   -3.80851e-12   3.87915e-10 DIIS
   @RHF iter  16:  -388.02654631186846    1.87583e-12   1.48183e-10 DIIS
   @RHF iter  17:  -388.02654631186834    1.13687e-13   7.03742e-11 DIIS
  Energy and wave function converged.

  ==> Post-Iterations <==

    Orbital Energies [Eh]
    ---------------------

    Doubly Occupied:

       1A    -11.238862     2A    -11.234293     3A    -11.233817
       4A    -11.229394     5A    -11.229331     6A    -11.229198
       7A    -11.228906     8A    -11.224704     9A    -11.222187
      10A    -11.220400    11A     -1.152323    12A     -1.062063
      13A     -1.021041    14A     -1.010491    15A     -0.979939
      16A     -0.868152    17A     -0.841623    18A     -0.820439
      19A     -0.783274    20A     -0.692892    21A     -0.636085
      22A     -0.624742    23A     -0.611958    24A     -0.599612
      25A     -0.598006    26A     -0.591363    27A     -0.576331
      28A     -0.526272    29A     -0.515767    30A     -0.507801
      31A     -0.506009    32A     -0.489821    33A     -0.487388
      34A     -0.480465    35A     -0.472535    36A     -0.469083
      37A     -0.330605    38A     -0.320447

    Virtual:

      39A      0.135430    40A      0.143402    41A      0.172245
      42A      0.194798    43A      0.195998    44A      0.221619
      45A      0.229263    46A      0.231294    47A      0.246579
      48A      0.257151    49A      0.259040    50A      0.264728
      51A      0.270045    52A      0.283988    53A      0.287848
      54A      0.315115    55A      0.352262    56A      0.357908
      57A      0.365133    58A      0.379636    59A      0.396383
      60A      0.420537    61A      0.453923    62A      0.468848
      63A      0.477944    64A      0.510297    65A      0.553186
      66A      0.594263    67A      0.600922    68A      0.606618
      69A      0.612354    70A      0.631445    71A      0.647363
      72A      0.676593    73A      0.692029    74A      0.701206
      75A      0.719150    76A      0.724784    77A      0.737711
      78A      0.740732    79A      0.746362    80A      0.749682
      81A      0.757261    82A      0.766132    83A      0.777244
      84A      0.810294    85A      0.833114    86A      0.844168
      87A      0.852044    88A      0.858025    89A      0.871655
      90A      0.878939    91A      0.883952    92A      0.887219
      93A      0.888905    94A      0.900779    95A      0.907782
      96A      0.908333    97A      0.915982    98A      0.926577
      99A      0.932317   100A      0.946238   101A      0.965755
     102A      0.982489   103A      0.992453   104A      1.006611
     105A      1.023895   106A      1.045036   107A      1.061280
     108A      1.102448   109A      1.121297   110A      1.128210
     111A      1.144289   112A      1.157965   113A      1.174625
     114A      1.185827   115A      1.190865   116A      1.236103
     117A      1.240555   118A      1.249608   119A      1.259008
     120A      1.284327   121A      1.288640   122A      1.312211
     123A      1.324895   124A      1.329617   125A      1.376601
     126A      1.432493   127A      1.466077   128A      1.475274
     129A      1.481837   130A      1.532160   131A      1.552579
     132A      1.556608   133A      1.592010   134A      1.617246
     135A      1.677688   136A      1.687460   137A      1.698016
     138A      1.708723   139A      1.741554   140A      1.758355
     141A      1.765522   142A      1.776225   143A      1.812808
     144A      1.820268   145A      1.842909   146A      1.868696
     147A      1.875635   148A      1.887518   149A      1.894699
     150A      1.897763   151A      1.903700   152A      1.914563
     153A      1.926603   154A      1.933093   155A      1.942589
     156A      1.946551   157A      1.952270   158A      1.953508
     159A      1.960698   160A      1.968453   161A      1.979604
     162A      1.984860   163A      1.997273   164A      2.002754
     165A      2.019837   166A      2.036422   167A      2.059891
     168A      2.071557   169A      2.086788   170A      2.103398
     171A      2.112586   172A      2.126044   173A      2.133841
     174A      2.161369   175A      2.168240   176A      2.179926
     177A      2.192667   178A      2.207792   179A      2.221775
     180A      2.243461   181A      2.277276   182A      2.297332
     183A      2.309278   184A      2.321358   185A      2.325719
     186A      2.360542   187A      2.399890   188A      2.409406
     189A      2.449988   190A      2.454871   191A      2.490883
     192A      2.499219   193A      2.537607   194A      2.550954
     195A      2.571379   196A      2.576512   197A      2.603269
     198A      2.648390   199A      2.737724   200A      2.745668
     201A      2.764884   202A      2.770453   203A      2.782725
     204A      2.798394   205A      2.810158   206A      2.841583
     207A      2.860220   208A      2.871763   209A      2.880656
     210A      2.935702   211A      2.954413   212A      2.967241
     213A      2.989815   214A      3.000098   215A      3.045539
     216A      3.057800   217A      3.181870   218A      3.208162
     219A      3.305593   220A      3.968861

    Final Occupation by Irrep:
              A
    DOCC [    38 ]

  @RHF Final Energy:  -388.02654631186834

   => Energetics <=

    Nuclear Repulsion Energy =            492.7954071296494476
    One-Electron Energy =               -1499.9086695381561185
    Two-Electron Energy =                 619.0867160966382698
    Total Energy =                       -388.0265463118684011

Computation Completed

Properties will be evaluated at   0.000000,   0.000000,   0.000000 [a0]

Properties computed using the SCF density matrix

  Nuclear Dipole Moment: [e a0]
     X:    12.3790      Y:    -1.0860      Z:    -8.0500

  Electronic Dipole Moment: [e a0]
     X:   -12.2521      Y:     1.0081      Z:     8.0087

  Dipole Moment: [e a0]
     X:     0.1268      Y:    -0.0779      Z:    -0.0413     Total:     0.1545

  Dipole Moment: [D]
     X:     0.3224      Y:    -0.1980      Z:    -0.1050     Total:     0.3926

*** tstop() called on ds3 at Tue Apr 28 03:19:38 2020
Module time:
	user time   =     109.62 seconds =       1.83 minutes
	system time =      44.55 seconds =       0.74 minutes
	total time  =        171 seconds =       2.85 minutes
Total time:
	user time   =     109.62 seconds =       1.83 minutes
	system time =      44.55 seconds =       0.74 minutes
	total time  =        171 seconds =       2.85 minutes
                                     G D M A

                                 by Anthony Stone

                           version 2.2.06, 22 June 2011

               Distributed Multipoles from Gaussian wavefunctions

Starting at 3:19:38 on 28 Apr 2020

Using SCF density matrix from file ./SSI/SSI-056ILE-059PHE-2-dimer.test.4729.fchk

                         Distributed Multipole Analysis

Standard DMA

Positions and radii in angstrom
Multipole moments in atomic units, ea_0^k for rank k

C          x =  3.615100  y =  0.970929  z = -1.187282 angstrom
           Maximum rank =  0   Radius =  0.650 angstrom
                   Q00  =  -0.250867

C          x =  2.698100  y =  1.475929  z = -2.302282 angstrom
           Maximum rank =  0   Radius =  0.650 angstrom
                   Q00  =  -0.229683

H          x =  3.260100  y =  1.309929  z = -0.215282 angstrom
           Maximum rank =  0   Radius =  0.325 angstrom
                   Q00  =   0.077039

H          x =  3.635100  y = -0.117071  z = -1.152282 angstrom
           Maximum rank =  0   Radius =  0.325 angstrom
                   Q00  =   0.080689

H          x =  4.630100  y =  1.341929  z = -1.340282 angstrom
           Maximum rank =  0   Radius =  0.325 angstrom
                   Q00  =   0.083341

H          x =  1.687100  y =  1.099929  z = -2.148282 angstrom
           Maximum rank =  0   Radius =  0.325 angstrom
                   Q00  =   0.079077

H          x =  3.065057  y =  1.123334  z = -3.277484 angstrom
           Maximum rank =  0   Radius =  0.325 angstrom
                   Q00  =   0.081095

H          x =  2.649291  y =  2.574839  z = -2.304435 angstrom
           Maximum rank =  0   Radius =  0.325 angstrom
                   Q00  =   0.081620

C          x =  0.705100  y = -1.321071  z = -0.325282 angstrom
           Maximum rank =  0   Radius =  0.650 angstrom
                   Q00  =  -0.058602

C          x =  0.257100  y = -2.656071  z = -0.941282 angstrom
           Maximum rank =  0   Radius =  0.650 angstrom
                   Q00  =  -0.252817

C          x = -0.395900  y = -0.507071  z =  0.308718 angstrom
           Maximum rank =  0   Radius =  0.650 angstrom
                   Q00  =  -0.094953

C          x = -1.617900  y = -1.080071  z =  0.669718 angstrom
           Maximum rank =  0   Radius =  0.650 angstrom
                   Q00  =  -0.112960

C          x = -0.183900  y =  0.845929  z =  0.571718 angstrom
           Maximum rank =  0   Radius =  0.650 angstrom
                   Q00  =   0.011644

C          x = -2.614900  y = -0.303071  z =  1.261718 angstrom
           Maximum rank =  0   Radius =  0.650 angstrom
                   Q00  =  -0.053987

C          x = -1.177900  y =  1.623929  z =  1.158718 angstrom
           Maximum rank =  0   Radius =  0.650 angstrom
                   Q00  =  -0.075513

C          x = -2.393900  y =  1.047929  z =  1.506718 angstrom
           Maximum rank =  0   Radius =  0.650 angstrom
                   Q00  =  -0.081121

H          x =  1.454100  y = -1.526071  z =  0.441718 angstrom
           Maximum rank =  0   Radius =  0.325 angstrom
                   Q00  =   0.083726

H          x =  1.180100  y = -0.722071  z = -1.092282 angstrom
           Maximum rank =  0   Radius =  0.325 angstrom
                   Q00  =   0.069641

H          x = -0.155900  y = -3.271071  z = -0.143282 angstrom
           Maximum rank =  0   Radius =  0.325 angstrom
                   Q00  =   0.082595

H          x = -1.821900  y = -2.129071  z =  0.525718 angstrom
           Maximum rank =  0   Radius =  0.325 angstrom
                   Q00  =   0.057260

H          x =  0.766100  y =  1.295929  z =  0.324718 angstrom
           Maximum rank =  0   Radius =  0.325 angstrom
                   Q00  =   0.055232

H          x = -3.559900  y = -0.745071  z =  1.540718 angstrom
           Maximum rank =  0   Radius =  0.325 angstrom
                   Q00  =   0.064891

H          x = -1.000900  y =  2.672929  z =  1.353718 angstrom
           Maximum rank =  0   Radius =  0.325 angstrom
                   Q00  =   0.063141

H          x = -3.167900  y =  1.648929  z =  1.965718 angstrom
           Maximum rank =  0   Radius =  0.325 angstrom
                   Q00  =   0.060168

H          x =  1.128857  y = -3.164722  z = -1.378677 angstrom
           Maximum rank =  0   Radius =  0.325 angstrom
                   Q00  =   0.092985

H          x = -0.544722  y = -2.550985  z = -1.686962 angstrom
           Maximum rank =  0   Radius =  0.325 angstrom
                   Q00  =   0.086358

Total multipoles referred to origin at
           x =   0.000000,  y =    0.000000,  z =    0.000000 angstrom
                   Q00  =  -0.000000

Finished at 3:19:38 on 28 Apr 2020

  DMA results are available in the Python driver through the
	  variable('DMA DISTRIBUTED MULTIPOLES')
  and
	  variable('DMA TOTAL MULTIPOLES')
  commands.

    Psi4 stopped on: Tuesday, 28 April 2020 03:19AM
    Psi4 wall time for execution: 0:02:51.43

*** Psi4 exiting successfully. Buy a developer a beer!
