                               Psi4 1.3.2 release

  ==> Input File <==

--------------------------------------------------------------------------
import numpy as np
set {scf_type pk
basis cc-pvdz
d_convergence 10
gdma_switch   0
gdma_limit    0
gdma_origin   [ 0.0,  0.0,  0.0 ]
}
molecule test {
    units Angstrom
    0 1
    --
    0 1
    C               -2.849732710394384    -0.993723514637455     0.316955610871119
    C                0.935267289605616    -0.735723514637455     0.473955610871119
    C               -0.350732710394384    -1.096723514637455     0.072955610871119
    C                1.110267289605616     0.112276485362545     1.565955610871119
    C               -1.466732710394384    -0.615723514637455     0.760955610871119
    C                0.001267289605616     0.607276485362545     2.248955610871119
    C               -1.284732710394384     0.241276485362545     1.845955610871119
    H                1.796267289605616    -1.097723514637455    -0.065044389128881
    H               -0.479732710394384    -1.751723514637455    -0.778044389128881
    H                2.107267289605616     0.380276485362545     1.885955610871119
    H                0.138267289605616     1.267276485362545     3.095955610871119
    H               -3.564732710394384    -0.772723514637455     1.111955610871119
    H               -2.860732710394384    -2.071723514637455     0.150955610871119
    H               -2.140732710394384     0.627276485362545     2.382955610871119
    H               -3.164462710394384    -0.482823514637455    -0.604960389128881
    C                1.826267289605616     1.442276485362545    -2.456044389128881
    C                1.837267289605616     0.798276485362545    -3.845044389128881
    H                2.654267289605616     1.063276485362545    -1.857044389128881
    H                1.944267289605616     2.520276485362545    -2.554044389128881
    H                0.891267289605616     1.227276485362545    -1.942044389128881
    H                2.821267289605616     0.958276485362545    -4.287044389128882
    H                1.644233289605616    -0.282003514637455    -3.769260389128881
    H                1.089912289605616     1.278516485362545    -4.493760389128880

}
e, wfn = energy('scf', return_wfn=True)
gdma(wfn)
dmavals = variable('DMA DISTRIBUTED MULTIPOLES')
charges = np.array(dmavals)
print(charges)
np.save('SSI-092PHE-131VAL-1-dimer.npy', np.array(charges))--------------------------------------------------------------------------

*** tstart() called on ds3
*** at Mon Apr 27 04:24:57 2020

   => Loading Basis Set <=

    Name: CC-PVDZ
    Role: ORBITAL
    Keyword: BASIS
    atoms 1-7, 16-17  entry C          line   138 file /theoryfs2/ds/metcalf/miniconda2/envs/tf2gpu/share/psi4/basis/cc-pvdz.gbs
    atoms 8-15, 18-23 entry H          line    22 file /theoryfs2/ds/metcalf/miniconda2/envs/tf2gpu/share/psi4/basis/cc-pvdz.gbs

         ---------------------------------------------------------
                                   SCF
               by Justin Turney, Rob Parrish, Andy Simmonett
                          and Daniel G. A. Smith
                              RHF Reference
                        1 Threads,    500 MiB Core
         ---------------------------------------------------------

  ==> Geometry <==

    Molecular point group: c1
    Full point group: C1

    Geometry (in Angstrom), charge = 0, multiplicity = 1:

       Center              X                  Y                   Z               Mass
    ------------   -----------------  -----------------  -----------------  -----------------
         C           -2.849732710394    -0.993723514637     0.316955610871    12.000000000000
         C            0.935267289606    -0.735723514637     0.473955610871    12.000000000000
         C           -0.350732710394    -1.096723514637     0.072955610871    12.000000000000
         C            1.110267289606     0.112276485363     1.565955610871    12.000000000000
         C           -1.466732710394    -0.615723514637     0.760955610871    12.000000000000
         C            0.001267289606     0.607276485363     2.248955610871    12.000000000000
         C           -1.284732710394     0.241276485363     1.845955610871    12.000000000000
         H            1.796267289606    -1.097723514637    -0.065044389129     1.007825032230
         H           -0.479732710394    -1.751723514637    -0.778044389129     1.007825032230
         H            2.107267289606     0.380276485363     1.885955610871     1.007825032230
         H            0.138267289606     1.267276485363     3.095955610871     1.007825032230
         H           -3.564732710394    -0.772723514637     1.111955610871     1.007825032230
         H           -2.860732710394    -2.071723514637     0.150955610871     1.007825032230
         H           -2.140732710394     0.627276485363     2.382955610871     1.007825032230
         H           -3.164462710394    -0.482823514637    -0.604960389129     1.007825032230
         C            1.826267289606     1.442276485363    -2.456044389129    12.000000000000
         C            1.837267289606     0.798276485363    -3.845044389129    12.000000000000
         H            2.654267289606     1.063276485363    -1.857044389129     1.007825032230
         H            1.944267289606     2.520276485363    -2.554044389129     1.007825032230
         H            0.891267289606     1.227276485363    -1.942044389129     1.007825032230
         H            2.821267289606     0.958276485363    -4.287044389129     1.007825032230
         H            1.644233289606    -0.282003514637    -3.769260389129     1.007825032230
         H            1.089912289606     1.278516485363    -4.493760389129     1.007825032230

  Running in c1 symmetry.

  Rotational constants: A =      0.06813  B =      0.02401  C =      0.02000 [cm^-1]
  Rotational constants: A =   2042.60591  B =    719.79461  C =    599.44315 [MHz]
  Nuclear repulsion =  403.412787600567469

  Charge       = 0
  Multiplicity = 1
  Electrons    = 68
  Nalpha       = 34
  Nbeta        = 34

  ==> Algorithm <==

  SCF Algorithm Type is PK.
  DIIS enabled.
  MOM disabled.
  Fractional occupation disabled.
  Guess Type is SAD.
  Energy threshold   = 1.00e-06
  Density threshold  = 1.00e-10
  Integral threshold = 0.00e+00

  ==> Primary Basis <==

  Basis Set: CC-PVDZ
    Blend: CC-PVDZ
    Number of shells: 96
    Number of basis function: 196
    Number of Cartesian functions: 205
    Spherical Harmonics?: true
    Max angular momentum: 2

  ==> Pre-Iterations <==

   -------------------------------------------------------
    Irrep   Nso     Nmo     Nalpha   Nbeta   Ndocc  Nsocc
   -------------------------------------------------------
     A        196     196       0       0       0       0
   -------------------------------------------------------
    Total     196     196      34      34      34       0
   -------------------------------------------------------

  ==> Integral Setup <==

  Using integral reordering PK algorithm.
  Sizing the integral batches needed.
  Building batch lookup table.
   Calculation information:
      Number of atoms:                  23
      Number of AO shells:              96
      Number of primitives:            268
      Number of atomic orbitals:       205
      Number of basis functions:       196

      Integral cutoff                 1.00e-12
      Number of threads:                 1

	Batch   1 pq = [       0,    9405] index = [             0,44231715] size =     44231715
	Batch   2 pq = [    9405,   13301] index = [      44231715,88464951] size =     44233236
	Batch   3 pq = [   13301,   16290] index = [      88464951,132690195] size =     44225244
	Batch   4 pq = [   16290,   18810] index = [     132690195,176917455] size =     44227260
	Batch   5 pq = [   18810,   19306] index = [     176917455,186370471] size =      9453016
  Task number: 17
  Buffer size: 11059200
  Buffer per thread: 2
  We computed 9212332 shell quartets total.
  Whereas there are 10841496 unique shell quartets.

  ==> DiskJK: Disk-Based J/K Matrices <==

    J tasked:                  Yes
    K tasked:                  Yes
    wK tasked:                  No
    Memory [MiB]:              375
    Schwarz Cutoff:          1E-12

    OpenMP threads:              1

  Minimum eigenvalue in the overlap matrix is 3.1657264003E-04.
  Using Symmetric Orthogonalization.

  SCF Guess: Superposition of Atomic Densities via on-the-fly atomic UHF.

  ==> Iterations <==

                        Total Energy        Delta E     RMS |[F,P]|

   @RHF iter SAD:  -347.83322473515329   -3.47833e+02   0.00000e+00
   @RHF iter   1:  -348.76888259423674   -9.35658e-01   2.89000e-03 DIIS
   @RHF iter   2:  -348.96112149176747   -1.92239e-01   1.19671e-03 DIIS
   @RHF iter   3:  -348.99110691163514   -2.99854e-02   2.57591e-04 DIIS
   @RHF iter   4:  -348.99356295882956   -2.45605e-03   5.46192e-05 DIIS
   @RHF iter   5:  -348.99363939950030   -7.64407e-05   1.86642e-05 DIIS
   @RHF iter   6:  -348.99364787253842   -8.47304e-06   4.88436e-06 DIIS
   @RHF iter   7:  -348.99364855964933   -6.87111e-07   1.22901e-06 DIIS
   @RHF iter   8:  -348.99364861238212   -5.27328e-08   3.19228e-07 DIIS
   @RHF iter   9:  -348.99364861972117   -7.33905e-09   1.36506e-07 DIIS
   @RHF iter  10:  -348.99364862152947   -1.80830e-09   6.72065e-08 DIIS
   @RHF iter  11:  -348.99364862213349   -6.04018e-10   2.38897e-08 DIIS
   @RHF iter  12:  -348.99364862220563   -7.21343e-11   9.50242e-09 DIIS
   @RHF iter  13:  -348.99364862221353   -7.90124e-12   4.01853e-09 DIIS
   @RHF iter  14:  -348.99364862221557   -2.04636e-12   1.03976e-09 DIIS
   @RHF iter  15:  -348.99364862221341    2.16005e-12   3.85759e-10 DIIS
   @RHF iter  16:  -348.99364862221421   -7.95808e-13   1.57448e-10 DIIS
   @RHF iter  17:  -348.99364862221358    6.25278e-13   6.76103e-11 DIIS
  Energy and wave function converged.

  ==> Post-Iterations <==

    Orbital Energies [Eh]
    ---------------------

    Doubly Occupied:

       1A    -11.240841     2A    -11.236237     3A    -11.236022
       4A    -11.231175     5A    -11.231074     6A    -11.230918
       7A    -11.229201     8A    -11.216763     9A    -11.210770
      10A     -1.151458    11A     -1.044419    12A     -1.013757
      13A     -1.010620    14A     -0.930485    15A     -0.832681
      16A     -0.824790    17A     -0.794378    18A     -0.689980
      19A     -0.631768    20A     -0.629832    21A     -0.595149
      22A     -0.592691    23A     -0.582432    24A     -0.577449
      25A     -0.561683    26A     -0.535067    27A     -0.496073
      28A     -0.488072    29A     -0.485318    30A     -0.481953
      31A     -0.480942    32A     -0.478866    33A     -0.331442
      34A     -0.321266

    Virtual:

      35A      0.133632    36A      0.141416    37A      0.170034
      38A      0.193878    39A      0.202688    40A      0.220991
      41A      0.230422    42A      0.245353    43A      0.253229
      44A      0.260528    45A      0.265558    46A      0.271443
      47A      0.283584    48A      0.287589    49A      0.299431
      50A      0.316355    51A      0.365922    52A      0.376652
      53A      0.398142    54A      0.451697    55A      0.462231
      56A      0.474870    57A      0.496519    58A      0.564504
      59A      0.582998    60A      0.599247    61A      0.604604
      62A      0.614501    63A      0.632254    64A      0.658118
      65A      0.680807    66A      0.684087    67A      0.690753
      68A      0.706781    69A      0.720833    70A      0.739131
      71A      0.743301    72A      0.749120    73A      0.758724
      74A      0.773360    75A      0.784227    76A      0.800296
      77A      0.836792    78A      0.858275    79A      0.861910
      80A      0.865190    81A      0.874384    82A      0.886464
      83A      0.890481    84A      0.895726    85A      0.900625
      86A      0.901397    87A      0.913147    88A      0.922560
      89A      0.926349    90A      0.932568    91A      0.939908
      92A      0.956038    93A      0.985746    94A      1.001033
      95A      1.015340    96A      1.052236    97A      1.118887
      98A      1.128825    99A      1.131394   100A      1.135047
     101A      1.154041   102A      1.159948   103A      1.193549
     104A      1.226306   105A      1.237687   106A      1.249678
     107A      1.253783   108A      1.264667   109A      1.296814
     110A      1.307463   111A      1.318797   112A      1.324081
     113A      1.413583   114A      1.480908   115A      1.483372
     116A      1.505814   117A      1.520608   118A      1.557666
     119A      1.573830   120A      1.603335   121A      1.677312
     122A      1.683038   123A      1.691332   124A      1.701066
     125A      1.735555   126A      1.743161   127A      1.767099
     128A      1.793018   129A      1.814677   130A      1.852185
     131A      1.867911   132A      1.877014   133A      1.883653
     134A      1.896836   135A      1.903187   136A      1.909405
     137A      1.916260   138A      1.926235   139A      1.937662
     140A      1.946091   141A      1.950787   142A      1.952620
     143A      1.960902   144A      1.965293   145A      1.968402
     146A      1.984174   147A      1.987189   148A      1.999984
     149A      2.040202   150A      2.048837   151A      2.076126
     152A      2.105855   153A      2.109154   154A      2.118178
     155A      2.134414   156A      2.153651   157A      2.163145
     158A      2.173366   159A      2.188508   160A      2.243432
     161A      2.274567   162A      2.287538   163A      2.296214
     164A      2.300811   165A      2.315567   166A      2.328224
     167A      2.336714   168A      2.451813   169A      2.458870
     170A      2.466935   171A      2.473545   172A      2.509953
     173A      2.534741   174A      2.566469   175A      2.578853
     176A      2.625857   177A      2.732246   178A      2.751428
     179A      2.762416   180A      2.769578   181A      2.783828
     182A      2.800039   183A      2.807117   184A      2.844868
     185A      2.852376   186A      2.857404   187A      2.867413
     188A      2.949968   189A      2.966446   190A      2.976953
     191A      3.008141   192A      3.027659   193A      3.153549
     194A      3.196199   195A      3.294532   196A      3.962772

    Final Occupation by Irrep:
              A
    DOCC [    34 ]

  @RHF Final Energy:  -348.99364862221358

   => Energetics <=

    Nuclear Repulsion Energy =            403.4127876005674693
    One-Electron Energy =               -1269.5617259421198924
    Two-Electron Energy =                 517.1552897193387253
    Total Energy =                       -348.9936486222136409

Computation Completed

Properties will be evaluated at   0.000000,   0.000000,   0.000000 [a0]

Properties computed using the SCF density matrix

  Nuclear Dipole Moment: [e a0]
     X:     2.6967      Y:     2.6847      Z:   -10.9904

  Electronic Dipole Moment: [e a0]
     X:    -2.8250      Y:    -2.7082      Z:    10.9963

  Dipole Moment: [e a0]
     X:    -0.1283      Y:    -0.0235      Z:     0.0059     Total:     0.1306

  Dipole Moment: [D]
     X:    -0.3261      Y:    -0.0598      Z:     0.0150     Total:     0.3319

*** tstop() called on ds3 at Mon Apr 27 04:29:51 2020
Module time:
	user time   =      61.82 seconds =       1.03 minutes
	system time =      24.96 seconds =       0.42 minutes
	total time  =        294 seconds =       4.90 minutes
Total time:
	user time   =      61.82 seconds =       1.03 minutes
	system time =      24.96 seconds =       0.42 minutes
	total time  =        294 seconds =       4.90 minutes
                                     G D M A

                                 by Anthony Stone

                           version 2.2.06, 22 June 2011

               Distributed Multipoles from Gaussian wavefunctions

Starting at 4:29:51 on 27 Apr 2020

Using SCF density matrix from file ./SSI/SSI-092PHE-131VAL-1-dimer.test.24530.fchk

                         Distributed Multipole Analysis

Standard DMA

Positions and radii in angstrom
Multipole moments in atomic units, ea_0^k for rank k

C          x = -2.849733  y = -0.993724  z =  0.316956 angstrom
           Maximum rank =  0   Radius =  0.650 angstrom
                   Q00  =  -0.195955

C          x =  0.935267  y = -0.735724  z =  0.473956 angstrom
           Maximum rank =  0   Radius =  0.650 angstrom
                   Q00  =  -0.073550

C          x = -0.350733  y = -1.096724  z =  0.072956 angstrom
           Maximum rank =  0   Radius =  0.650 angstrom
                   Q00  =  -0.025201

C          x =  1.110267  y =  0.112276  z =  1.565956 angstrom
           Maximum rank =  0   Radius =  0.650 angstrom
                   Q00  =  -0.081185

C          x = -1.466733  y = -0.615724  z =  0.760956 angstrom
           Maximum rank =  0   Radius =  0.650 angstrom
                   Q00  =  -0.099781

C          x =  0.001267  y =  0.607276  z =  2.248956 angstrom
           Maximum rank =  0   Radius =  0.650 angstrom
                   Q00  =  -0.077304

C          x = -1.284733  y =  0.241276  z =  1.845956 angstrom
           Maximum rank =  0   Radius =  0.650 angstrom
                   Q00  =  -0.054090

H          x =  1.796267  y = -1.097724  z = -0.065044 angstrom
           Maximum rank =  0   Radius =  0.325 angstrom
                   Q00  =   0.065826

H          x = -0.479733  y = -1.751724  z = -0.778044 angstrom
           Maximum rank =  0   Radius =  0.325 angstrom
                   Q00  =   0.055947

H          x =  2.107267  y =  0.380276  z =  1.885956 angstrom
           Maximum rank =  0   Radius =  0.325 angstrom
                   Q00  =   0.061488

H          x =  0.138267  y =  1.267276  z =  3.095956 angstrom
           Maximum rank =  0   Radius =  0.325 angstrom
                   Q00  =   0.066085

H          x = -3.564733  y = -0.772724  z =  1.111956 angstrom
           Maximum rank =  0   Radius =  0.325 angstrom
                   Q00  =   0.097255

H          x = -2.860733  y = -2.071724  z =  0.150956 angstrom
           Maximum rank =  0   Radius =  0.325 angstrom
                   Q00  =   0.097869

H          x = -2.140733  y =  0.627276  z =  2.382956 angstrom
           Maximum rank =  0   Radius =  0.325 angstrom
                   Q00  =   0.058761

H          x = -3.164463  y = -0.482824  z = -0.604960 angstrom
           Maximum rank =  0   Radius =  0.325 angstrom
                   Q00  =   0.104352

C          x =  1.826267  y =  1.442276  z = -2.456044 angstrom
           Maximum rank =  0   Radius =  0.650 angstrom
                   Q00  =  -0.230509

C          x =  1.837267  y =  0.798276  z = -3.845044 angstrom
           Maximum rank =  0   Radius =  0.650 angstrom
                   Q00  =  -0.241348

H          x =  2.654267  y =  1.063276  z = -1.857044 angstrom
           Maximum rank =  0   Radius =  0.325 angstrom
                   Q00  =   0.073783

H          x =  1.944267  y =  2.520276  z = -2.554044 angstrom
           Maximum rank =  0   Radius =  0.325 angstrom
                   Q00  =   0.076675

H          x =  0.891267  y =  1.227276  z = -1.942044 angstrom
           Maximum rank =  0   Radius =  0.325 angstrom
                   Q00  =   0.090673

H          x =  2.821267  y =  0.958276  z = -4.287044 angstrom
           Maximum rank =  0   Radius =  0.325 angstrom
                   Q00  =   0.075871

H          x =  1.644233  y = -0.282004  z = -3.769260 angstrom
           Maximum rank =  0   Radius =  0.325 angstrom
                   Q00  =   0.075772

H          x =  1.089912  y =  1.278516  z = -4.493760 angstrom
           Maximum rank =  0   Radius =  0.325 angstrom
                   Q00  =   0.078568

Total multipoles referred to origin at
           x =   0.000000,  y =    0.000000,  z =    0.000000 angstrom
                   Q00  =  -0.000000

Finished at 4:29:51 on 27 Apr 2020

  DMA results are available in the Python driver through the
	  variable('DMA DISTRIBUTED MULTIPOLES')
  and
	  variable('DMA TOTAL MULTIPOLES')
  commands.

    Psi4 stopped on: Monday, 27 April 2020 04:29AM
    Psi4 wall time for execution: 0:04:53.70

*** Psi4 exiting successfully. Buy a developer a beer!
