                               Psi4 1.3.2 release

  ==> Input File <==

--------------------------------------------------------------------------
import numpy as np
set {scf_type pk
basis cc-pvdz
d_convergence 10
gdma_switch   0
gdma_limit    0
gdma_origin   [ 0.0,  0.0,  0.0 ]
}
molecule test {
    units Angstrom
    0 1
    --
    0 1
    C               -1.094171933636754     1.725656305475931     1.741080774152867
    C               -0.252171933636754     0.202656305475931    -0.069919225847133
    C               -0.733171933636754     0.347656305475931     1.215080774152867
    C                0.093828066363246    -1.044343694524069    -0.559919225847133
    C               -0.816171933636754    -0.813343694524069     2.013080774152867
    C               -0.006171933636754    -2.187343694524069     0.204080774152867
    C               -0.459171933636754    -2.050343694524069     1.502080774152867
    O                0.358828066363246    -3.403343694524069    -0.284919225847133
    H               -0.193171933636754     1.060656305475931    -0.715919225847133
    H                0.426828066363246    -1.141343694524069    -1.581919225847133
    H               -2.180171933636754     1.828656305475931     1.720080774152867
    H               -0.671171933636754     2.486656305475931     1.085080774152867
    H               -1.181171933636754    -0.761343694524069     3.029080774152867
    H               -0.543171933636754    -2.925343694524069     2.132080774152867
    H                0.116828066363246    -4.120343694524069     0.316080774152867
    H               -0.737951933636754     1.891123305475931     2.768560774152867
    C                0.870828066363246     3.126656305475930    -1.970919225847133
    C                1.694828066363246     3.656656305475931    -3.140919225847133
    H                1.490828066363246     2.530656305475931    -1.300919225847133
    H                0.458828066363246     3.961656305475931    -1.407919225847133
    H                0.044828066363246     2.529656305475930    -2.358919225847133
    H                1.033828066363246     4.272656305475930    -3.748919225847133
    H                2.071688066363246     2.822380305475931    -3.750803225847133
    H                2.521498066363246     4.287081305475930    -2.781498225847133

}
e, wfn = energy('scf', return_wfn=True)
gdma(wfn)
dmavals = variable('DMA DISTRIBUTED MULTIPOLES')
charges = np.array(dmavals)
print(charges)
np.save('SSI-081TYR-130VAL-1-dimer.npy', np.array(charges))--------------------------------------------------------------------------

*** tstart() called on ds3
*** at Tue Apr 28 00:04:49 2020

   => Loading Basis Set <=

    Name: CC-PVDZ
    Role: ORBITAL
    Keyword: BASIS
    atoms 1-7, 17-18  entry C          line   138 file /theoryfs2/ds/metcalf/miniconda2/envs/tf2gpu/share/psi4/basis/cc-pvdz.gbs
    atoms 8           entry O          line   198 file /theoryfs2/ds/metcalf/miniconda2/envs/tf2gpu/share/psi4/basis/cc-pvdz.gbs
    atoms 9-16, 19-24 entry H          line    22 file /theoryfs2/ds/metcalf/miniconda2/envs/tf2gpu/share/psi4/basis/cc-pvdz.gbs

         ---------------------------------------------------------
                                   SCF
               by Justin Turney, Rob Parrish, Andy Simmonett
                          and Daniel G. A. Smith
                              RHF Reference
                        1 Threads,    500 MiB Core
         ---------------------------------------------------------

  ==> Geometry <==

    Molecular point group: c1
    Full point group: C1

    Geometry (in Angstrom), charge = 0, multiplicity = 1:

       Center              X                  Y                   Z               Mass
    ------------   -----------------  -----------------  -----------------  -----------------
         C           -1.094171933637     1.725656305476     1.741080774153    12.000000000000
         C           -0.252171933637     0.202656305476    -0.069919225847    12.000000000000
         C           -0.733171933637     0.347656305476     1.215080774153    12.000000000000
         C            0.093828066363    -1.044343694524    -0.559919225847    12.000000000000
         C           -0.816171933637    -0.813343694524     2.013080774153    12.000000000000
         C           -0.006171933637    -2.187343694524     0.204080774153    12.000000000000
         C           -0.459171933637    -2.050343694524     1.502080774153    12.000000000000
         O            0.358828066363    -3.403343694524    -0.284919225847    15.994914619570
         H           -0.193171933637     1.060656305476    -0.715919225847     1.007825032230
         H            0.426828066363    -1.141343694524    -1.581919225847     1.007825032230
         H           -2.180171933637     1.828656305476     1.720080774153     1.007825032230
         H           -0.671171933637     2.486656305476     1.085080774153     1.007825032230
         H           -1.181171933637    -0.761343694524     3.029080774153     1.007825032230
         H           -0.543171933637    -2.925343694524     2.132080774153     1.007825032230
         H            0.116828066363    -4.120343694524     0.316080774153     1.007825032230
         H           -0.737951933637     1.891123305476     2.768560774153     1.007825032230
         C            0.870828066363     3.126656305476    -1.970919225847    12.000000000000
         C            1.694828066363     3.656656305476    -3.140919225847    12.000000000000
         H            1.490828066363     2.530656305476    -1.300919225847     1.007825032230
         H            0.458828066363     3.961656305476    -1.407919225847     1.007825032230
         H            0.044828066363     2.529656305476    -2.358919225847     1.007825032230
         H            1.033828066363     4.272656305476    -3.748919225847     1.007825032230
         H            2.071688066363     2.822380305476    -3.750803225847     1.007825032230
         H            2.521498066363     4.287081305476    -2.781498225847     1.007825032230

  Running in c1 symmetry.

  Rotational constants: A =      0.05586  B =      0.01820  C =      0.01392 [cm^-1]
  Rotational constants: A =   1674.63464  B =    545.51017  C =    417.19135 [MHz]
  Nuclear repulsion =  484.200277855257752

  Charge       = 0
  Multiplicity = 1
  Electrons    = 76
  Nalpha       = 38
  Nbeta        = 38

  ==> Algorithm <==

  SCF Algorithm Type is PK.
  DIIS enabled.
  MOM disabled.
  Fractional occupation disabled.
  Guess Type is SAD.
  Energy threshold   = 1.00e-06
  Density threshold  = 1.00e-10
  Integral threshold = 0.00e+00

  ==> Primary Basis <==

  Basis Set: CC-PVDZ
    Blend: CC-PVDZ
    Number of shells: 102
    Number of basis function: 210
    Number of Cartesian functions: 220
    Spherical Harmonics?: true
    Max angular momentum: 2

  ==> Pre-Iterations <==

   -------------------------------------------------------
    Irrep   Nso     Nmo     Nalpha   Nbeta   Ndocc  Nsocc
   -------------------------------------------------------
     A        210     210       0       0       0       0
   -------------------------------------------------------
    Total     210     210      38      38      38       0
   -------------------------------------------------------

  ==> Integral Setup <==

  Using integral reordering PK algorithm.
  Sizing the integral batches needed.
  Building batch lookup table.
   Calculation information:
      Number of atoms:                  24
      Number of AO shells:             102
      Number of primitives:            290
      Number of atomic orbitals:       220
      Number of basis functions:       210

      Integral cutoff                 1.00e-12
      Number of threads:                 1

	Batch   1 pq = [       0,    9405] index = [             0,44231715] size =     44231715
	Batch   2 pq = [    9405,   13301] index = [      44231715,88464951] size =     44233236
	Batch   3 pq = [   13301,   16290] index = [      88464951,132690195] size =     44225244
	Batch   4 pq = [   16290,   18810] index = [     132690195,176917455] size =     44227260
	Batch   5 pq = [   18810,   21030] index = [     176917455,221140965] size =     44223510
	Batch   6 pq = [   21030,   22155] index = [     221140965,245433090] size =     24292125
  Task number: 23
  Buffer size: 11059200
  Buffer per thread: 2
  We computed 10648139 shell quartets total.
  Whereas there are 13799631 unique shell quartets.

  ==> DiskJK: Disk-Based J/K Matrices <==

    J tasked:                  Yes
    K tasked:                  Yes
    wK tasked:                  No
    Memory [MiB]:              375
    Schwarz Cutoff:          1E-12

    OpenMP threads:              1

  Minimum eigenvalue in the overlap matrix is 2.9775092156E-04.
  Using Symmetric Orthogonalization.

  SCF Guess: Superposition of Atomic Densities via on-the-fly atomic UHF.

  ==> Iterations <==

                        Total Energy        Delta E     RMS |[F,P]|

   @RHF iter SAD:  -422.76254102084465   -4.22763e+02   0.00000e+00
   @RHF iter   1:  -423.59845048954611   -8.35909e-01   2.98430e-03 DIIS
   @RHF iter   2:  -423.81650995469283   -2.18059e-01   1.24966e-03 DIIS
   @RHF iter   3:  -423.85113487024853   -3.46249e-02   2.77742e-04 DIIS
   @RHF iter   4:  -423.85398355432341   -2.84868e-03   1.08022e-04 DIIS
   @RHF iter   5:  -423.85428322884439   -2.99675e-04   2.15766e-05 DIIS
   @RHF iter   6:  -423.85430115722068   -1.79284e-05   6.25632e-06 DIIS
   @RHF iter   7:  -423.85430272279513   -1.56557e-06   1.94558e-06 DIIS
   @RHF iter   8:  -423.85430291497386   -1.92179e-07   7.21636e-07 DIIS
   @RHF iter   9:  -423.85430294222687   -2.72530e-08   2.63676e-07 DIIS
   @RHF iter  10:  -423.85430294675581   -4.52894e-09   1.02690e-07 DIIS
   @RHF iter  11:  -423.85430294792513   -1.16933e-09   4.45828e-08 DIIS
   @RHF iter  12:  -423.85430294818593   -2.60798e-10   2.42850e-08 DIIS
   @RHF iter  13:  -423.85430294825017   -6.42331e-11   7.30353e-09 DIIS
   @RHF iter  14:  -423.85430294825466   -4.49063e-12   2.03825e-09 DIIS
   @RHF iter  15:  -423.85430294825687   -2.21689e-12   7.45116e-10 DIIS
   @RHF iter  16:  -423.85430294825397    2.89901e-12   2.78409e-10 DIIS
   @RHF iter  17:  -423.85430294825773   -3.75167e-12   1.27990e-10 DIIS
   @RHF iter  18:  -423.85430294825585    1.87583e-12   6.38641e-11 DIIS
  Energy and wave function converged.

  ==> Post-Iterations <==

    Orbital Energies [Eh]
    ---------------------

    Doubly Occupied:

       1A    -20.583328     2A    -11.293720     3A    -11.237296
       4A    -11.232922     5A    -11.229711     6A    -11.229062
       7A    -11.228206     8A    -11.223499     9A    -11.220966
      10A    -11.219866    11A     -1.399191    12A     -1.151624
      13A     -1.036913    14A     -1.022750    15A     -1.015787
      16A     -0.927143    17A     -0.843373    18A     -0.837377
      19A     -0.801843    20A     -0.733472    21A     -0.665559
      22A     -0.637797    23A     -0.611131    24A     -0.602811
      25A     -0.601173    26A     -0.586481    27A     -0.580876
      28A     -0.569623    29A     -0.564667    30A     -0.527914
      31A     -0.504935    32A     -0.494291    33A     -0.489997
      34A     -0.488094    35A     -0.476413    36A     -0.467041
      37A     -0.337142    38A     -0.301323

    Virtual:

      39A      0.134697    40A      0.158134    41A      0.176823
      42A      0.180690    43A      0.193548    44A      0.214235
      45A      0.219812    46A      0.240401    47A      0.253298
      48A      0.266985    49A      0.271411    50A      0.278118
      51A      0.280826    52A      0.281867    53A      0.304375
      54A      0.337679    55A      0.378667    56A      0.382249
      57A      0.410315    58A      0.430939    59A      0.461848
      60A      0.495728    61A      0.499462    62A      0.512064
      63A      0.594687    64A      0.597868    65A      0.614257
      66A      0.625007    67A      0.653405    68A      0.658561
      69A      0.669777    70A      0.677654    71A      0.689299
      72A      0.696834    73A      0.711803    74A      0.730826
      75A      0.735360    76A      0.747418    77A      0.762073
      78A      0.774775    79A      0.783073    80A      0.788112
      81A      0.800233    82A      0.835009    83A      0.844263
      84A      0.857003    85A      0.870237    86A      0.883487
      87A      0.884901    88A      0.891523    89A      0.893527
      90A      0.901091    91A      0.901816    92A      0.904682
      93A      0.914633    94A      0.919246    95A      0.938248
      96A      0.947725    97A      0.963025    98A      0.984065
      99A      1.002297   100A      1.035245   101A      1.046185
     102A      1.073416   103A      1.122098   104A      1.141789
     105A      1.146393   106A      1.156740   107A      1.166848
     108A      1.201972   109A      1.219108   110A      1.234306
     111A      1.252546   112A      1.263547   113A      1.280573
     114A      1.290679   115A      1.295706   116A      1.318811
     117A      1.341085   118A      1.361172   119A      1.377271
     120A      1.385623   121A      1.471875   122A      1.483070
     123A      1.507511   124A      1.515406   125A      1.534417
     126A      1.573169   127A      1.581771   128A      1.619981
     129A      1.622973   130A      1.673160   131A      1.676698
     132A      1.691050   133A      1.695552   134A      1.733271
     135A      1.746510   136A      1.790133   137A      1.813646
     138A      1.814960   139A      1.855618   140A      1.869180
     141A      1.878113   142A      1.890273   143A      1.895845
     144A      1.913104   145A      1.920804   146A      1.925644
     147A      1.935050   148A      1.939702   149A      1.947903
     150A      1.950370   151A      1.955195   152A      1.968668
     153A      1.973409   154A      1.975879   155A      1.981659
     156A      2.027632   157A      2.053321   158A      2.059560
     159A      2.068351   160A      2.083833   161A      2.086189
     162A      2.100720   163A      2.119224   164A      2.144160
     165A      2.150936   166A      2.171791   167A      2.217945
     168A      2.234229   169A      2.264071   170A      2.282334
     171A      2.295603   172A      2.303649   173A      2.348801
     174A      2.356411   175A      2.374026   176A      2.405634
     177A      2.452085   178A      2.456112   179A      2.479999
     180A      2.489186   181A      2.503690   182A      2.541356
     183A      2.550425   184A      2.566438   185A      2.573642
     186A      2.619184   187A      2.642985   188A      2.744250
     189A      2.762849   190A      2.772686   191A      2.790175
     192A      2.798740   193A      2.837191   194A      2.846509
     195A      2.847989   196A      2.858564   197A      2.903044
     198A      2.943503   199A      2.959526   200A      2.986136
     201A      3.016927   202A      3.104591   203A      3.132214
     204A      3.257196   205A      3.314428   206A      3.353427
     207A      3.581900   208A      3.674287   209A      3.980474
     210A      4.186294

    Final Occupation by Irrep:
              A
    DOCC [    38 ]

  @RHF Final Energy:  -423.85430294825585

   => Energetics <=

    Nuclear Repulsion Energy =            484.2002778552577524
    One-Electron Energy =               -1534.1585329529366390
    Two-Electron Energy =                 626.1039521494229803
    Total Energy =                       -423.8543029482558495

Computation Completed

Properties will be evaluated at   0.000000,   0.000000,   0.000000 [a0]

Properties computed using the SCF density matrix

  Nuclear Dipole Moment: [e a0]
     X:     2.4938      Y:    17.5357      Z:    -6.1848

  Electronic Dipole Moment: [e a0]
     X:    -2.7629      Y:   -17.5620      Z:     6.6600

  Dipole Moment: [e a0]
     X:    -0.2691      Y:    -0.0263      Z:     0.4752     Total:     0.5467

  Dipole Moment: [D]
     X:    -0.6839      Y:    -0.0667      Z:     1.2079     Total:     1.3896

*** tstop() called on ds3 at Tue Apr 28 00:09:04 2020
Module time:
	user time   =      80.74 seconds =       1.35 minutes
	system time =      39.59 seconds =       0.66 minutes
	total time  =        255 seconds =       4.25 minutes
Total time:
	user time   =      80.74 seconds =       1.35 minutes
	system time =      39.59 seconds =       0.66 minutes
	total time  =        255 seconds =       4.25 minutes
                                     G D M A

                                 by Anthony Stone

                           version 2.2.06, 22 June 2011

               Distributed Multipoles from Gaussian wavefunctions

Starting at 0:9:4 on 28 Apr 2020

Using SCF density matrix from file ./SSI/SSI-081TYR-130VAL-1-dimer.test.4820.fchk

                         Distributed Multipole Analysis

Standard DMA

Positions and radii in angstrom
Multipole moments in atomic units, ea_0^k for rank k

C          x = -1.094172  y =  1.725656  z =  1.741081 angstrom
           Maximum rank =  0   Radius =  0.650 angstrom
                   Q00  =  -0.203144

C          x = -0.252172  y =  0.202656  z = -0.069919 angstrom
           Maximum rank =  0   Radius =  0.650 angstrom
                   Q00  =  -0.044235

C          x = -0.733172  y =  0.347656  z =  1.215081 angstrom
           Maximum rank =  0   Radius =  0.650 angstrom
                   Q00  =  -0.146539

C          x =  0.093828  y = -1.044344  z = -0.559919 angstrom
           Maximum rank =  0   Radius =  0.650 angstrom
                   Q00  =   0.007389

C          x = -0.816172  y = -0.813344  z =  2.013081 angstrom
           Maximum rank =  0   Radius =  0.650 angstrom
                   Q00  =  -0.071584

C          x = -0.006172  y = -2.187344  z =  0.204081 angstrom
           Maximum rank =  0   Radius =  0.650 angstrom
                   Q00  =   0.311915

C          x = -0.459172  y = -2.050344  z =  1.502081 angstrom
           Maximum rank =  0   Radius =  0.650 angstrom
                   Q00  =  -0.148760

O          x =  0.358828  y = -3.403344  z = -0.284919 angstrom
           Maximum rank =  0   Radius =  0.650 angstrom
                   Q00  =  -0.681198

H          x = -0.193172  y =  1.060656  z = -0.715919 angstrom
           Maximum rank =  0   Radius =  0.325 angstrom
                   Q00  =   0.063424

H          x =  0.426828  y = -1.141344  z = -1.581919 angstrom
           Maximum rank =  0   Radius =  0.325 angstrom
                   Q00  =   0.070539

H          x = -2.180172  y =  1.828656  z =  1.720081 angstrom
           Maximum rank =  0   Radius =  0.325 angstrom
                   Q00  =   0.100175

H          x = -0.671172  y =  2.486656  z =  1.085081 angstrom
           Maximum rank =  0   Radius =  0.325 angstrom
                   Q00  =   0.099932

H          x = -1.181172  y = -0.761344  z =  3.029081 angstrom
           Maximum rank =  0   Radius =  0.325 angstrom
                   Q00  =   0.066609

H          x = -0.543172  y = -2.925344  z =  2.132081 angstrom
           Maximum rank =  0   Radius =  0.325 angstrom
                   Q00  =   0.067266

H          x =  0.116828  y = -4.120344  z =  0.316081 angstrom
           Maximum rank =  0   Radius =  0.325 angstrom
                   Q00  =   0.407230

H          x = -0.737952  y =  1.891123  z =  2.768561 angstrom
           Maximum rank =  0   Radius =  0.325 angstrom
                   Q00  =   0.100384

C          x =  0.870828  y =  3.126656  z = -1.970919 angstrom
           Maximum rank =  0   Radius =  0.650 angstrom
                   Q00  =  -0.247075

C          x =  1.694828  y =  3.656656  z = -3.140919 angstrom
           Maximum rank =  0   Radius =  0.650 angstrom
                   Q00  =  -0.230357

H          x =  1.490828  y =  2.530656  z = -1.300919 angstrom
           Maximum rank =  0   Radius =  0.325 angstrom
                   Q00  =   0.081067

H          x =  0.458828  y =  3.961656  z = -1.407919 angstrom
           Maximum rank =  0   Radius =  0.325 angstrom
                   Q00  =   0.081133

H          x =  0.044828  y =  2.529656  z = -2.358919 angstrom
           Maximum rank =  0   Radius =  0.325 angstrom
                   Q00  =   0.074176

H          x =  1.033828  y =  4.272656  z = -3.748919 angstrom
           Maximum rank =  0   Radius =  0.325 angstrom
                   Q00  =   0.078563

H          x =  2.071688  y =  2.822380  z = -3.750803 angstrom
           Maximum rank =  0   Radius =  0.325 angstrom
                   Q00  =   0.081135

H          x =  2.521498  y =  4.287081  z = -2.781498 angstrom
           Maximum rank =  0   Radius =  0.325 angstrom
                   Q00  =   0.081954

Total multipoles referred to origin at
           x =   0.000000,  y =    0.000000,  z =    0.000000 angstrom
                   Q00  =  -0.000000

Finished at 0:9:4 on 28 Apr 2020

  DMA results are available in the Python driver through the
	  variable('DMA DISTRIBUTED MULTIPOLES')
  and
	  variable('DMA TOTAL MULTIPOLES')
  commands.

    Psi4 stopped on: Tuesday, 28 April 2020 12:09AM
    Psi4 wall time for execution: 0:04:14.51

*** Psi4 exiting successfully. Buy a developer a beer!
