                               Psi4 1.3.2 release

  ==> Input File <==

--------------------------------------------------------------------------
import numpy as np
set {scf_type pk
basis cc-pvdz
d_convergence 10
gdma_switch   0
gdma_limit    0
gdma_origin   [ 0.0,  0.0,  0.0 ]
}
molecule test {
    units Angstrom
    0 1
    --
    0 1
    C                2.723937678509751    -1.254182107005828    -0.204957295509968
    C               -0.689062321490249     0.790817892994172     1.604042704490033
    C               -0.392062321490249    -0.523182107005828     1.931042704490032
    C                0.110937678509751     1.435817892994172     0.669042704490032
    C                0.712937678509751    -1.167182107005828     1.321042704490032
    C                1.227937678509751     0.782817892994172     0.046042704490032
    C                1.531937678509751    -0.529182107005828     0.388042704490032
    H               -1.524062321490249     1.303817892994172     2.063042704490033
    H               -1.008062321490249    -1.037182107005828     2.654042704490032
    H               -0.151062321490249     2.434817892994173     0.438042704490032
    H                0.954937678509751    -2.189182107005827     1.571042704490032
    H                1.839937678509751     1.294817892994172    -0.687957295509968
    H                3.317937678509751    -1.629182107005828     0.630042704490032
    H                3.310937678509751    -0.518182107005828    -0.754957295509968
    H                2.458297678509751    -2.075382107005828    -0.886907295509968
    C               -2.047062321490249     0.432817892994172    -1.791957295509968
    C               -2.742062321490249     0.097817892994172    -3.143957295509968
    H               -1.343062321490249    -0.352182107005828    -1.525957295509968
    H               -1.510062321490249     1.378817892994172    -1.870957295509967
    H               -2.796062321490249     0.514817892994172    -1.002957295509967
    H               -2.023062321490249     0.035817892994172    -3.964957295509968
    H               -3.277442321490249    -0.859082107005828    -3.055677295509968
    H               -3.457682321490249     0.907317892994172    -3.350247295509968

}
e, wfn = energy('scf', return_wfn=True)
gdma(wfn)
dmavals = variable('DMA DISTRIBUTED MULTIPOLES')
charges = np.array(dmavals)
print(charges)
np.save('SSI-078PHE-082VAL-1-dimer.npy', np.array(charges))--------------------------------------------------------------------------

*** tstart() called on ds3
*** at Tue Apr 28 03:38:24 2020

   => Loading Basis Set <=

    Name: CC-PVDZ
    Role: ORBITAL
    Keyword: BASIS
    atoms 1-7, 16-17  entry C          line   138 file /theoryfs2/ds/metcalf/miniconda2/envs/tf2gpu/share/psi4/basis/cc-pvdz.gbs
    atoms 8-15, 18-23 entry H          line    22 file /theoryfs2/ds/metcalf/miniconda2/envs/tf2gpu/share/psi4/basis/cc-pvdz.gbs

         ---------------------------------------------------------
                                   SCF
               by Justin Turney, Rob Parrish, Andy Simmonett
                          and Daniel G. A. Smith
                              RHF Reference
                        1 Threads,    500 MiB Core
         ---------------------------------------------------------

  ==> Geometry <==

    Molecular point group: c1
    Full point group: C1

    Geometry (in Angstrom), charge = 0, multiplicity = 1:

       Center              X                  Y                   Z               Mass
    ------------   -----------------  -----------------  -----------------  -----------------
         C            2.723937678510    -1.254182107006    -0.204957295510    12.000000000000
         C           -0.689062321490     0.790817892994     1.604042704490    12.000000000000
         C           -0.392062321490    -0.523182107006     1.931042704490    12.000000000000
         C            0.110937678510     1.435817892994     0.669042704490    12.000000000000
         C            0.712937678510    -1.167182107006     1.321042704490    12.000000000000
         C            1.227937678510     0.782817892994     0.046042704490    12.000000000000
         C            1.531937678510    -0.529182107006     0.388042704490    12.000000000000
         H           -1.524062321490     1.303817892994     2.063042704490     1.007825032230
         H           -1.008062321490    -1.037182107006     2.654042704490     1.007825032230
         H           -0.151062321490     2.434817892994     0.438042704490     1.007825032230
         H            0.954937678510    -2.189182107006     1.571042704490     1.007825032230
         H            1.839937678510     1.294817892994    -0.687957295510     1.007825032230
         H            3.317937678510    -1.629182107006     0.630042704490     1.007825032230
         H            3.310937678510    -0.518182107006    -0.754957295510     1.007825032230
         H            2.458297678510    -2.075382107006    -0.886907295510     1.007825032230
         C           -2.047062321490     0.432817892994    -1.791957295510    12.000000000000
         C           -2.742062321490     0.097817892994    -3.143957295510    12.000000000000
         H           -1.343062321490    -0.352182107006    -1.525957295510     1.007825032230
         H           -1.510062321490     1.378817892994    -1.870957295510     1.007825032230
         H           -2.796062321490     0.514817892994    -1.002957295510     1.007825032230
         H           -2.023062321490     0.035817892994    -3.964957295510     1.007825032230
         H           -3.277442321490    -0.859082107006    -3.055677295510     1.007825032230
         H           -3.457682321490     0.907317892994    -3.350247295510     1.007825032230

  Running in c1 symmetry.

  Rotational constants: A =      0.06239  B =      0.02777  C =      0.02358 [cm^-1]
  Rotational constants: A =   1870.50411  B =    832.52905  C =    707.00551 [MHz]
  Nuclear repulsion =  410.370652669943695

  Charge       = 0
  Multiplicity = 1
  Electrons    = 68
  Nalpha       = 34
  Nbeta        = 34

  ==> Algorithm <==

  SCF Algorithm Type is PK.
  DIIS enabled.
  MOM disabled.
  Fractional occupation disabled.
  Guess Type is SAD.
  Energy threshold   = 1.00e-06
  Density threshold  = 1.00e-10
  Integral threshold = 0.00e+00

  ==> Primary Basis <==

  Basis Set: CC-PVDZ
    Blend: CC-PVDZ
    Number of shells: 96
    Number of basis function: 196
    Number of Cartesian functions: 205
    Spherical Harmonics?: true
    Max angular momentum: 2

  ==> Pre-Iterations <==

   -------------------------------------------------------
    Irrep   Nso     Nmo     Nalpha   Nbeta   Ndocc  Nsocc
   -------------------------------------------------------
     A        196     196       0       0       0       0
   -------------------------------------------------------
    Total     196     196      34      34      34       0
   -------------------------------------------------------

  ==> Integral Setup <==

  Using integral reordering PK algorithm.
  Sizing the integral batches needed.
  Building batch lookup table.
   Calculation information:
      Number of atoms:                  23
      Number of AO shells:              96
      Number of primitives:            268
      Number of atomic orbitals:       205
      Number of basis functions:       196

      Integral cutoff                 1.00e-12
      Number of threads:                 1

	Batch   1 pq = [       0,    9405] index = [             0,44231715] size =     44231715
	Batch   2 pq = [    9405,   13301] index = [      44231715,88464951] size =     44233236
	Batch   3 pq = [   13301,   16290] index = [      88464951,132690195] size =     44225244
	Batch   4 pq = [   16290,   18810] index = [     132690195,176917455] size =     44227260
	Batch   5 pq = [   18810,   19306] index = [     176917455,186370471] size =      9453016
  Task number: 17
  Buffer size: 11059200
  Buffer per thread: 2
  We computed 9728665 shell quartets total.
  Whereas there are 10841496 unique shell quartets.

  ==> DiskJK: Disk-Based J/K Matrices <==

    J tasked:                  Yes
    K tasked:                  Yes
    wK tasked:                  No
    Memory [MiB]:              375
    Schwarz Cutoff:          1E-12

    OpenMP threads:              1

  Minimum eigenvalue in the overlap matrix is 3.2687055418E-04.
  Using Symmetric Orthogonalization.

  SCF Guess: Superposition of Atomic Densities via on-the-fly atomic UHF.

  ==> Iterations <==

                        Total Energy        Delta E     RMS |[F,P]|

   @RHF iter SAD:  -347.71710058274039   -3.47717e+02   0.00000e+00
   @RHF iter   1:  -348.76845136842076   -1.05135e+00   2.83943e-03 DIIS
   @RHF iter   2:  -348.95618080894212   -1.87729e-01   1.15804e-03 DIIS
   @RHF iter   3:  -348.98446307156871   -2.82823e-02   2.53988e-04 DIIS
   @RHF iter   4:  -348.98687183657648   -2.40877e-03   5.00753e-05 DIIS
   @RHF iter   5:  -348.98693899398972   -6.71574e-05   1.74784e-05 DIIS
   @RHF iter   6:  -348.98694675678439   -7.76279e-06   4.82685e-06 DIIS
   @RHF iter   7:  -348.98694751428457   -7.57500e-07   1.49994e-06 DIIS
   @RHF iter   8:  -348.98694763005005   -1.15765e-07   5.60452e-07 DIIS
   @RHF iter   9:  -348.98694766668979   -3.66397e-08   2.70546e-07 DIIS
   @RHF iter  10:  -348.98694767624011   -9.55032e-09   1.19922e-07 DIIS
   @RHF iter  11:  -348.98694767778238   -1.54228e-09   3.61452e-08 DIIS
   @RHF iter  12:  -348.98694767787885   -9.64633e-11   1.51958e-08 DIIS
   @RHF iter  13:  -348.98694767788641   -7.56017e-12   4.89549e-09 DIIS
   @RHF iter  14:  -348.98694767788959   -3.18323e-12   1.81121e-09 DIIS
   @RHF iter  15:  -348.98694767789152   -1.93268e-12   9.09190e-10 DIIS
   @RHF iter  16:  -348.98694767788919    2.33058e-12   3.97475e-10 DIIS
   @RHF iter  17:  -348.98694767788948   -2.84217e-13   1.08178e-10 DIIS
   @RHF iter  18:  -348.98694767788828    1.19371e-12   4.35520e-11 DIIS
  Energy and wave function converged.

  ==> Post-Iterations <==

    Orbital Energies [Eh]
    ---------------------

    Doubly Occupied:

       1A    -11.241558     2A    -11.238208     3A    -11.236850
       4A    -11.235769     5A    -11.232406     6A    -11.232155
       7A    -11.230709     8A    -11.214664     9A    -11.208104
      10A     -1.146970    11A     -1.046786    12A     -1.003191
      13A     -0.999602    14A     -0.932759    15A     -0.831188
      16A     -0.828921    17A     -0.787860    18A     -0.689512
      19A     -0.632956    20A     -0.627889    21A     -0.587042
      22A     -0.586462    23A     -0.579409    24A     -0.573573
      25A     -0.564974    26A     -0.537304    27A     -0.493153
      28A     -0.484097    29A     -0.483376    30A     -0.481773
      31A     -0.479993    32A     -0.470391    33A     -0.327964
      34A     -0.321344

    Virtual:

      35A      0.130126    36A      0.143455    37A      0.177243
      38A      0.196340    39A      0.201227    40A      0.216393
      41A      0.237631    42A      0.244717    43A      0.256883
      44A      0.264197    45A      0.268817    46A      0.272860
      47A      0.276910    48A      0.294292    49A      0.299121
      50A      0.311719    51A      0.364545    52A      0.371988
      53A      0.393464    54A      0.446198    55A      0.461641
      56A      0.468511    57A      0.497785    58A      0.564497
      59A      0.572695    60A      0.595950    61A      0.605558
      62A      0.609161    63A      0.629727    64A      0.665790
      65A      0.671385    66A      0.676802    67A      0.701777
      68A      0.705529    69A      0.738863    70A      0.745106
      71A      0.748621    72A      0.750645    73A      0.764150
      74A      0.775759    75A      0.785661    76A      0.814610
      77A      0.835340    78A      0.854015    79A      0.863124
      80A      0.869547    81A      0.887059    82A      0.892396
      83A      0.898187    84A      0.898795    85A      0.899817
      86A      0.909072    87A      0.915811    88A      0.920994
      89A      0.934061    90A      0.937466    91A      0.955375
      92A      0.979833    93A      0.984865    94A      0.998958
      95A      1.027179    96A      1.065661    97A      1.114604
      98A      1.127450    99A      1.134201   100A      1.135121
     101A      1.149901   102A      1.159914   103A      1.189229
     104A      1.213248   105A      1.235072   106A      1.245135
     107A      1.250523   108A      1.285641   109A      1.296353
     110A      1.312735   111A      1.325303   112A      1.336385
     113A      1.414906   114A      1.473266   115A      1.483351
     116A      1.501885   117A      1.535183   118A      1.544505
     119A      1.594052   120A      1.609650   121A      1.675621
     122A      1.684906   123A      1.688740   124A      1.702849
     125A      1.725362   126A      1.734124   127A      1.766032
     128A      1.791353   129A      1.799631   130A      1.849244
     131A      1.866352   132A      1.877584   133A      1.888683
     134A      1.892415   135A      1.893328   136A      1.901269
     137A      1.924461   138A      1.929714   139A      1.937078
     140A      1.940238   141A      1.951996   142A      1.957534
     143A      1.961701   144A      1.964944   145A      1.968775
     146A      1.979012   147A      2.010985   148A      2.029627
     149A      2.033043   150A      2.067012   151A      2.078435
     152A      2.098932   153A      2.103251   154A      2.123827
     155A      2.133007   156A      2.143569   157A      2.157311
     158A      2.180759   159A      2.195906   160A      2.241297
     161A      2.264811   162A      2.288801   163A      2.296003
     164A      2.303893   165A      2.325370   166A      2.340835
     167A      2.360226   168A      2.443345   169A      2.459194
     170A      2.466665   171A      2.473150   172A      2.509608
     173A      2.526726   174A      2.560990   175A      2.577435
     176A      2.622509   177A      2.735110   178A      2.752050
     179A      2.764697   180A      2.771801   181A      2.773165
     182A      2.800618   183A      2.821739   184A      2.839532
     185A      2.844238   186A      2.857043   187A      2.863978
     188A      2.944359   189A      2.953061   190A      2.962779
     191A      2.988987   192A      3.052093   193A      3.128644
     194A      3.173681   195A      3.299073   196A      3.930838

    Final Occupation by Irrep:
              A
    DOCC [    34 ]

  @RHF Final Energy:  -348.98694767788828

   => Energetics <=

    Nuclear Repulsion Energy =            410.3706526699436949
    One-Electron Energy =               -1283.5773780832130342
    Two-Electron Energy =                 524.2197777353810579
    Total Energy =                       -348.9869476778883381

Computation Completed

Properties will be evaluated at   0.000000,   0.000000,   0.000000 [a0]

Properties computed using the SCF density matrix

  Nuclear Dipole Moment: [e a0]
     X:    -4.8828      Y:    -0.7407      Z:    -9.1350

  Electronic Dipole Moment: [e a0]
     X:     5.0259      Y:     0.6750      Z:     9.1608

  Dipole Moment: [e a0]
     X:     0.1431      Y:    -0.0658      Z:     0.0257     Total:     0.1596

  Dipole Moment: [D]
     X:     0.3637      Y:    -0.1672      Z:     0.0654     Total:     0.4056

*** tstop() called on ds3 at Tue Apr 28 03:39:56 2020
Module time:
	user time   =      66.88 seconds =       1.11 minutes
	system time =      28.22 seconds =       0.47 minutes
	total time  =         92 seconds =       1.53 minutes
Total time:
	user time   =      66.88 seconds =       1.11 minutes
	system time =      28.22 seconds =       0.47 minutes
	total time  =         92 seconds =       1.53 minutes
                                     G D M A

                                 by Anthony Stone

                           version 2.2.06, 22 June 2011

               Distributed Multipoles from Gaussian wavefunctions

Starting at 3:39:56 on 28 Apr 2020

Using SCF density matrix from file ./SSI/SSI-078PHE-082VAL-1-dimer.test.8151.fchk

                         Distributed Multipole Analysis

Standard DMA

Positions and radii in angstrom
Multipole moments in atomic units, ea_0^k for rank k

C          x =  2.723938  y = -1.254182  z = -0.204957 angstrom
           Maximum rank =  0   Radius =  0.650 angstrom
                   Q00  =  -0.202903

C          x = -0.689062  y =  0.790818  z =  1.604043 angstrom
           Maximum rank =  0   Radius =  0.650 angstrom
                   Q00  =  -0.085526

C          x = -0.392062  y = -0.523182  z =  1.931043 angstrom
           Maximum rank =  0   Radius =  0.650 angstrom
                   Q00  =  -0.082182

C          x =  0.110938  y =  1.435818  z =  0.669043 angstrom
           Maximum rank =  0   Radius =  0.650 angstrom
                   Q00  =  -0.044733

C          x =  0.712938  y = -1.167182  z =  1.321043 angstrom
           Maximum rank =  0   Radius =  0.650 angstrom
                   Q00  =  -0.001914

C          x =  1.227938  y =  0.782818  z =  0.046043 angstrom
           Maximum rank =  0   Radius =  0.650 angstrom
                   Q00  =  -0.097133

C          x =  1.531938  y = -0.529182  z =  0.388043 angstrom
           Maximum rank =  0   Radius =  0.650 angstrom
                   Q00  =  -0.102808

H          x = -1.524062  y =  1.303818  z =  2.063043 angstrom
           Maximum rank =  0   Radius =  0.325 angstrom
                   Q00  =   0.063828

H          x = -1.008062  y = -1.037182  z =  2.654043 angstrom
           Maximum rank =  0   Radius =  0.325 angstrom
                   Q00  =   0.065984

H          x = -0.151062  y =  2.434818  z =  0.438043 angstrom
           Maximum rank =  0   Radius =  0.325 angstrom
                   Q00  =   0.064746

H          x =  0.954938  y = -2.189182  z =  1.571043 angstrom
           Maximum rank =  0   Radius =  0.325 angstrom
                   Q00  =   0.054163

H          x =  1.839938  y =  1.294818  z = -0.687957 angstrom
           Maximum rank =  0   Radius =  0.325 angstrom
                   Q00  =   0.063949

H          x =  3.317938  y = -1.629182  z =  0.630043 angstrom
           Maximum rank =  0   Radius =  0.325 angstrom
                   Q00  =   0.102446

H          x =  3.310938  y = -0.518182  z = -0.754957 angstrom
           Maximum rank =  0   Radius =  0.325 angstrom
                   Q00  =   0.097638

H          x =  2.458298  y = -2.075382  z = -0.886907 angstrom
           Maximum rank =  0   Radius =  0.325 angstrom
                   Q00  =   0.106221

C          x = -2.047062  y =  0.432818  z = -1.791957 angstrom
           Maximum rank =  0   Radius =  0.650 angstrom
                   Q00  =  -0.231325

C          x = -2.742062  y =  0.097818  z = -3.143957 angstrom
           Maximum rank =  0   Radius =  0.650 angstrom
                   Q00  =  -0.246149

H          x = -1.343062  y = -0.352182  z = -1.525957 angstrom
           Maximum rank =  0   Radius =  0.325 angstrom
                   Q00  =   0.088101

H          x = -1.510062  y =  1.378818  z = -1.870957 angstrom
           Maximum rank =  0   Radius =  0.325 angstrom
                   Q00  =   0.074765

H          x = -2.796062  y =  0.514818  z = -1.002957 angstrom
           Maximum rank =  0   Radius =  0.325 angstrom
                   Q00  =   0.077772

H          x = -2.023062  y =  0.035818  z = -3.964957 angstrom
           Maximum rank =  0   Radius =  0.325 angstrom
                   Q00  =   0.081312

H          x = -3.277442  y = -0.859082  z = -3.055677 angstrom
           Maximum rank =  0   Radius =  0.325 angstrom
                   Q00  =   0.079193

H          x = -3.457682  y =  0.907318  z = -3.350247 angstrom
           Maximum rank =  0   Radius =  0.325 angstrom
                   Q00  =   0.074556

Total multipoles referred to origin at
           x =   0.000000,  y =    0.000000,  z =    0.000000 angstrom
                   Q00  =  -0.000000

Finished at 3:39:56 on 28 Apr 2020

  DMA results are available in the Python driver through the
	  variable('DMA DISTRIBUTED MULTIPOLES')
  and
	  variable('DMA TOTAL MULTIPOLES')
  commands.

    Psi4 stopped on: Tuesday, 28 April 2020 03:39AM
    Psi4 wall time for execution: 0:01:32.41

*** Psi4 exiting successfully. Buy a developer a beer!
