                               Psi4 1.3.2 release

  ==> Input File <==

--------------------------------------------------------------------------
import numpy as np
set {scf_type pk
basis cc-pvdz
d_convergence 10
gdma_switch   0
gdma_limit    0
gdma_origin   [ 0.0,  0.0,  0.0 ]
}
molecule test {
    units Angstrom
    0 1
    --
    0 1
    C               -1.039096322116991    -0.717301181284593     0.475026989550817
    C               -1.402096322116991    -2.001301181284592    -0.271973010449183
    C               -0.713096322116991    -0.928301181284593     1.944026989550817
    H               -0.177096322116991    -0.263301181284593    -0.007973010449183
    H               -1.862096322116991    -0.004301181284593     0.396026989550817
    H               -2.175096322116992    -2.539301181284592     0.279026989550817
    H                0.066903677883009    -1.681301181284593     2.059026989550817
    H               -0.343096322116991     0.015698818715407     2.341026989550818
    H               -0.501366322116991    -2.618621181284592    -0.404633010449183
    H               -1.854186322116991    -1.742241181284593    -1.240733010449183
    H               -1.620006322116991    -1.222181181284593     2.492796989550818
    C                1.498903677883009     2.084698818715407    -0.349973010449183
    C                1.590903677883009     1.501698818715407    -1.763973010449183
    H                2.350903677883009     2.736698818715408    -0.158973010449183
    H                0.579903677883009     2.659698818715408    -0.238973010449183
    H                1.475903677883009     1.302698818715407     0.406026989550817
    H                0.730903677883009     0.853698818715407    -1.938973010449183
    H                2.511733677883009     0.909738818715407    -1.871923010449183
    H                1.584463677883009     2.313448818715408    -2.506283010449182

}
e, wfn = energy('scf', return_wfn=True)
gdma(wfn)
dmavals = variable('DMA DISTRIBUTED MULTIPOLES')
charges = np.array(dmavals)
print(charges)
np.save('SSI-095LYS-107ILE-1-dimer.npy', np.array(charges))--------------------------------------------------------------------------

*** tstart() called on ds3
*** at Tue Apr 28 05:25:50 2020

   => Loading Basis Set <=

    Name: CC-PVDZ
    Role: ORBITAL
    Keyword: BASIS
    atoms 1-3, 12-13  entry C          line   138 file /theoryfs2/ds/metcalf/miniconda2/envs/tf2gpu/share/psi4/basis/cc-pvdz.gbs
    atoms 4-11, 14-19 entry H          line    22 file /theoryfs2/ds/metcalf/miniconda2/envs/tf2gpu/share/psi4/basis/cc-pvdz.gbs

         ---------------------------------------------------------
                                   SCF
               by Justin Turney, Rob Parrish, Andy Simmonett
                          and Daniel G. A. Smith
                              RHF Reference
                        1 Threads,    500 MiB Core
         ---------------------------------------------------------

  ==> Geometry <==

    Molecular point group: c1
    Full point group: C1

    Geometry (in Angstrom), charge = 0, multiplicity = 1:

       Center              X                  Y                   Z               Mass
    ------------   -----------------  -----------------  -----------------  -----------------
         C           -1.039096322117    -0.717301181285     0.475026989551    12.000000000000
         C           -1.402096322117    -2.001301181285    -0.271973010449    12.000000000000
         C           -0.713096322117    -0.928301181285     1.944026989551    12.000000000000
         H           -0.177096322117    -0.263301181285    -0.007973010449     1.007825032230
         H           -1.862096322117    -0.004301181285     0.396026989551     1.007825032230
         H           -2.175096322117    -2.539301181285     0.279026989551     1.007825032230
         H            0.066903677883    -1.681301181285     2.059026989551     1.007825032230
         H           -0.343096322117     0.015698818715     2.341026989551     1.007825032230
         H           -0.501366322117    -2.618621181285    -0.404633010449     1.007825032230
         H           -1.854186322117    -1.742241181285    -1.240733010449     1.007825032230
         H           -1.620006322117    -1.222181181285     2.492796989551     1.007825032230
         C            1.498903677883     2.084698818715    -0.349973010449    12.000000000000
         C            1.590903677883     1.501698818715    -1.763973010449    12.000000000000
         H            2.350903677883     2.736698818715    -0.158973010449     1.007825032230
         H            0.579903677883     2.659698818715    -0.238973010449     1.007825032230
         H            1.475903677883     1.302698818715     0.406026989551     1.007825032230
         H            0.730903677883     0.853698818715    -1.938973010449     1.007825032230
         H            2.511733677883     0.909738818715    -1.871923010449     1.007825032230
         H            1.584463677883     2.313448818715    -2.506283010449     1.007825032230

  Running in c1 symmetry.

  Rotational constants: A =      0.19396  B =      0.04628  C =      0.03931 [cm^-1]
  Rotational constants: A =   5814.65044  B =   1387.49580  C =   1178.49197 [MHz]
  Nuclear repulsion =  179.768820775190903

  Charge       = 0
  Multiplicity = 1
  Electrons    = 44
  Nalpha       = 22
  Nbeta        = 22

  ==> Algorithm <==

  SCF Algorithm Type is PK.
  DIIS enabled.
  MOM disabled.
  Fractional occupation disabled.
  Guess Type is SAD.
  Energy threshold   = 1.00e-06
  Density threshold  = 1.00e-10
  Integral threshold = 0.00e+00

  ==> Primary Basis <==

  Basis Set: CC-PVDZ
    Blend: CC-PVDZ
    Number of shells: 72
    Number of basis function: 140
    Number of Cartesian functions: 145
    Spherical Harmonics?: true
    Max angular momentum: 2

  ==> Pre-Iterations <==

   -------------------------------------------------------
    Irrep   Nso     Nmo     Nalpha   Nbeta   Ndocc  Nsocc
   -------------------------------------------------------
     A        140     140       0       0       0       0
   -------------------------------------------------------
    Total     140     140      22      22      22       0
   -------------------------------------------------------

  ==> Integral Setup <==

  Using integral reordering PK algorithm.
  Sizing the integral batches needed.
  Building batch lookup table.
   Calculation information:
      Number of atoms:                  19
      Number of AO shells:              72
      Number of primitives:            180
      Number of atomic orbitals:       145
      Number of basis functions:       140

      Integral cutoff                 1.00e-12
      Number of threads:                 1

	Batch   1 pq = [       0,    9405] index = [             0,44231715] size =     44231715
	Batch   2 pq = [    9405,    9870] index = [      44231715,48713385] size =      4481670
  Task number: 5
  Buffer size: 11059200
  Buffer per thread: 2
  We computed 2966112 shell quartets total.
  Whereas there are 3454506 unique shell quartets.

  ==> DiskJK: Disk-Based J/K Matrices <==

    J tasked:                  Yes
    K tasked:                  Yes
    wK tasked:                  No
    Memory [MiB]:              375
    Schwarz Cutoff:          1E-12

    OpenMP threads:              1

  Minimum eigenvalue in the overlap matrix is 5.2757447097E-03.
  Using Symmetric Orthogonalization.

  SCF Guess: Superposition of Atomic Densities via on-the-fly atomic UHF.

  ==> Iterations <==

                        Total Energy        Delta E     RMS |[F,P]|

   @RHF iter SAD:  -196.37279024138957   -1.96373e+02   0.00000e+00
   @RHF iter   1:  -197.31189665806716   -9.39106e-01   3.80253e-03 DIIS
   @RHF iter   2:  -197.47198541816780   -1.60089e-01   1.63928e-03 DIIS
   @RHF iter   3:  -197.50036686459512   -2.83814e-02   3.25982e-04 DIIS
   @RHF iter   4:  -197.50259379156188   -2.22693e-03   4.89443e-05 DIIS
   @RHF iter   5:  -197.50263287360914   -3.90820e-05   1.50170e-05 DIIS
   @RHF iter   6:  -197.50263628791123   -3.41430e-06   2.37800e-06 DIIS
   @RHF iter   7:  -197.50263639118688   -1.03276e-07   4.43827e-07 DIIS
   @RHF iter   8:  -197.50263639512846   -3.94158e-09   1.16146e-07 DIIS
   @RHF iter   9:  -197.50263639538142   -2.52953e-10   3.51929e-08 DIIS
   @RHF iter  10:  -197.50263639541055   -2.91323e-11   7.75335e-09 DIIS
   @RHF iter  11:  -197.50263639541114   -5.96856e-13   1.48154e-09 DIIS
   @RHF iter  12:  -197.50263639541174   -5.96856e-13   2.80196e-10 DIIS
   @RHF iter  13:  -197.50263639541282   -1.08002e-12   4.44660e-11 DIIS
  Energy and wave function converged.

  ==> Post-Iterations <==

    Orbital Energies [Eh]
    ---------------------

    Doubly Occupied:

       1A    -11.220687     2A    -11.217619     3A    -11.217401
       4A    -11.217015     5A    -11.215485     6A     -1.054615
       7A     -1.017883     8A     -0.925432     9A     -0.838645
      10A     -0.794564    11A     -0.629584    12A     -0.601799
      13A     -0.596304    14A     -0.590098    15A     -0.548296
      16A     -0.537211    17A     -0.501780    18A     -0.487749
      19A     -0.486077    20A     -0.469416    21A     -0.467930
      22A     -0.466336

    Virtual:

      23A      0.167520    24A      0.199219    25A      0.207443
      26A      0.224350    27A      0.242580    28A      0.254438
      29A      0.258771    30A      0.270200    31A      0.273946
      32A      0.279590    33A      0.287751    34A      0.302635
      35A      0.312610    36A      0.370515    37A      0.373188
      38A      0.391439    39A      0.427338    40A      0.574473
      41A      0.584309    42A      0.603997    43A      0.610252
      44A      0.614080    45A      0.620411    46A      0.632802
      47A      0.657831    48A      0.696394    49A      0.760472
      50A      0.778628    51A      0.802916    52A      0.840029
      53A      0.852360    54A      0.882568    55A      0.883158
      56A      0.891348    57A      0.895158    58A      0.897045
      59A      0.897933    60A      0.908007    61A      0.910526
      62A      0.921672    63A      0.931768    64A      0.943954
      65A      0.959557    66A      0.965305    67A      1.009423
      68A      1.063914    69A      1.121724    70A      1.126779
      71A      1.128963    72A      1.134798    73A      1.234952
      74A      1.262857    75A      1.391469    76A      1.456358
      77A      1.472193    78A      1.476689    79A      1.488494
      80A      1.528577    81A      1.564154    82A      1.641622
      83A      1.671469    84A      1.683342    85A      1.691702
      86A      1.701697    87A      1.717091    88A      1.850029
      89A      1.863878    90A      1.866049    91A      1.878663
      92A      1.881865    93A      1.890998    94A      1.910806
      95A      1.922806    96A      1.938636    97A      1.942498
      98A      1.949618    99A      1.953225   100A      1.962136
     101A      1.973937   102A      1.986002   103A      1.993152
     104A      1.998065   105A      2.013344   106A      2.033077
     107A      2.052743   108A      2.104341   109A      2.112883
     110A      2.142557   111A      2.159310   112A      2.281115
     113A      2.294127   114A      2.301370   115A      2.320205
     116A      2.323942   117A      2.356062   118A      2.451888
     119A      2.458638   120A      2.485709   121A      2.534017
     122A      2.558083   123A      2.575422   124A      2.582062
     125A      2.615061   126A      2.633366   127A      2.754934
     128A      2.762289   129A      2.766997   130A      2.784820
     131A      2.795660   132A      2.823385   133A      2.852121
     134A      2.860666   135A      2.915246   136A      2.951454
     137A      2.959684   138A      2.970598   139A      2.976295
     140A      3.101510

    Final Occupation by Irrep:
              A
    DOCC [    22 ]

  @RHF Final Energy:  -197.50263639541282

   => Energetics <=

    Nuclear Repulsion Energy =            179.7688207751909033
    One-Electron Energy =                -620.3390636936766214
    Two-Electron Energy =                 243.0676065230729250
    Total Energy =                       -197.5026363954128215

Computation Completed

Properties will be evaluated at   0.000000,   0.000000,   0.000000 [a0]

Properties computed using the SCF density matrix

  Nuclear Dipole Moment: [e a0]
     X:     0.7198      Y:     0.6754      Z:    -0.3699

  Electronic Dipole Moment: [e a0]
     X:    -0.7215      Y:    -0.6288      Z:     0.3600

  Dipole Moment: [e a0]
     X:    -0.0017      Y:     0.0466      Z:    -0.0099     Total:     0.0476

  Dipole Moment: [D]
     X:    -0.0044      Y:     0.1184      Z:    -0.0250     Total:     0.1211

*** tstop() called on ds3 at Tue Apr 28 05:26:09 2020
Module time:
	user time   =      14.11 seconds =       0.24 minutes
	system time =       5.53 seconds =       0.09 minutes
	total time  =         19 seconds =       0.32 minutes
Total time:
	user time   =      14.11 seconds =       0.24 minutes
	system time =       5.53 seconds =       0.09 minutes
	total time  =         19 seconds =       0.32 minutes
                                     G D M A

                                 by Anthony Stone

                           version 2.2.06, 22 June 2011

               Distributed Multipoles from Gaussian wavefunctions

Starting at 5:26:9 on 28 Apr 2020

Using SCF density matrix from file ./SSI/SSI-095LYS-107ILE-1-dimer.test.30640.fchk

                         Distributed Multipole Analysis

Standard DMA

Positions and radii in angstrom
Multipole moments in atomic units, ea_0^k for rank k

C          x = -1.039096  y = -0.717301  z =  0.475027 angstrom
           Maximum rank =  0   Radius =  0.650 angstrom
                   Q00  =  -0.065452

C          x = -1.402096  y = -2.001301  z = -0.271973 angstrom
           Maximum rank =  0   Radius =  0.650 angstrom
                   Q00  =  -0.249534

C          x = -0.713096  y = -0.928301  z =  1.944027 angstrom
           Maximum rank =  0   Radius =  0.650 angstrom
                   Q00  =  -0.248784

H          x = -0.177096  y = -0.263301  z = -0.007973 angstrom
           Maximum rank =  0   Radius =  0.325 angstrom
                   Q00  =   0.046595

H          x = -1.862096  y = -0.004301  z =  0.396027 angstrom
           Maximum rank =  0   Radius =  0.325 angstrom
                   Q00  =   0.044774

H          x = -2.175096  y = -2.539301  z =  0.279027 angstrom
           Maximum rank =  0   Radius =  0.325 angstrom
                   Q00  =   0.075710

H          x =  0.066904  y = -1.681301  z =  2.059027 angstrom
           Maximum rank =  0   Radius =  0.325 angstrom
                   Q00  =   0.075900

H          x = -0.343096  y =  0.015699  z =  2.341027 angstrom
           Maximum rank =  0   Radius =  0.325 angstrom
                   Q00  =   0.081774

H          x = -0.501366  y = -2.618621  z = -0.404633 angstrom
           Maximum rank =  0   Radius =  0.325 angstrom
                   Q00  =   0.078718

H          x = -1.854186  y = -1.742241  z = -1.240733 angstrom
           Maximum rank =  0   Radius =  0.325 angstrom
                   Q00  =   0.081304

H          x = -1.620006  y = -1.222181  z =  2.492797 angstrom
           Maximum rank =  0   Radius =  0.325 angstrom
                   Q00  =   0.077404

C          x =  1.498904  y =  2.084699  z = -0.349973 angstrom
           Maximum rank =  0   Radius =  0.650 angstrom
                   Q00  =  -0.241325

C          x =  1.590904  y =  1.501699  z = -1.763973 angstrom
           Maximum rank =  0   Radius =  0.650 angstrom
                   Q00  =  -0.237608

H          x =  2.350904  y =  2.736699  z = -0.158973 angstrom
           Maximum rank =  0   Radius =  0.325 angstrom
                   Q00  =   0.080402

H          x =  0.579904  y =  2.659699  z = -0.238973 angstrom
           Maximum rank =  0   Radius =  0.325 angstrom
                   Q00  =   0.079022

H          x =  1.475904  y =  1.302699  z =  0.406027 angstrom
           Maximum rank =  0   Radius =  0.325 angstrom
                   Q00  =   0.080477

H          x =  0.730904  y =  0.853699  z = -1.938973 angstrom
           Maximum rank =  0   Radius =  0.325 angstrom
                   Q00  =   0.080205

H          x =  2.511734  y =  0.909739  z = -1.871923 angstrom
           Maximum rank =  0   Radius =  0.325 angstrom
                   Q00  =   0.079259

H          x =  1.584464  y =  2.313449  z = -2.506283 angstrom
           Maximum rank =  0   Radius =  0.325 angstrom
                   Q00  =   0.081159

Total multipoles referred to origin at
           x =   0.000000,  y =    0.000000,  z =    0.000000 angstrom
                   Q00  =  -0.000000

Finished at 5:26:9 on 28 Apr 2020

  DMA results are available in the Python driver through the
	  variable('DMA DISTRIBUTED MULTIPOLES')
  and
	  variable('DMA TOTAL MULTIPOLES')
  commands.

    Psi4 stopped on: Tuesday, 28 April 2020 05:26AM
    Psi4 wall time for execution: 0:00:19.44

*** Psi4 exiting successfully. Buy a developer a beer!
