                               Psi4 1.3.2 release

  ==> Input File <==

--------------------------------------------------------------------------
import numpy as np
set {scf_type pk
basis cc-pvdz
d_convergence 10
gdma_switch   0
gdma_limit    0
gdma_origin   [ 0.0,  0.0,  0.0 ]
}
molecule test {
    units Angstrom
    0 1
    --
    0 1
    C                1.726262406912358    -0.457579192985520    -0.259923533070636
    C                2.003262406912357    -0.889579192985519    -1.698923533070636
    C                2.386262406912357    -1.359579192985520     0.772076466929364
    H                2.031262406912357     0.577420807014481    -0.102923533070636
    H                0.665262406912357    -0.528579192985519    -0.133923533070636
    H                1.578262406912358    -0.146579192985519    -2.375923533070636
    H                2.443262406912357    -2.380579192985519     0.391076466929364
    H                3.410262406912358    -1.020579192985520     0.944076466929364
    H                1.540872406912357    -1.868494292985520    -1.893653533070636
    H                3.091012406912357    -0.928764492985519    -1.857843533070636
    H                1.831052406912358    -1.371901192985520     1.721596466929364
    C               -1.847737593087642     0.283420807014480     0.421076466929364
    C               -2.614737593087642     1.090420807014481     1.454076466929364
    C               -1.662737593087643     1.308420807014480    -0.685923533070636
    H               -2.401737593087643    -0.596579192985519     0.095076466929364
    H               -0.920737593087642     0.002420807014480     0.902076466929364
    H               -3.645737593087642     1.246420807014480     1.135076466929364
    H               -2.591737593087643     0.621420807014481     2.437076466929364
    H               -0.808737593087643     1.037420807014480    -1.307923533070636
    H               -2.066507593087643     2.044059807014480     1.450466466929364
    H               -1.473017593087642     2.238191807014481    -0.129563533070636
    H               -2.570807593087642     1.366121807014480    -1.304043533070636

}
e, wfn = energy('scf', return_wfn=True)
gdma(wfn)
dmavals = variable('DMA DISTRIBUTED MULTIPOLES')
charges = np.array(dmavals)
print(charges)
np.save('SSI-035GLU-189PRO-1-dimer.npy', np.array(charges))--------------------------------------------------------------------------

*** tstart() called on ds3
*** at Tue Apr 28 03:37:40 2020

   => Loading Basis Set <=

    Name: CC-PVDZ
    Role: ORBITAL
    Keyword: BASIS
    atoms 1-3, 12-14  entry C          line   138 file /theoryfs2/ds/metcalf/miniconda2/envs/tf2gpu/share/psi4/basis/cc-pvdz.gbs
    atoms 4-11, 15-22 entry H          line    22 file /theoryfs2/ds/metcalf/miniconda2/envs/tf2gpu/share/psi4/basis/cc-pvdz.gbs

         ---------------------------------------------------------
                                   SCF
               by Justin Turney, Rob Parrish, Andy Simmonett
                          and Daniel G. A. Smith
                              RHF Reference
                        1 Threads,    500 MiB Core
         ---------------------------------------------------------

  ==> Geometry <==

    Molecular point group: c1
    Full point group: C1

    Geometry (in Angstrom), charge = 0, multiplicity = 1:

       Center              X                  Y                   Z               Mass
    ------------   -----------------  -----------------  -----------------  -----------------
         C            1.726262406912    -0.457579192986    -0.259923533071    12.000000000000
         C            2.003262406912    -0.889579192986    -1.698923533071    12.000000000000
         C            2.386262406912    -1.359579192986     0.772076466929    12.000000000000
         H            2.031262406912     0.577420807014    -0.102923533071     1.007825032230
         H            0.665262406912    -0.528579192986    -0.133923533071     1.007825032230
         H            1.578262406912    -0.146579192986    -2.375923533071     1.007825032230
         H            2.443262406912    -2.380579192986     0.391076466929     1.007825032230
         H            3.410262406912    -1.020579192986     0.944076466929     1.007825032230
         H            1.540872406912    -1.868494292986    -1.893653533071     1.007825032230
         H            3.091012406912    -0.928764492986    -1.857843533071     1.007825032230
         H            1.831052406912    -1.371901192986     1.721596466929     1.007825032230
         C           -1.847737593088     0.283420807014     0.421076466929    12.000000000000
         C           -2.614737593088     1.090420807014     1.454076466929    12.000000000000
         C           -1.662737593088     1.308420807014    -0.685923533071    12.000000000000
         H           -2.401737593088    -0.596579192986     0.095076466929     1.007825032230
         H           -0.920737593088     0.002420807014     0.902076466929     1.007825032230
         H           -3.645737593088     1.246420807014     1.135076466929     1.007825032230
         H           -2.591737593088     0.621420807014     2.437076466929     1.007825032230
         H           -0.808737593088     1.037420807014    -1.307923533071     1.007825032230
         H           -2.066507593088     2.044059807014     1.450466466929     1.007825032230
         H           -1.473017593088     2.238191807014    -0.129563533071     1.007825032230
         H           -2.570807593088     1.366121807014    -1.304043533071     1.007825032230

  Running in c1 symmetry.

  Rotational constants: A =      0.15562  B =      0.03357  C =      0.02921 [cm^-1]
  Rotational constants: A =   4665.28634  B =   1006.41699  C =    875.67861 [MHz]
  Nuclear repulsion =  243.794161203703965

  Charge       = 0
  Multiplicity = 1
  Electrons    = 52
  Nalpha       = 26
  Nbeta        = 26

  ==> Algorithm <==

  SCF Algorithm Type is PK.
  DIIS enabled.
  MOM disabled.
  Fractional occupation disabled.
  Guess Type is SAD.
  Energy threshold   = 1.00e-06
  Density threshold  = 1.00e-10
  Integral threshold = 0.00e+00

  ==> Primary Basis <==

  Basis Set: CC-PVDZ
    Blend: CC-PVDZ
    Number of shells: 84
    Number of basis function: 164
    Number of Cartesian functions: 170
    Spherical Harmonics?: true
    Max angular momentum: 2

  ==> Pre-Iterations <==

   -------------------------------------------------------
    Irrep   Nso     Nmo     Nalpha   Nbeta   Ndocc  Nsocc
   -------------------------------------------------------
     A        164     164       0       0       0       0
   -------------------------------------------------------
    Total     164     164      26      26      26       0
   -------------------------------------------------------

  ==> Integral Setup <==

  Using integral reordering PK algorithm.
  Sizing the integral batches needed.
  Building batch lookup table.
   Calculation information:
      Number of atoms:                  22
      Number of AO shells:              84
      Number of primitives:            212
      Number of atomic orbitals:       170
      Number of basis functions:       164

      Integral cutoff                 1.00e-12
      Number of threads:                 1

	Batch   1 pq = [       0,    9405] index = [             0,44231715] size =     44231715
	Batch   2 pq = [    9405,   13530] index = [      44231715,91537215] size =     47305500
  Task number: 9
  Buffer size: 11059200
  Buffer per thread: 2
  We computed 5651829 shell quartets total.
  Whereas there are 6374235 unique shell quartets.

  ==> DiskJK: Disk-Based J/K Matrices <==

    J tasked:                  Yes
    K tasked:                  Yes
    wK tasked:                  No
    Memory [MiB]:              375
    Schwarz Cutoff:          1E-12

    OpenMP threads:              1

  Minimum eigenvalue in the overlap matrix is 4.5890710492E-03.
  Using Symmetric Orthogonalization.

  SCF Guess: Superposition of Atomic Densities via on-the-fly atomic UHF.

  ==> Iterations <==

                        Total Energy        Delta E     RMS |[F,P]|

   @RHF iter SAD:  -235.58326211551190   -2.35583e+02   0.00000e+00
   @RHF iter   1:  -236.28969007848247   -7.06428e-01   3.54008e-03 DIIS
   @RHF iter   2:  -236.47876983016033   -1.89080e-01   1.54755e-03 DIIS
   @RHF iter   3:  -236.51329497610095   -3.45251e-02   3.08947e-04 DIIS
   @RHF iter   4:  -236.51592041702730   -2.62544e-03   4.70755e-05 DIIS
   @RHF iter   5:  -236.51597004435848   -4.96273e-05   1.36583e-05 DIIS
   @RHF iter   6:  -236.51597425794651   -4.21359e-06   2.41114e-06 DIIS
   @RHF iter   7:  -236.51597440300435   -1.45058e-07   4.72823e-07 DIIS
   @RHF iter   8:  -236.51597440978566   -6.78131e-09   1.05109e-07 DIIS
   @RHF iter   9:  -236.51597441008494   -2.99281e-10   3.57763e-08 DIIS
   @RHF iter  10:  -236.51597441011842   -3.34808e-11   7.73183e-09 DIIS
   @RHF iter  11:  -236.51597441012026   -1.84741e-12   1.76285e-09 DIIS
   @RHF iter  12:  -236.51597441011955    7.10543e-13   5.00047e-10 DIIS
   @RHF iter  13:  -236.51597441011870    8.52651e-13   1.10905e-10 DIIS
   @RHF iter  14:  -236.51597441012035   -1.64846e-12   3.29353e-11 DIIS
  Energy and wave function converged.

  ==> Post-Iterations <==

    Orbital Energies [Eh]
    ---------------------

    Doubly Occupied:

       1A    -11.217363     2A    -11.215488     3A    -11.215166
       4A    -11.214714     5A    -11.213999     6A    -11.212205
       7A     -1.069776     8A     -1.055351     9A     -0.923760
      10A     -0.911732    11A     -0.802989    12A     -0.794634
      13A     -0.643650    14A     -0.630340    15A     -0.611801
      16A     -0.594211    17A     -0.546970    18A     -0.539309
      19A     -0.534400    20A     -0.510582    21A     -0.484474
      22A     -0.481872    23A     -0.473171    24A     -0.469966
      25A     -0.458735    26A     -0.452011

    Virtual:

      27A      0.171394    28A      0.194628    29A      0.204510
      30A      0.223238    31A      0.229973    32A      0.236577
      33A      0.243273    34A      0.256775    35A      0.269210
      36A      0.282766    37A      0.285245    38A      0.292022
      39A      0.309073    40A      0.328634    41A      0.338609
      42A      0.355218    43A      0.383510    44A      0.400191
      45A      0.429308    46A      0.434590    47A      0.562844
      48A      0.582713    49A      0.596986    50A      0.605074
      51A      0.613907    52A      0.621871    53A      0.634109
      54A      0.658514    55A      0.668956    56A      0.761275
      57A      0.774635    58A      0.781750    59A      0.813390
      60A      0.839129    61A      0.844856    62A      0.860112
      63A      0.873877    64A      0.881730    65A      0.889121
      66A      0.892824    67A      0.899855    68A      0.901934
      69A      0.905549    70A      0.908555    71A      0.912816
      72A      0.919029    73A      0.923987    74A      0.938633
      75A      0.947465    76A      0.955220    77A      0.963936
      78A      0.994350    79A      1.032153    80A      1.051819
      81A      1.109609    82A      1.115247    83A      1.126199
      84A      1.150360    85A      1.225726    86A      1.276806
      87A      1.381294    88A      1.414720    89A      1.434621
      90A      1.464151    91A      1.474030    92A      1.499219
      93A      1.547985    94A      1.601584    95A      1.620455
      96A      1.645414    97A      1.657300    98A      1.673450
      99A      1.686457   100A      1.721289   101A      1.740310
     102A      1.750600   103A      1.808845   104A      1.844820
     105A      1.853039   106A      1.869139   107A      1.877718
     108A      1.881675   109A      1.891852   110A      1.915438
     111A      1.925601   112A      1.931536   113A      1.940447
     114A      1.946202   115A      1.963450   116A      1.976945
     117A      1.980493   118A      1.986801   119A      2.000073
     120A      2.016203   121A      2.018172   122A      2.034813
     123A      2.046315   124A      2.057272   125A      2.072806
     126A      2.131468   127A      2.149508   128A      2.157461
     129A      2.166818   130A      2.195995   131A      2.250051
     132A      2.266283   133A      2.307080   134A      2.317372
     135A      2.325903   136A      2.348845   137A      2.361793
     138A      2.436634   139A      2.470472   140A      2.482817
     141A      2.514955   142A      2.533438   143A      2.553203
     144A      2.566656   145A      2.614290   146A      2.631822
     147A      2.662418   148A      2.708810   149A      2.755336
     150A      2.765737   151A      2.776627   152A      2.778292
     153A      2.790554   154A      2.798726   155A      2.833217
     156A      2.837456   157A      2.899865   158A      2.913071
     159A      2.934959   160A      2.941733   161A      2.969753
     162A      2.982355   163A      3.055224   164A      3.097005

    Final Occupation by Irrep:
              A
    DOCC [    26 ]

  @RHF Final Energy:  -236.51597441012035

   => Energetics <=

    Nuclear Repulsion Energy =            243.7941612037039647
    One-Electron Energy =                -800.0629372943944873
    Two-Electron Energy =                 319.7528016805701441
    Total Energy =                       -236.5159744101203501

Computation Completed

Properties will be evaluated at   0.000000,   0.000000,   0.000000 [a0]

Properties computed using the SCF density matrix

  Nuclear Dipole Moment: [e a0]
     X:     0.1052      Y:     0.2732      Z:    -0.0274

  Electronic Dipole Moment: [e a0]
     X:    -0.1378      Y:    -0.2884      Z:     0.0340

  Dipole Moment: [e a0]
     X:    -0.0326      Y:    -0.0152      Z:     0.0065     Total:     0.0365

  Dipole Moment: [D]
     X:    -0.0828      Y:    -0.0385      Z:     0.0166     Total:     0.0928

*** tstop() called on ds3 at Tue Apr 28 03:38:22 2020
Module time:
	user time   =      30.76 seconds =       0.51 minutes
	system time =      12.42 seconds =       0.21 minutes
	total time  =         42 seconds =       0.70 minutes
Total time:
	user time   =      30.76 seconds =       0.51 minutes
	system time =      12.42 seconds =       0.21 minutes
	total time  =         42 seconds =       0.70 minutes
                                     G D M A

                                 by Anthony Stone

                           version 2.2.06, 22 June 2011

               Distributed Multipoles from Gaussian wavefunctions

Starting at 3:38:22 on 28 Apr 2020

Using SCF density matrix from file ./SSI/SSI-035GLU-189PRO-1-dimer.test.31923.fchk

                         Distributed Multipole Analysis

Standard DMA

Positions and radii in angstrom
Multipole moments in atomic units, ea_0^k for rank k

C          x =  1.726262  y = -0.457579  z = -0.259924 angstrom
           Maximum rank =  0   Radius =  0.650 angstrom
                   Q00  =  -0.080937

C          x =  2.003262  y = -0.889579  z = -1.698924 angstrom
           Maximum rank =  0   Radius =  0.650 angstrom
                   Q00  =  -0.241179

C          x =  2.386262  y = -1.359579  z =  0.772076 angstrom
           Maximum rank =  0   Radius =  0.650 angstrom
                   Q00  =  -0.244891

H          x =  2.031262  y =  0.577421  z = -0.102924 angstrom
           Maximum rank =  0   Radius =  0.325 angstrom
                   Q00  =   0.046759

H          x =  0.665262  y = -0.528579  z = -0.133924 angstrom
           Maximum rank =  0   Radius =  0.325 angstrom
                   Q00  =   0.047115

H          x =  1.578262  y = -0.146579  z = -2.375924 angstrom
           Maximum rank =  0   Radius =  0.325 angstrom
                   Q00  =   0.083232

H          x =  2.443262  y = -2.380579  z =  0.391076 angstrom
           Maximum rank =  0   Radius =  0.325 angstrom
                   Q00  =   0.073814

H          x =  3.410262  y = -1.020579  z =  0.944076 angstrom
           Maximum rank =  0   Radius =  0.325 angstrom
                   Q00  =   0.078491

H          x =  1.540872  y = -1.868494  z = -1.893654 angstrom
           Maximum rank =  0   Radius =  0.325 angstrom
                   Q00  =   0.079176

H          x =  3.091012  y = -0.928764  z = -1.857844 angstrom
           Maximum rank =  0   Radius =  0.325 angstrom
                   Q00  =   0.072592

H          x =  1.831052  y = -1.371901  z =  1.721596 angstrom
           Maximum rank =  0   Radius =  0.325 angstrom
                   Q00  =   0.080108

C          x = -1.847738  y =  0.283421  z =  0.421076 angstrom
           Maximum rank =  0   Radius =  0.650 angstrom
                   Q00  =  -0.079388

C          x = -2.614738  y =  1.090421  z =  1.454076 angstrom
           Maximum rank =  0   Radius =  0.650 angstrom
                   Q00  =  -0.228070

C          x = -1.662738  y =  1.308421  z = -0.685924 angstrom
           Maximum rank =  0   Radius =  0.650 angstrom
                   Q00  =  -0.226758

H          x = -2.401738  y = -0.596579  z =  0.095076 angstrom
           Maximum rank =  0   Radius =  0.325 angstrom
                   Q00  =   0.058653

H          x = -0.920738  y =  0.002421  z =  0.902076 angstrom
           Maximum rank =  0   Radius =  0.325 angstrom
                   Q00  =   0.052176

H          x = -3.645738  y =  1.246421  z =  1.135076 angstrom
           Maximum rank =  0   Radius =  0.325 angstrom
                   Q00  =   0.076626

H          x = -2.591738  y =  0.621421  z =  2.437076 angstrom
           Maximum rank =  0   Radius =  0.325 angstrom
                   Q00  =   0.078304

H          x = -0.808738  y =  1.037421  z = -1.307924 angstrom
           Maximum rank =  0   Radius =  0.325 angstrom
                   Q00  =   0.081340

H          x = -2.066508  y =  2.044060  z =  1.450466 angstrom
           Maximum rank =  0   Radius =  0.325 angstrom
                   Q00  =   0.047902

H          x = -1.473018  y =  2.238192  z = -0.129564 angstrom
           Maximum rank =  0   Radius =  0.325 angstrom
                   Q00  =   0.062163

H          x = -2.570808  y =  1.366122  z = -1.304044 angstrom
           Maximum rank =  0   Radius =  0.325 angstrom
                   Q00  =   0.082774

Total multipoles referred to origin at
           x =   0.000000,  y =    0.000000,  z =    0.000000 angstrom
                   Q00  =  -0.000000

Finished at 3:38:22 on 28 Apr 2020

  DMA results are available in the Python driver through the
	  variable('DMA DISTRIBUTED MULTIPOLES')
  and
	  variable('DMA TOTAL MULTIPOLES')
  commands.

    Psi4 stopped on: Tuesday, 28 April 2020 03:38AM
    Psi4 wall time for execution: 0:00:42.30

*** Psi4 exiting successfully. Buy a developer a beer!
