                               Psi4 1.3.2 release

  ==> Input File <==

--------------------------------------------------------------------------
import numpy as np
set {scf_type pk
basis cc-pvdz
d_convergence 10
gdma_switch   0
gdma_limit    0
gdma_origin   [ 0.0,  0.0,  0.0 ]
}
molecule test {
    units Angstrom
    0 1
    --
    0 1
    C               -1.016349152199268     0.500896275223501     0.437320406102307
    C               -1.404349152199268     1.977896275223501     0.313320406102307
    C                0.465650847800732     0.278896275223501     0.567320406102307
    C                1.080650847800732     0.349896275223501     1.812320406102306
    C                1.239650847800732     0.019896275223501    -0.559679593897693
    C                2.450650847800732     0.153896275223501     1.930320406102307
    C                2.609650847800732    -0.176103724776499    -0.445679593897693
    C                3.217650847800732    -0.107103724776499     0.800320406102307
    H               -1.517349152199268     0.068896275223501     1.304320406102306
    H               -1.367349152199268    -0.033103724776499    -0.439679593897693
    H               -1.170349152199268     2.474896275223501     1.257320406102307
    H                0.489650847800732     0.553896275223501     2.694320406102306
    H                0.776650847800732    -0.034103724776499    -1.534679593897693
    H                2.918650847800732     0.199896275223501     2.903320406102306
    H                3.202650847800733    -0.375103724776499    -1.328679593897693
    H                4.285650847800732    -0.251103724776499     0.889320406102307
    H               -2.479859152199268     2.074086275223501     0.103520406102307
    H               -0.820949152199268     2.456936275223501    -0.486779593897693
    C               -3.125349152199268    -0.914103724776499    -2.412679593897693
    C               -4.064349152199268    -1.962103724776499    -1.822679593897693
    H               -3.214349152199268    -0.909103724776499    -3.498679593897694
    H               -3.393349152199268     0.076896275223501    -2.049679593897693
    H               -2.093349152199268    -1.140103724776499    -2.149679593897694
    H               -5.038349152199268    -1.839103724776500    -2.291679593897693
    H               -3.689689152199268    -2.978423724776499    -2.014319593897693
    H               -4.194989152199268    -1.797543724776500    -0.742929593897693

}
e, wfn = energy('scf', return_wfn=True)
gdma(wfn)
dmavals = variable('DMA DISTRIBUTED MULTIPOLES')
charges = np.array(dmavals)
print(charges)
np.save('SSI-048PHE-101LEU-1-dimer.npy', np.array(charges))--------------------------------------------------------------------------

*** tstart() called on ds3
*** at Sun Apr 26 17:31:49 2020

   => Loading Basis Set <=

    Name: CC-PVDZ
    Role: ORBITAL
    Keyword: BASIS
    atoms 1-8, 19-20  entry C          line   138 file /theoryfs2/ds/metcalf/miniconda2/envs/tf2gpu/share/psi4/basis/cc-pvdz.gbs
    atoms 9-18, 21-26 entry H          line    22 file /theoryfs2/ds/metcalf/miniconda2/envs/tf2gpu/share/psi4/basis/cc-pvdz.gbs

         ---------------------------------------------------------
                                   SCF
               by Justin Turney, Rob Parrish, Andy Simmonett
                          and Daniel G. A. Smith
                              RHF Reference
                        1 Threads,    500 MiB Core
         ---------------------------------------------------------

  ==> Geometry <==

    Molecular point group: c1
    Full point group: C1

    Geometry (in Angstrom), charge = 0, multiplicity = 1:

       Center              X                  Y                   Z               Mass
    ------------   -----------------  -----------------  -----------------  -----------------
         C           -1.016349152199     0.500896275224     0.437320406102    12.000000000000
         C           -1.404349152199     1.977896275224     0.313320406102    12.000000000000
         C            0.465650847801     0.278896275224     0.567320406102    12.000000000000
         C            1.080650847801     0.349896275224     1.812320406102    12.000000000000
         C            1.239650847801     0.019896275224    -0.559679593898    12.000000000000
         C            2.450650847801     0.153896275224     1.930320406102    12.000000000000
         C            2.609650847801    -0.176103724776    -0.445679593898    12.000000000000
         C            3.217650847801    -0.107103724776     0.800320406102    12.000000000000
         H           -1.517349152199     0.068896275224     1.304320406102     1.007825032230
         H           -1.367349152199    -0.033103724776    -0.439679593898     1.007825032230
         H           -1.170349152199     2.474896275224     1.257320406102     1.007825032230
         H            0.489650847801     0.553896275224     2.694320406102     1.007825032230
         H            0.776650847801    -0.034103724776    -1.534679593898     1.007825032230
         H            2.918650847801     0.199896275224     2.903320406102     1.007825032230
         H            3.202650847801    -0.375103724776    -1.328679593898     1.007825032230
         H            4.285650847801    -0.251103724776     0.889320406102     1.007825032230
         H           -2.479859152199     2.074086275224     0.103520406102     1.007825032230
         H           -0.820949152199     2.456936275224    -0.486779593898     1.007825032230
         C           -3.125349152199    -0.914103724776    -2.412679593898    12.000000000000
         C           -4.064349152199    -1.962103724776    -1.822679593898    12.000000000000
         H           -3.214349152199    -0.909103724776    -3.498679593898     1.007825032230
         H           -3.393349152199     0.076896275224    -2.049679593898     1.007825032230
         H           -2.093349152199    -1.140103724776    -2.149679593898     1.007825032230
         H           -5.038349152199    -1.839103724777    -2.291679593898     1.007825032230
         H           -3.689689152199    -2.978423724776    -2.014319593898     1.007825032230
         H           -4.194989152199    -1.797543724777    -0.742929593898     1.007825032230

  Running in c1 symmetry.

  Rotational constants: A =      0.06935  B =      0.01626  C =      0.01469 [cm^-1]
  Rotational constants: A =   2078.99386  B =    487.34835  C =    440.42028 [MHz]
  Nuclear repulsion =  482.326777924228736

  Charge       = 0
  Multiplicity = 1
  Electrons    = 76
  Nalpha       = 38
  Nbeta        = 38

  ==> Algorithm <==

  SCF Algorithm Type is PK.
  DIIS enabled.
  MOM disabled.
  Fractional occupation disabled.
  Guess Type is SAD.
  Energy threshold   = 1.00e-06
  Density threshold  = 1.00e-10
  Integral threshold = 0.00e+00

  ==> Primary Basis <==

  Basis Set: CC-PVDZ
    Blend: CC-PVDZ
    Number of shells: 108
    Number of basis function: 220
    Number of Cartesian functions: 230
    Spherical Harmonics?: true
    Max angular momentum: 2

  ==> Pre-Iterations <==

   -------------------------------------------------------
    Irrep   Nso     Nmo     Nalpha   Nbeta   Ndocc  Nsocc
   -------------------------------------------------------
     A        220     220       0       0       0       0
   -------------------------------------------------------
    Total     220     220      38      38      38       0
   -------------------------------------------------------

  ==> Integral Setup <==

  Using integral reordering PK algorithm.
  Sizing the integral batches needed.
  Building batch lookup table.
   Calculation information:
      Number of atoms:                  26
      Number of AO shells:             108
      Number of primitives:            300
      Number of atomic orbitals:       230
      Number of basis functions:       220

      Integral cutoff                 1.00e-12
      Number of threads:                 1

	Batch   1 pq = [       0,    9405] index = [             0,44231715] size =     44231715
	Batch   2 pq = [    9405,   13301] index = [      44231715,88464951] size =     44233236
	Batch   3 pq = [   13301,   16290] index = [      88464951,132690195] size =     44225244
	Batch   4 pq = [   16290,   18810] index = [     132690195,176917455] size =     44227260
	Batch   5 pq = [   18810,   21030] index = [     176917455,221140965] size =     44223510
	Batch   6 pq = [   21030,   23037] index = [     221140965,265363203] size =     44222238
	Batch   7 pq = [   23037,   24310] index = [     265363203,295500205] size =     30137002
  Task number: 27
  Buffer size: 11059200
  Buffer per thread: 2
  We computed 14467833 shell quartets total.
  Whereas there are 17325441 unique shell quartets.

  ==> DiskJK: Disk-Based J/K Matrices <==

    J tasked:                  Yes
    K tasked:                  Yes
    wK tasked:                  No
    Memory [MiB]:              375
    Schwarz Cutoff:          1E-12

    OpenMP threads:              1

  Minimum eigenvalue in the overlap matrix is 3.0249958609E-04.
  Using Symmetric Orthogonalization.

  SCF Guess: Superposition of Atomic Densities via on-the-fly atomic UHF.

  ==> Iterations <==

                        Total Energy        Delta E     RMS |[F,P]|

   @RHF iter SAD:  -386.91815879153052   -3.86918e+02   0.00000e+00
   @RHF iter   1:  -387.77661649697279   -8.58458e-01   2.73058e-03 DIIS
   @RHF iter   2:  -387.99193269763697   -2.15316e-01   1.13670e-03 DIIS
   @RHF iter   3:  -388.02611232236836   -3.41796e-02   2.47319e-04 DIIS
   @RHF iter   4:  -388.02894163694577   -2.82931e-03   5.63308e-05 DIIS
   @RHF iter   5:  -388.02903788630891   -9.62494e-05   2.08507e-05 DIIS
   @RHF iter   6:  -388.02905157020876   -1.36839e-05   3.94736e-06 DIIS
   @RHF iter   7:  -388.02905222625566   -6.56047e-07   1.17781e-06 DIIS
   @RHF iter   8:  -388.02905228774614   -6.14905e-08   3.66034e-07 DIIS
   @RHF iter   9:  -388.02905230046554   -1.27194e-08   1.72685e-07 DIIS
   @RHF iter  10:  -388.02905230451768   -4.05214e-09   8.65917e-08 DIIS
   @RHF iter  11:  -388.02905230556792   -1.05024e-09   2.45325e-08 DIIS
   @RHF iter  12:  -388.02905230563294   -6.50289e-11   9.02811e-09 DIIS
   @RHF iter  13:  -388.02905230564022   -7.27596e-12   3.59629e-09 DIIS
   @RHF iter  14:  -388.02905230564261   -2.38742e-12   8.63870e-10 DIIS
   @RHF iter  15:  -388.02905230563937    3.24007e-12   3.25924e-10 DIIS
   @RHF iter  16:  -388.02905230564005   -6.82121e-13   9.20453e-11 DIIS
  Energy and wave function converged.

  ==> Post-Iterations <==

    Orbital Energies [Eh]
    ---------------------

    Doubly Occupied:

       1A    -11.235396     2A    -11.233956     3A    -11.233674
       4A    -11.229703     5A    -11.228751     6A    -11.228629
       7A    -11.225493     8A    -11.223138     9A    -11.220897
      10A    -11.219227    11A     -1.154749    12A     -1.062366
      13A     -1.022021    14A     -1.011983    15A     -0.980532
      16A     -0.860863    17A     -0.839740    18A     -0.824515
      19A     -0.785254    20A     -0.690465    21A     -0.640588
      22A     -0.632838    23A     -0.603636    24A     -0.600714
      25A     -0.589494    26A     -0.585761    27A     -0.575729
      28A     -0.541617    29A     -0.517376    30A     -0.504208
      31A     -0.498473    32A     -0.491158    33A     -0.487143
      34A     -0.481213    35A     -0.471508    36A     -0.466967
      37A     -0.332117    38A     -0.321091

    Virtual:

      39A      0.138011    40A      0.139917    41A      0.169660
      42A      0.188544    43A      0.200585    44A      0.208013
      45A      0.221069    46A      0.235072    47A      0.242528
      48A      0.247904    49A      0.256004    50A      0.265316
      51A      0.280462    52A      0.289597    53A      0.299119
      54A      0.311538    55A      0.313614    56A      0.346190
      57A      0.363399    58A      0.388885    59A      0.394769
      60A      0.421263    61A      0.453924    62A      0.469184
      63A      0.490944    64A      0.498450    65A      0.569788
      66A      0.588154    67A      0.596855    68A      0.604415
      69A      0.612823    70A      0.630648    71A      0.637141
      72A      0.643162    73A      0.679523    74A      0.690962
      75A      0.695943    76A      0.719848    77A      0.732067
      78A      0.739599    79A      0.742261    80A      0.746654
      81A      0.752707    82A      0.767826    83A      0.794211
      84A      0.803458    85A      0.830633    86A      0.834250
      87A      0.846402    88A      0.859483    89A      0.863690
      90A      0.877174    91A      0.886971    92A      0.889902
      93A      0.893151    94A      0.901215    95A      0.903599
      96A      0.907040    97A      0.915891    98A      0.925992
      99A      0.927287   100A      0.940945   101A      0.949346
     102A      0.957539   103A      0.978064   104A      0.990822
     105A      1.009325   106A      1.025119   107A      1.057959
     108A      1.080625   109A      1.115963   110A      1.123663
     111A      1.141063   112A      1.147659   113A      1.156957
     114A      1.181522   115A      1.216501   116A      1.225189
     117A      1.238740   118A      1.249109   119A      1.251609
     120A      1.269349   121A      1.295178   122A      1.303926
     123A      1.315747   124A      1.325543   125A      1.407210
     126A      1.433437   127A      1.453916   128A      1.475059
     129A      1.490239   130A      1.510788   131A      1.537531
     132A      1.575964   133A      1.620512   134A      1.630678
     135A      1.677573   136A      1.682326   137A      1.691727
     138A      1.701689   139A      1.730531   140A      1.741444
     141A      1.764462   142A      1.773419   143A      1.840711
     144A      1.853629   145A      1.857111   146A      1.872980
     147A      1.878821   148A      1.883845   149A      1.889596
     150A      1.899118   151A      1.905699   152A      1.911898
     153A      1.922326   154A      1.932920   155A      1.935675
     156A      1.939144   157A      1.943056   158A      1.946897
     159A      1.951985   160A      1.962604   161A      1.966800
     162A      1.975259   163A      1.983996   164A      1.991197
     165A      2.014214   166A      2.028369   167A      2.043185
     168A      2.057934   169A      2.065606   170A      2.092065
     171A      2.112385   172A      2.140316   173A      2.150835
     174A      2.154883   175A      2.165131   176A      2.169584
     177A      2.173710   178A      2.196198   179A      2.247164
     180A      2.249358   181A      2.276911   182A      2.295705
     183A      2.306935   184A      2.313623   185A      2.315093
     186A      2.320797   187A      2.391418   188A      2.439491
     189A      2.453715   190A      2.466848   191A      2.484422
     192A      2.497122   193A      2.520500   194A      2.551393
     195A      2.577398   196A      2.584492   197A      2.594377
     198A      2.641576   199A      2.742731   200A      2.761052
     201A      2.767108   202A      2.777711   203A      2.789414
     204A      2.791154   205A      2.803770   206A      2.842241
     207A      2.845474   208A      2.859865   209A      2.875283
     210A      2.928052   211A      2.967406   212A      2.973962
     213A      2.991581   214A      3.006359   215A      3.026710
     216A      3.070756   217A      3.198068   218A      3.209977
     219A      3.314497   220A      3.982308

    Final Occupation by Irrep:
              A
    DOCC [    38 ]

  @RHF Final Energy:  -388.02905230564005

   => Energetics <=

    Nuclear Repulsion Energy =            482.3267779242287361
    One-Electron Energy =               -1479.0056915409734302
    Two-Electron Energy =                 608.6498613111045870
    Total Energy =                       -388.0290523056401071

Computation Completed

Properties will be evaluated at   0.000000,   0.000000,   0.000000 [a0]

Properties computed using the SCF density matrix

  Nuclear Dipole Moment: [e a0]
     X:   -16.2245      Y:    -1.3614      Z:    -6.9229

  Electronic Dipole Moment: [e a0]
     X:    16.0833      Y:     1.3763      Z:     6.8819

  Dipole Moment: [e a0]
     X:    -0.1412      Y:     0.0149      Z:    -0.0410     Total:     0.1477

  Dipole Moment: [D]
     X:    -0.3588      Y:     0.0379      Z:    -0.1041     Total:     0.3755

*** tstop() called on ds3 at Sun Apr 26 17:35:54 2020
Module time:
	user time   =     103.87 seconds =       1.73 minutes
	system time =      41.78 seconds =       0.70 minutes
	total time  =        245 seconds =       4.08 minutes
Total time:
	user time   =     103.87 seconds =       1.73 minutes
	system time =      41.78 seconds =       0.70 minutes
	total time  =        245 seconds =       4.08 minutes
                                     G D M A

                                 by Anthony Stone

                           version 2.2.06, 22 June 2011

               Distributed Multipoles from Gaussian wavefunctions

Starting at 17:35:54 on 26 Apr 2020

Using SCF density matrix from file ./SSI/SSI-048PHE-101LEU-1-dimer.test.18773.fchk

                         Distributed Multipole Analysis

Standard DMA

Positions and radii in angstrom
Multipole moments in atomic units, ea_0^k for rank k

C          x = -1.016349  y =  0.500896  z =  0.437320 angstrom
           Maximum rank =  0   Radius =  0.650 angstrom
                   Q00  =  -0.032858

C          x = -1.404349  y =  1.977896  z =  0.313320 angstrom
           Maximum rank =  0   Radius =  0.650 angstrom
                   Q00  =  -0.239561

C          x =  0.465651  y =  0.278896  z =  0.567320 angstrom
           Maximum rank =  0   Radius =  0.650 angstrom
                   Q00  =  -0.105934

C          x =  1.080651  y =  0.349896  z =  1.812320 angstrom
           Maximum rank =  0   Radius =  0.650 angstrom
                   Q00  =  -0.097320

C          x =  1.239651  y =  0.019896  z = -0.559680 angstrom
           Maximum rank =  0   Radius =  0.650 angstrom
                   Q00  =   0.005386

C          x =  2.450651  y =  0.153896  z =  1.930320 angstrom
           Maximum rank =  0   Radius =  0.650 angstrom
                   Q00  =  -0.059162

C          x =  2.609651  y = -0.176104  z = -0.445680 angstrom
           Maximum rank =  0   Radius =  0.650 angstrom
                   Q00  =  -0.068709

C          x =  3.217651  y = -0.107104  z =  0.800320 angstrom
           Maximum rank =  0   Radius =  0.650 angstrom
                   Q00  =  -0.088623

H          x = -1.517349  y =  0.068896  z =  1.304320 angstrom
           Maximum rank =  0   Radius =  0.325 angstrom
                   Q00  =   0.065286

H          x = -1.367349  y = -0.033104  z = -0.439680 angstrom
           Maximum rank =  0   Radius =  0.325 angstrom
                   Q00  =   0.075703

H          x = -1.170349  y =  2.474896  z =  1.257320 angstrom
           Maximum rank =  0   Radius =  0.325 angstrom
                   Q00  =   0.082594

H          x =  0.489651  y =  0.553896  z =  2.694320 angstrom
           Maximum rank =  0   Radius =  0.325 angstrom
                   Q00  =   0.054205

H          x =  0.776651  y = -0.034104  z = -1.534680 angstrom
           Maximum rank =  0   Radius =  0.325 angstrom
                   Q00  =   0.055113

H          x =  2.918651  y =  0.199896  z =  2.903320 angstrom
           Maximum rank =  0   Radius =  0.325 angstrom
                   Q00  =   0.063793

H          x =  3.202651  y = -0.375104  z = -1.328680 angstrom
           Maximum rank =  0   Radius =  0.325 angstrom
                   Q00  =   0.064052

H          x =  4.285651  y = -0.251104  z =  0.889320 angstrom
           Maximum rank =  0   Radius =  0.325 angstrom
                   Q00  =   0.060628

H          x = -2.479859  y =  2.074086  z =  0.103520 angstrom
           Maximum rank =  0   Radius =  0.325 angstrom
                   Q00  =   0.081891

H          x = -0.820949  y =  2.456936  z = -0.486780 angstrom
           Maximum rank =  0   Radius =  0.325 angstrom
                   Q00  =   0.084400

C          x = -3.125349  y = -0.914104  z = -2.412680 angstrom
           Maximum rank =  0   Radius =  0.650 angstrom
                   Q00  =  -0.240211

C          x = -4.064349  y = -1.962104  z = -1.822680 angstrom
           Maximum rank =  0   Radius =  0.650 angstrom
                   Q00  =  -0.232785

H          x = -3.214349  y = -0.909104  z = -3.498680 angstrom
           Maximum rank =  0   Radius =  0.325 angstrom
                   Q00  =   0.078347

H          x = -3.393349  y =  0.076896  z = -2.049680 angstrom
           Maximum rank =  0   Radius =  0.325 angstrom
                   Q00  =   0.078825

H          x = -2.093349  y = -1.140104  z = -2.149680 angstrom
           Maximum rank =  0   Radius =  0.325 angstrom
                   Q00  =   0.078179

H          x = -5.038349  y = -1.839104  z = -2.291680 angstrom
           Maximum rank =  0   Radius =  0.325 angstrom
                   Q00  =   0.077209

H          x = -3.689689  y = -2.978424  z = -2.014320 angstrom
           Maximum rank =  0   Radius =  0.325 angstrom
                   Q00  =   0.081649

H          x = -4.194989  y = -1.797544  z = -0.742930 angstrom
           Maximum rank =  0   Radius =  0.325 angstrom
                   Q00  =   0.077906

Total multipoles referred to origin at
           x =   0.000000,  y =    0.000000,  z =    0.000000 angstrom
                   Q00  =  -0.000000

Finished at 17:35:54 on 26 Apr 2020

  DMA results are available in the Python driver through the
	  variable('DMA DISTRIBUTED MULTIPOLES')
  and
	  variable('DMA TOTAL MULTIPOLES')
  commands.

    Psi4 stopped on: Sunday, 26 April 2020 05:35PM
    Psi4 wall time for execution: 0:04:05.04

*** Psi4 exiting successfully. Buy a developer a beer!
