                               Psi4 1.3.2 release

  ==> Input File <==

--------------------------------------------------------------------------
import numpy as np
set {scf_type pk
basis cc-pvdz
d_convergence 10
gdma_switch   0
gdma_limit    0
gdma_origin   [ 0.0,  0.0,  0.0 ]
}
molecule test {
    units Angstrom
    0 1
    --
    0 1
    C               -0.784930705604237     0.171950973290646    -2.164265616367909
    C               -1.917930705604237    -0.771049026709354    -2.576265616367909
    C               -1.125930705604237     1.653950973290646    -2.252265616367908
    H               -0.499930705604237    -0.050049026709354    -1.141265616367908
    H                0.084069294395763     0.009950973290646    -2.801265616367909
    H               -2.154930705604236    -0.579049026709354    -3.624265616367909
    H               -1.878930705604237     1.914950973290646    -1.512265616367908
    H               -0.227930705604237     2.237950973290646    -2.045265616367908
    H               -1.478930705604237     1.894950973290646    -3.253265616367908
    H               -1.585210705604237    -1.814189026709354    -2.470595616367909
    H               -2.823970705604237    -0.587559026709354    -1.980095616367908
    C                1.552069294395763     2.076950973290646     1.204734383632092
    C                0.961069294395763     0.706950973290646     1.119734383632092
    C                1.689069294395763    -0.333049026709354     0.540734383632092
    C               -0.289930705604237     0.438950973290646     1.679734383632092
    C                1.164069294395763    -1.627049026709354     0.523734383632092
    C               -0.814930705604237    -0.851049026709354     1.655734383632092
    C               -0.078930705604237    -1.887049026709354     1.086734383632092
    H                0.773069294395763     2.811950973290647     1.407734383632092
    H                1.987069294395763     2.316950973290647     0.233734383632092
    H                2.659069294395764    -0.142049026709354     0.101734383632092
    H               -0.860930705604237     1.236950973290647     2.129734383632091
    H                1.723069294395763    -2.430049026709354     0.065734383632092
    H               -1.782930705604237    -1.057049026709354     2.089734383632092
    H               -0.474930705604237    -2.893049026709353     1.076734383632092
    H                2.330919294395764     2.136090973290647     1.979264383632092

}
e, wfn = energy('scf', return_wfn=True)
gdma(wfn)
dmavals = variable('DMA DISTRIBUTED MULTIPOLES')
charges = np.array(dmavals)
print(charges)
np.save('SSI-017ILE-149PHE-1-dimer.npy', np.array(charges))--------------------------------------------------------------------------

*** tstart() called on ds3
*** at Mon Apr 27 07:42:40 2020

   => Loading Basis Set <=

    Name: CC-PVDZ
    Role: ORBITAL
    Keyword: BASIS
    atoms 1-3, 12-18  entry C          line   138 file /theoryfs2/ds/metcalf/miniconda2/envs/tf2gpu/share/psi4/basis/cc-pvdz.gbs
    atoms 4-11, 19-26 entry H          line    22 file /theoryfs2/ds/metcalf/miniconda2/envs/tf2gpu/share/psi4/basis/cc-pvdz.gbs

         ---------------------------------------------------------
                                   SCF
               by Justin Turney, Rob Parrish, Andy Simmonett
                          and Daniel G. A. Smith
                              RHF Reference
                        1 Threads,    500 MiB Core
         ---------------------------------------------------------

  ==> Geometry <==

    Molecular point group: c1
    Full point group: C1

    Geometry (in Angstrom), charge = 0, multiplicity = 1:

       Center              X                  Y                   Z               Mass
    ------------   -----------------  -----------------  -----------------  -----------------
         C           -0.784930705604     0.171950973291    -2.164265616368    12.000000000000
         C           -1.917930705604    -0.771049026709    -2.576265616368    12.000000000000
         C           -1.125930705604     1.653950973291    -2.252265616368    12.000000000000
         H           -0.499930705604    -0.050049026709    -1.141265616368     1.007825032230
         H            0.084069294396     0.009950973291    -2.801265616368     1.007825032230
         H           -2.154930705604    -0.579049026709    -3.624265616368     1.007825032230
         H           -1.878930705604     1.914950973291    -1.512265616368     1.007825032230
         H           -0.227930705604     2.237950973291    -2.045265616368     1.007825032230
         H           -1.478930705604     1.894950973291    -3.253265616368     1.007825032230
         H           -1.585210705604    -1.814189026709    -2.470595616368     1.007825032230
         H           -2.823970705604    -0.587559026709    -1.980095616368     1.007825032230
         C            1.552069294396     2.076950973291     1.204734383632    12.000000000000
         C            0.961069294396     0.706950973291     1.119734383632    12.000000000000
         C            1.689069294396    -0.333049026709     0.540734383632    12.000000000000
         C           -0.289930705604     0.438950973291     1.679734383632    12.000000000000
         C            1.164069294396    -1.627049026709     0.523734383632    12.000000000000
         C           -0.814930705604    -0.851049026709     1.655734383632    12.000000000000
         C           -0.078930705604    -1.887049026709     1.086734383632    12.000000000000
         H            0.773069294396     2.811950973291     1.407734383632     1.007825032230
         H            1.987069294396     2.316950973291     0.233734383632     1.007825032230
         H            2.659069294396    -0.142049026709     0.101734383632     1.007825032230
         H           -0.860930705604     1.236950973291     2.129734383632     1.007825032230
         H            1.723069294396    -2.430049026709     0.065734383632     1.007825032230
         H           -1.782930705604    -1.057049026709     2.089734383632     1.007825032230
         H           -0.474930705604    -2.893049026709     1.076734383632     1.007825032230
         H            2.330919294396     2.136090973291     1.979264383632     1.007825032230

  Running in c1 symmetry.

  Rotational constants: A =      0.04880  B =      0.02888  C =      0.02300 [cm^-1]
  Rotational constants: A =   1462.86534  B =    865.80115  C =    689.41685 [MHz]
  Nuclear repulsion =  507.490438402845200

  Charge       = 0
  Multiplicity = 1
  Electrons    = 76
  Nalpha       = 38
  Nbeta        = 38

  ==> Algorithm <==

  SCF Algorithm Type is PK.
  DIIS enabled.
  MOM disabled.
  Fractional occupation disabled.
  Guess Type is SAD.
  Energy threshold   = 1.00e-06
  Density threshold  = 1.00e-10
  Integral threshold = 0.00e+00

  ==> Primary Basis <==

  Basis Set: CC-PVDZ
    Blend: CC-PVDZ
    Number of shells: 108
    Number of basis function: 220
    Number of Cartesian functions: 230
    Spherical Harmonics?: true
    Max angular momentum: 2

  ==> Pre-Iterations <==

   -------------------------------------------------------
    Irrep   Nso     Nmo     Nalpha   Nbeta   Ndocc  Nsocc
   -------------------------------------------------------
     A        220     220       0       0       0       0
   -------------------------------------------------------
    Total     220     220      38      38      38       0
   -------------------------------------------------------

  ==> Integral Setup <==

  Using integral reordering PK algorithm.
  Sizing the integral batches needed.
  Building batch lookup table.
   Calculation information:
      Number of atoms:                  26
      Number of AO shells:             108
      Number of primitives:            300
      Number of atomic orbitals:       230
      Number of basis functions:       220

      Integral cutoff                 1.00e-12
      Number of threads:                 1

	Batch   1 pq = [       0,    9405] index = [             0,44231715] size =     44231715
	Batch   2 pq = [    9405,   13301] index = [      44231715,88464951] size =     44233236
	Batch   3 pq = [   13301,   16290] index = [      88464951,132690195] size =     44225244
	Batch   4 pq = [   16290,   18810] index = [     132690195,176917455] size =     44227260
	Batch   5 pq = [   18810,   21030] index = [     176917455,221140965] size =     44223510
	Batch   6 pq = [   21030,   23037] index = [     221140965,265363203] size =     44222238
	Batch   7 pq = [   23037,   24310] index = [     265363203,295500205] size =     30137002
  Task number: 27
  Buffer size: 11059200
  Buffer per thread: 2
  We computed 18117430 shell quartets total.
  Whereas there are 17325441 unique shell quartets.
     4.57 percent of shell quartets recomputed by reordering.

  ==> DiskJK: Disk-Based J/K Matrices <==

    J tasked:                  Yes
    K tasked:                  Yes
    wK tasked:                  No
    Memory [MiB]:              375
    Schwarz Cutoff:          1E-12

    OpenMP threads:              1

  Minimum eigenvalue in the overlap matrix is 3.1573132477E-04.
  Using Symmetric Orthogonalization.

  SCF Guess: Superposition of Atomic Densities via on-the-fly atomic UHF.

  ==> Iterations <==

                        Total Energy        Delta E     RMS |[F,P]|

   @RHF iter SAD:  -386.92011784978854   -3.86920e+02   0.00000e+00
   @RHF iter   1:  -387.77057718376187   -8.50459e-01   2.76019e-03 DIIS
   @RHF iter   2:  -387.99030681482907   -2.19730e-01   1.16415e-03 DIIS
   @RHF iter   3:  -388.02588832166225   -3.55815e-02   2.51122e-04 DIIS
   @RHF iter   4:  -388.02877171576529   -2.88339e-03   5.41128e-05 DIIS
   @RHF iter   5:  -388.02886623816562   -9.45224e-05   1.68765e-05 DIIS
   @RHF iter   6:  -388.02887510973693   -8.87157e-06   4.98074e-06 DIIS
   @RHF iter   7:  -388.02887597003610   -8.60299e-07   1.17175e-06 DIIS
   @RHF iter   8:  -388.02887602280390   -5.27678e-08   2.55051e-07 DIIS
   @RHF iter   9:  -388.02887602679613   -3.99223e-09   9.36425e-08 DIIS
   @RHF iter  10:  -388.02887602734040   -5.44276e-10   3.95587e-08 DIIS
   @RHF iter  11:  -388.02887602747819   -1.37788e-10   1.50274e-08 DIIS
   @RHF iter  12:  -388.02887602750769   -2.95017e-11   7.74508e-09 DIIS
   @RHF iter  13:  -388.02887602751377   -6.08225e-12   3.38667e-09 DIIS
   @RHF iter  14:  -388.02887602751611   -2.33058e-12   9.89642e-10 DIIS
   @RHF iter  15:  -388.02887602752111   -5.00222e-12   2.88156e-10 DIIS
   @RHF iter  16:  -388.02887602751883    2.27374e-12   8.57311e-11 DIIS
  Energy and wave function converged.

  ==> Post-Iterations <==

    Orbital Energies [Eh]
    ---------------------

    Doubly Occupied:

       1A    -11.241885     2A    -11.237936     3A    -11.237433
       4A    -11.232729     5A    -11.232616     6A    -11.232465
       7A    -11.229510     8A    -11.209042     9A    -11.206070
      10A    -11.203511    11A     -1.154738    12A     -1.047725
      13A     -1.043075    14A     -1.013052    15A     -0.932510
      16A     -0.917306    17A     -0.827081    18A     -0.795776
      19A     -0.784929    20A     -0.692302    21A     -0.633322
      22A     -0.632142    23A     -0.617936    24A     -0.587392
      25A     -0.584476    26A     -0.577883    27A     -0.564097
      28A     -0.542016    29A     -0.536593    30A     -0.525401
      31A     -0.493880    32A     -0.486273    33A     -0.483312
      34A     -0.462182    35A     -0.458452    36A     -0.448104
      37A     -0.334326    38A     -0.323574

    Virtual:

      39A      0.131772    40A      0.139644    41A      0.169688
      42A      0.192477    43A      0.204145    44A      0.207883
      45A      0.237837    46A      0.244155    47A      0.249650
      48A      0.251114    49A      0.256152    50A      0.264042
      51A      0.276258    52A      0.289236    53A      0.294277
      54A      0.310037    55A      0.315831    56A      0.334169
      57A      0.367083    58A      0.376560    59A      0.378856
      60A      0.435428    61A      0.450328    62A      0.460844
      63A      0.479061    64A      0.493202    65A      0.562424
      66A      0.576008    67A      0.584796    68A      0.589941
      69A      0.600299    70A      0.621640    71A      0.629694
      72A      0.662057    73A      0.678479    74A      0.692569
      75A      0.699519    76A      0.737392    77A      0.740665
      78A      0.746951    79A      0.757686    80A      0.768919
      81A      0.774781    82A      0.788358    83A      0.796490
      84A      0.806761    85A      0.838611    86A      0.847000
      87A      0.854562    88A      0.860360    89A      0.873622
      90A      0.886429    91A      0.892385    92A      0.893183
      93A      0.900958    94A      0.907878    95A      0.911238
      96A      0.915373    97A      0.915973    98A      0.926407
      99A      0.932830   100A      0.938548   101A      0.944869
     102A      0.951013   103A      0.971406   104A      0.984020
     105A      0.997367   106A      1.009335   107A      1.033167
     108A      1.117726   109A      1.124763   110A      1.134911
     111A      1.141820   112A      1.147294   113A      1.155655
     114A      1.170930   115A      1.196348   116A      1.230796
     117A      1.241744   118A      1.251801   119A      1.254112
     120A      1.293776   121A      1.303855   122A      1.316107
     123A      1.322040   124A      1.362669   125A      1.397312
     126A      1.468266   127A      1.485508   128A      1.500419
     129A      1.512952   130A      1.523986   131A      1.547741
     132A      1.568851   133A      1.603254   134A      1.652610
     135A      1.679746   136A      1.688810   137A      1.692673
     138A      1.693231   139A      1.707671   140A      1.735019
     141A      1.745395   142A      1.762849   143A      1.790800
     144A      1.843344   145A      1.856402   146A      1.870865
     147A      1.879211   148A      1.881400   149A      1.887365
     150A      1.901237   151A      1.909619   152A      1.917599
     153A      1.930240   154A      1.937491   155A      1.945552
     156A      1.948306   157A      1.950963   158A      1.968172
     159A      1.970526   160A      1.983241   161A      1.986551
     162A      1.989306   163A      1.999250   164A      2.008841
     165A      2.016305   166A      2.027706   167A      2.043941
     168A      2.060044   169A      2.073913   170A      2.087277
     171A      2.115319   172A      2.136524   173A      2.146129
     174A      2.154514   175A      2.162535   176A      2.177067
     177A      2.184500   178A      2.192214   179A      2.246406
     180A      2.275138   181A      2.287400   182A      2.293096
     183A      2.304527   184A      2.316724   185A      2.321449
     186A      2.336543   187A      2.343970   188A      2.364097
     189A      2.457294   190A      2.479350   191A      2.503643
     192A      2.522025   193A      2.535849   194A      2.552618
     195A      2.602762   196A      2.627872   197A      2.634487
     198A      2.647956   199A      2.744696   200A      2.758102
     201A      2.764221   202A      2.772325   203A      2.780005
     204A      2.789466   205A      2.805520   206A      2.807304
     207A      2.834113   208A      2.842470   209A      2.872829
     210A      2.942195   211A      2.979479   212A      2.979878
     213A      2.995441   214A      3.015004   215A      3.027893
     216A      3.135438   217A      3.153404   218A      3.198070
     219A      3.296966   220A      3.967242

    Final Occupation by Irrep:
              A
    DOCC [    38 ]

  @RHF Final Energy:  -388.02887602751883

   => Energetics <=

    Nuclear Repulsion Energy =            507.4904384028452000
    One-Electron Energy =               -1529.5125282195658656
    Two-Electron Energy =                 633.9932137892017181
    Total Energy =                       -388.0288760275188906

Computation Completed

Properties will be evaluated at   0.000000,   0.000000,   0.000000 [a0]

Properties computed using the SCF density matrix

  Nuclear Dipole Moment: [e a0]
     X:    -3.9480      Y:     4.6936      Z:    -9.1346

  Electronic Dipole Moment: [e a0]
     X:     4.1018      Y:    -4.6291      Z:     9.2737

  Dipole Moment: [e a0]
     X:     0.1537      Y:     0.0645      Z:     0.1391     Total:     0.2172

  Dipole Moment: [D]
     X:     0.3908      Y:     0.1639      Z:     0.3537     Total:     0.5520

*** tstop() called on ds3 at Mon Apr 27 07:46:11 2020
Module time:
	user time   =     128.90 seconds =       2.15 minutes
	system time =      40.60 seconds =       0.68 minutes
	total time  =        211 seconds =       3.52 minutes
Total time:
	user time   =     128.90 seconds =       2.15 minutes
	system time =      40.60 seconds =       0.68 minutes
	total time  =        211 seconds =       3.52 minutes
                                     G D M A

                                 by Anthony Stone

                           version 2.2.06, 22 June 2011

               Distributed Multipoles from Gaussian wavefunctions

Starting at 7:46:11 on 27 Apr 2020

Using SCF density matrix from file ./SSI/SSI-017ILE-149PHE-1-dimer.test.32508.fchk

                         Distributed Multipole Analysis

Standard DMA

Positions and radii in angstrom
Multipole moments in atomic units, ea_0^k for rank k

C          x = -0.784931  y =  0.171951  z = -2.164266 angstrom
           Maximum rank =  0   Radius =  0.650 angstrom
                   Q00  =  -0.067586

C          x = -1.917931  y = -0.771049  z = -2.576266 angstrom
           Maximum rank =  0   Radius =  0.650 angstrom
                   Q00  =  -0.245401

C          x = -1.125931  y =  1.653951  z = -2.252266 angstrom
           Maximum rank =  0   Radius =  0.650 angstrom
                   Q00  =  -0.246705

H          x = -0.499931  y = -0.050049  z = -1.141266 angstrom
           Maximum rank =  0   Radius =  0.325 angstrom
                   Q00  =   0.063649

H          x =  0.084069  y =  0.009951  z = -2.801266 angstrom
           Maximum rank =  0   Radius =  0.325 angstrom
                   Q00  =   0.035019

H          x = -2.154931  y = -0.579049  z = -3.624266 angstrom
           Maximum rank =  0   Radius =  0.325 angstrom
                   Q00  =   0.069617

H          x = -1.878931  y =  1.914951  z = -1.512266 angstrom
           Maximum rank =  0   Radius =  0.325 angstrom
                   Q00  =   0.073918

H          x = -0.227931  y =  2.237951  z = -2.045266 angstrom
           Maximum rank =  0   Radius =  0.325 angstrom
                   Q00  =   0.077647

H          x = -1.478931  y =  1.894951  z = -3.253266 angstrom
           Maximum rank =  0   Radius =  0.325 angstrom
                   Q00  =   0.071563

H          x = -1.585211  y = -1.814189  z = -2.470596 angstrom
           Maximum rank =  0   Radius =  0.325 angstrom
                   Q00  =   0.082353

H          x = -2.823971  y = -0.587559  z = -1.980096 angstrom
           Maximum rank =  0   Radius =  0.325 angstrom
                   Q00  =   0.074727

C          x =  1.552069  y =  2.076951  z =  1.204734 angstrom
           Maximum rank =  0   Radius =  0.650 angstrom
                   Q00  =  -0.192390

C          x =  0.961069  y =  0.706951  z =  1.119734 angstrom
           Maximum rank =  0   Radius =  0.650 angstrom
                   Q00  =  -0.099832

C          x =  1.689069  y = -0.333049  z =  0.540734 angstrom
           Maximum rank =  0   Radius =  0.650 angstrom
                   Q00  =  -0.093878

C          x = -0.289931  y =  0.438951  z =  1.679734 angstrom
           Maximum rank =  0   Radius =  0.650 angstrom
                   Q00  =   0.000725

C          x =  1.164069  y = -1.627049  z =  0.523734 angstrom
           Maximum rank =  0   Radius =  0.650 angstrom
                   Q00  =  -0.057125

C          x = -0.814931  y = -0.851049  z =  1.655734 angstrom
           Maximum rank =  0   Radius =  0.650 angstrom
                   Q00  =  -0.078486

C          x = -0.078931  y = -1.887049  z =  1.086734 angstrom
           Maximum rank =  0   Radius =  0.650 angstrom
                   Q00  =  -0.079688

H          x =  0.773069  y =  2.811951  z =  1.407734 angstrom
           Maximum rank =  0   Radius =  0.325 angstrom
                   Q00  =   0.098454

H          x =  1.987069  y =  2.316951  z =  0.233734 angstrom
           Maximum rank =  0   Radius =  0.325 angstrom
                   Q00  =   0.097390

H          x =  2.659069  y = -0.142049  z =  0.101734 angstrom
           Maximum rank =  0   Radius =  0.325 angstrom
                   Q00  =   0.057888

H          x = -0.860931  y =  1.236951  z =  2.129734 angstrom
           Maximum rank =  0   Radius =  0.325 angstrom
                   Q00  =   0.058794

H          x =  1.723069  y = -2.430049  z =  0.065734 angstrom
           Maximum rank =  0   Radius =  0.325 angstrom
                   Q00  =   0.065738

H          x = -1.782931  y = -1.057049  z =  2.089734 angstrom
           Maximum rank =  0   Radius =  0.325 angstrom
                   Q00  =   0.066937

H          x = -0.474931  y = -2.893049  z =  1.076734 angstrom
           Maximum rank =  0   Radius =  0.325 angstrom
                   Q00  =   0.062389

H          x =  2.330919  y =  2.136091  z =  1.979264 angstrom
           Maximum rank =  0   Radius =  0.325 angstrom
                   Q00  =   0.104284

Total multipoles referred to origin at
           x =   0.000000,  y =    0.000000,  z =    0.000000 angstrom
                   Q00  =  -0.000000

Finished at 7:46:12 on 27 Apr 2020

  DMA results are available in the Python driver through the
	  variable('DMA DISTRIBUTED MULTIPOLES')
  and
	  variable('DMA TOTAL MULTIPOLES')
  commands.

    Psi4 stopped on: Monday, 27 April 2020 07:46AM
    Psi4 wall time for execution: 0:03:31.80

*** Psi4 exiting successfully. Buy a developer a beer!
