                               Psi4 1.3.2 release

  ==> Input File <==

--------------------------------------------------------------------------
import numpy as np
set {scf_type pk
basis cc-pvdz
d_convergence 10
gdma_switch   0
gdma_limit    0
gdma_origin   [ 0.0,  0.0,  0.0 ]
}
molecule test {
    units Angstrom
    0 1
    --
    0 1
    C               -2.493742403910685    -0.160897881514640     0.275748017092893
    C               -2.481742403910685    -1.307897881514640     1.283748017092893
    H               -1.830742403910684     0.640102118485360     0.604748017092893
    H               -2.142742403910685    -0.517897881514640    -0.694251982907107
    H               -3.501742403910684     0.237102118485360     0.162748017092893
    H               -1.446742403910685    -1.625897881514640     1.410748017092893
    H               -2.879695403910684    -0.976983881513640     2.254381627092893
    H               -3.047829403910685    -2.166788881514640     0.894066017092893
    C                1.095257596089316     0.542102118485360    -0.746251982907107
    C                1.625257596089316     0.921102118485360     0.618748017092893
    C                2.315257596089316     0.048102118486360    -1.484251982907107
    H                0.633257596089315     1.393102118485360    -1.248251982907107
    H                0.378257596089315    -0.272897881513640    -0.643251982907107
    H                2.000257596089315     1.945102118486360     0.603748017092893
    H                0.842257596089315     0.800102118485360     1.368748017092894
    H                2.888257596089316     0.912102118485360    -1.824251982907107
    H                2.056257596089315    -0.593897881514640    -2.327251982907107
    H                2.459242596089316     0.220255118486360     0.771334017092893
    H                2.873867596089315    -0.499669881513640    -0.711011982907107

}
e, wfn = energy('scf', return_wfn=True)
gdma(wfn)
dmavals = variable('DMA DISTRIBUTED MULTIPOLES')
charges = np.array(dmavals)
print(charges)
np.save('SSI-060VAL-157PRO-1-dimer.npy', np.array(charges))--------------------------------------------------------------------------

*** tstart() called on ds3
*** at Sun Apr 26 17:31:40 2020

   => Loading Basis Set <=

    Name: CC-PVDZ
    Role: ORBITAL
    Keyword: BASIS
    atoms 1-2, 9-11  entry C          line   138 file /theoryfs2/ds/metcalf/miniconda2/envs/tf2gpu/share/psi4/basis/cc-pvdz.gbs
    atoms 3-8, 12-19 entry H          line    22 file /theoryfs2/ds/metcalf/miniconda2/envs/tf2gpu/share/psi4/basis/cc-pvdz.gbs

         ---------------------------------------------------------
                                   SCF
               by Justin Turney, Rob Parrish, Andy Simmonett
                          and Daniel G. A. Smith
                              RHF Reference
                        1 Threads,    500 MiB Core
         ---------------------------------------------------------

  ==> Geometry <==

    Molecular point group: c1
    Full point group: C1

    Geometry (in Angstrom), charge = 0, multiplicity = 1:

       Center              X                  Y                   Z               Mass
    ------------   -----------------  -----------------  -----------------  -----------------
         C           -2.493742403911    -0.160897881515     0.275748017093    12.000000000000
         C           -2.481742403911    -1.307897881515     1.283748017093    12.000000000000
         H           -1.830742403911     0.640102118485     0.604748017093     1.007825032230
         H           -2.142742403911    -0.517897881515    -0.694251982907     1.007825032230
         H           -3.501742403911     0.237102118485     0.162748017093     1.007825032230
         H           -1.446742403911    -1.625897881515     1.410748017093     1.007825032230
         H           -2.879695403911    -0.976983881514     2.254381627093     1.007825032230
         H           -3.047829403911    -2.166788881515     0.894066017093     1.007825032230
         C            1.095257596089     0.542102118485    -0.746251982907    12.000000000000
         C            1.625257596089     0.921102118485     0.618748017093    12.000000000000
         C            2.315257596089     0.048102118486    -1.484251982907    12.000000000000
         H            0.633257596089     1.393102118485    -1.248251982907     1.007825032230
         H            0.378257596089    -0.272897881514    -0.643251982907     1.007825032230
         H            2.000257596089     1.945102118486     0.603748017093     1.007825032230
         H            0.842257596089     0.800102118485     1.368748017093     1.007825032230
         H            2.888257596089     0.912102118485    -1.824251982907     1.007825032230
         H            2.056257596089    -0.593897881515    -2.327251982907     1.007825032230
         H            2.459242596089     0.220255118486     0.771334017093     1.007825032230
         H            2.873867596089    -0.499669881514    -0.711011982907     1.007825032230

  Running in c1 symmetry.

  Rotational constants: A =      0.23919  B =      0.04021  C =      0.03837 [cm^-1]
  Rotational constants: A =   7170.64228  B =   1205.39681  C =   1150.20814 [MHz]
  Nuclear repulsion =  180.130987476599387

  Charge       = 0
  Multiplicity = 1
  Electrons    = 44
  Nalpha       = 22
  Nbeta        = 22

  ==> Algorithm <==

  SCF Algorithm Type is PK.
  DIIS enabled.
  MOM disabled.
  Fractional occupation disabled.
  Guess Type is SAD.
  Energy threshold   = 1.00e-06
  Density threshold  = 1.00e-10
  Integral threshold = 0.00e+00

  ==> Primary Basis <==

  Basis Set: CC-PVDZ
    Blend: CC-PVDZ
    Number of shells: 72
    Number of basis function: 140
    Number of Cartesian functions: 145
    Spherical Harmonics?: true
    Max angular momentum: 2

  ==> Pre-Iterations <==

   -------------------------------------------------------
    Irrep   Nso     Nmo     Nalpha   Nbeta   Ndocc  Nsocc
   -------------------------------------------------------
     A        140     140       0       0       0       0
   -------------------------------------------------------
    Total     140     140      22      22      22       0
   -------------------------------------------------------

  ==> Integral Setup <==

  Using integral reordering PK algorithm.
  Sizing the integral batches needed.
  Building batch lookup table.
   Calculation information:
      Number of atoms:                  19
      Number of AO shells:              72
      Number of primitives:            180
      Number of atomic orbitals:       145
      Number of basis functions:       140

      Integral cutoff                 1.00e-12
      Number of threads:                 1

	Batch   1 pq = [       0,    9405] index = [             0,44231715] size =     44231715
	Batch   2 pq = [    9405,    9870] index = [      44231715,48713385] size =      4481670
  Task number: 5
  Buffer size: 11059200
  Buffer per thread: 2
  We computed 2905696 shell quartets total.
  Whereas there are 3454506 unique shell quartets.

  ==> DiskJK: Disk-Based J/K Matrices <==

    J tasked:                  Yes
    K tasked:                  Yes
    wK tasked:                  No
    Memory [MiB]:              375
    Schwarz Cutoff:          1E-12

    OpenMP threads:              1

  Minimum eigenvalue in the overlap matrix is 4.8262864697E-03.
  Using Symmetric Orthogonalization.

  SCF Guess: Superposition of Atomic Densities via on-the-fly atomic UHF.

  ==> Iterations <==

                        Total Energy        Delta E     RMS |[F,P]|

   @RHF iter SAD:  -196.52830207801682   -1.96528e+02   0.00000e+00
   @RHF iter   1:  -197.29023504246427   -7.61933e-01   3.87713e-03 DIIS
   @RHF iter   2:  -197.45337681263325   -1.63142e-01   1.69788e-03 DIIS
   @RHF iter   3:  -197.48356570986525   -3.01889e-02   3.30713e-04 DIIS
   @RHF iter   4:  -197.48580529973762   -2.23959e-03   5.05243e-05 DIIS
   @RHF iter   5:  -197.48584674484931   -4.14451e-05   1.55194e-05 DIIS
   @RHF iter   6:  -197.48585046486377   -3.72001e-06   2.59718e-06 DIIS
   @RHF iter   7:  -197.48585059049253   -1.25629e-07   4.82173e-07 DIIS
   @RHF iter   8:  -197.48585059527480   -4.78227e-09   1.14049e-07 DIIS
   @RHF iter   9:  -197.48585059553528   -2.60485e-10   3.65000e-08 DIIS
   @RHF iter  10:  -197.48585059556498   -2.97007e-11   8.30247e-09 DIIS
   @RHF iter  11:  -197.48585059556677   -1.79057e-12   1.57403e-09 DIIS
   @RHF iter  12:  -197.48585059556578    9.94760e-13   3.02499e-10 DIIS
   @RHF iter  13:  -197.48585059556689   -1.10845e-12   5.29128e-11 DIIS
  Energy and wave function converged.

  ==> Post-Iterations <==

    Orbital Energies [Eh]
    ---------------------

    Doubly Occupied:

       1A    -11.220087     2A    -11.216898     3A    -11.213622
       4A    -11.212587     5A    -11.212340     6A     -1.069973
       7A     -1.019139     8A     -0.914808     9A     -0.836868
      10A     -0.797170    11A     -0.639510    12A     -0.615436
      13A     -0.599470    14A     -0.596365    15A     -0.542684
      16A     -0.512745    17A     -0.501187    18A     -0.488515
      19A     -0.485191    20A     -0.480993    21A     -0.467606
      22A     -0.460249

    Virtual:

      23A      0.165779    24A      0.196909    25A      0.219830
      26A      0.223230    27A      0.234389    28A      0.239306
      29A      0.254946    30A      0.263535    31A      0.270120
      32A      0.285273    33A      0.293202    34A      0.330086
      35A      0.338813    36A      0.354107    37A      0.381332
      38A      0.397270    39A      0.437600    40A      0.558946
      41A      0.591218    42A      0.599350    43A      0.605489
      44A      0.609205    45A      0.627506    46A      0.641840
      47A      0.659964    48A      0.687875    49A      0.769204
      50A      0.787238    51A      0.820257    52A      0.843920
      53A      0.854608    54A      0.867112    55A      0.883695
      56A      0.888664    57A      0.893633    58A      0.896250
      59A      0.906748    60A      0.911447    61A      0.913305
      62A      0.922257    63A      0.929345    64A      0.939097
      65A      0.957264    66A      0.976128    67A      0.991227
      68A      1.006356    69A      1.101841    70A      1.122917
      71A      1.128401    72A      1.140003    73A      1.207481
      74A      1.245892    75A      1.411189    76A      1.461878
      77A      1.471108    78A      1.482299    79A      1.492220
      80A      1.575358    81A      1.614606    82A      1.622271
      83A      1.638549    84A      1.681052    85A      1.698529
      86A      1.729851    87A      1.744758    88A      1.794472
      89A      1.857365    90A      1.858537    91A      1.879341
      92A      1.891102    93A      1.905762    94A      1.911647
      95A      1.923686    96A      1.937487    97A      1.945180
      98A      1.947763    99A      1.949941   100A      1.954857
     101A      1.971157   102A      1.991351   103A      1.994652
     104A      2.014279   105A      2.023103   106A      2.062967
     107A      2.097813   108A      2.118194   109A      2.123617
     110A      2.143757   111A      2.200081   112A      2.236898
     113A      2.292385   114A      2.307327   115A      2.327353
     116A      2.355799   117A      2.435306   118A      2.453601
     119A      2.462682   120A      2.465403   121A      2.509152
     122A      2.553498   123A      2.563632   124A      2.579602
     125A      2.633211   126A      2.701365   127A      2.749449
     128A      2.767577   129A      2.782104   130A      2.791662
     131A      2.803490   132A      2.837915   133A      2.849896
     134A      2.859441   135A      2.872389   136A      2.926239
     137A      2.949745   138A      2.954059   139A      2.968962
     140A      3.063269

    Final Occupation by Irrep:
              A
    DOCC [    22 ]

  @RHF Final Energy:  -197.48585059556689

   => Energetics <=

    Nuclear Repulsion Energy =            180.1309874765993868
    One-Electron Energy =                -621.0267869881727165
    Two-Electron Energy =                 243.4099489160064422
    Total Energy =                       -197.4858505955668875

Computation Completed

Properties will be evaluated at   0.000000,   0.000000,   0.000000 [a0]

Properties computed using the SCF density matrix

  Nuclear Dipole Moment: [e a0]
     X:    -0.6730      Y:    -0.4745      Z:     0.5833

  Electronic Dipole Moment: [e a0]
     X:     0.6376      Y:     0.4889      Z:    -0.6094

  Dipole Moment: [e a0]
     X:    -0.0354      Y:     0.0144      Z:    -0.0261     Total:     0.0462

  Dipole Moment: [D]
     X:    -0.0899      Y:     0.0366      Z:    -0.0663     Total:     0.1175

*** tstop() called on ds3 at Sun Apr 26 17:32:08 2020
Module time:
	user time   =      14.96 seconds =       0.25 minutes
	system time =       5.60 seconds =       0.09 minutes
	total time  =         28 seconds =       0.47 minutes
Total time:
	user time   =      14.96 seconds =       0.25 minutes
	system time =       5.60 seconds =       0.09 minutes
	total time  =         28 seconds =       0.47 minutes
                                     G D M A

                                 by Anthony Stone

                           version 2.2.06, 22 June 2011

               Distributed Multipoles from Gaussian wavefunctions

Starting at 17:32:8 on 26 Apr 2020

Using SCF density matrix from file ./SSI/SSI-060VAL-157PRO-1-dimer.test.18764.fchk

                         Distributed Multipole Analysis

Standard DMA

Positions and radii in angstrom
Multipole moments in atomic units, ea_0^k for rank k

C          x = -2.493742  y = -0.160898  z =  0.275748 angstrom
           Maximum rank =  0   Radius =  0.650 angstrom
                   Q00  =  -0.238202

C          x = -2.481742  y = -1.307898  z =  1.283748 angstrom
           Maximum rank =  0   Radius =  0.650 angstrom
                   Q00  =  -0.234701

H          x = -1.830742  y =  0.640102  z =  0.604748 angstrom
           Maximum rank =  0   Radius =  0.325 angstrom
                   Q00  =   0.079903

H          x = -2.142742  y = -0.517898  z = -0.694252 angstrom
           Maximum rank =  0   Radius =  0.325 angstrom
                   Q00  =   0.078938

H          x = -3.501742  y =  0.237102  z =  0.162748 angstrom
           Maximum rank =  0   Radius =  0.325 angstrom
                   Q00  =   0.079047

H          x = -1.446742  y = -1.625898  z =  1.410748 angstrom
           Maximum rank =  0   Radius =  0.325 angstrom
                   Q00  =   0.075110

H          x = -2.879695  y = -0.976984  z =  2.254382 angstrom
           Maximum rank =  0   Radius =  0.325 angstrom
                   Q00  =   0.080849

H          x = -3.047829  y = -2.166789  z =  0.894066 angstrom
           Maximum rank =  0   Radius =  0.325 angstrom
                   Q00  =   0.079835

C          x =  1.095258  y =  0.542102  z = -0.746252 angstrom
           Maximum rank =  0   Radius =  0.650 angstrom
                   Q00  =  -0.106045

C          x =  1.625258  y =  0.921102  z =  0.618748 angstrom
           Maximum rank =  0   Radius =  0.650 angstrom
                   Q00  =  -0.226225

C          x =  2.315258  y =  0.048102  z = -1.484252 angstrom
           Maximum rank =  0   Radius =  0.650 angstrom
                   Q00  =  -0.200873

H          x =  0.633258  y =  1.393102  z = -1.248252 angstrom
           Maximum rank =  0   Radius =  0.325 angstrom
                   Q00  =   0.053447

H          x =  0.378258  y = -0.272898  z = -0.643252 angstrom
           Maximum rank =  0   Radius =  0.325 angstrom
                   Q00  =   0.053362

H          x =  2.000258  y =  1.945102  z =  0.603748 angstrom
           Maximum rank =  0   Radius =  0.325 angstrom
                   Q00  =   0.079461

H          x =  0.842258  y =  0.800102  z =  1.368748 angstrom
           Maximum rank =  0   Radius =  0.325 angstrom
                   Q00  =   0.079651

H          x =  2.888258  y =  0.912102  z = -1.824252 angstrom
           Maximum rank =  0   Radius =  0.325 angstrom
                   Q00  =   0.075189

H          x =  2.056258  y = -0.593898  z = -2.327252 angstrom
           Maximum rank =  0   Radius =  0.325 angstrom
                   Q00  =   0.080898

H          x =  2.459243  y =  0.220255  z =  0.771334 angstrom
           Maximum rank =  0   Radius =  0.325 angstrom
                   Q00  =   0.059821

H          x =  2.873868  y = -0.499670  z = -0.711012 angstrom
           Maximum rank =  0   Radius =  0.325 angstrom
                   Q00  =   0.050535

Total multipoles referred to origin at
           x =   0.000000,  y =    0.000000,  z =    0.000000 angstrom
                   Q00  =  -0.000000

Finished at 17:32:8 on 26 Apr 2020

  DMA results are available in the Python driver through the
	  variable('DMA DISTRIBUTED MULTIPOLES')
  and
	  variable('DMA TOTAL MULTIPOLES')
  commands.

    Psi4 stopped on: Sunday, 26 April 2020 05:32PM
    Psi4 wall time for execution: 0:00:28.60

*** Psi4 exiting successfully. Buy a developer a beer!
