                               Psi4 1.3.2 release

  ==> Input File <==

--------------------------------------------------------------------------
import numpy as np
set {scf_type pk
basis cc-pvdz
d_convergence 10
gdma_switch   0
gdma_limit    0
gdma_origin   [ 0.0,  0.0,  0.0 ]
}
molecule test {
    units Angstrom
    0 1
    --
    0 1
    C               -0.601684719079676    -1.912458359800695    -0.655354843968565
    C               -0.356684719079676    -3.403458359800695    -0.804354843968565
    H               -0.807684719079676    -1.457458359800695    -1.624354843968565
    H               -1.462684719079676    -1.738458359800695    -0.007354843968565
    H                0.281315280920324    -1.452458359800695    -0.215354843968565
    H               -1.216684719079676    -3.830458359800695    -1.316354843968565
    H                0.547092280920324    -3.596764359800695    -1.400864843968565
    H               -0.249133719079676    -3.880581359800695     0.180925156031435
    C                0.202315280920324     1.271541640199305     0.425645156031435
    C               -0.771684719079676     2.247541640199305     1.092645156031435
    C                1.546315280920324     1.881541640199305    -0.020354843968565
    H                0.397315280920324     0.450541640199305     1.114645156031435
    H               -0.284684719079676     0.870541640199305    -0.464354843968565
    H               -0.380684719079676     2.520541640199305     2.069645156031435
    H                1.340315280920324     2.732541640199305    -0.667354843968565
    H               -1.766566719079676     1.788711640199305     1.191075156031435
    H               -0.886340719079676     3.148091640199305     0.471475156031435
    H                2.124881280920325     2.255021640199305     0.837415156031435
    H                2.142359280920325     1.181581640199305    -0.624334843968565

}
e, wfn = energy('scf', return_wfn=True)
gdma(wfn)
dmavals = variable('DMA DISTRIBUTED MULTIPOLES')
charges = np.array(dmavals)
print(charges)
np.save('SSI-094VAL-152LEU-1-dimer.npy', np.array(charges))--------------------------------------------------------------------------

*** tstart() called on ds3
*** at Mon Apr 27 22:30:31 2020

   => Loading Basis Set <=

    Name: CC-PVDZ
    Role: ORBITAL
    Keyword: BASIS
    atoms 1-2, 9-11  entry C          line   138 file /theoryfs2/ds/metcalf/miniconda2/envs/tf2gpu/share/psi4/basis/cc-pvdz.gbs
    atoms 3-8, 12-19 entry H          line    22 file /theoryfs2/ds/metcalf/miniconda2/envs/tf2gpu/share/psi4/basis/cc-pvdz.gbs

         ---------------------------------------------------------
                                   SCF
               by Justin Turney, Rob Parrish, Andy Simmonett
                          and Daniel G. A. Smith
                              RHF Reference
                        1 Threads,    500 MiB Core
         ---------------------------------------------------------

  ==> Geometry <==

    Molecular point group: c1
    Full point group: C1

    Geometry (in Angstrom), charge = 0, multiplicity = 1:

       Center              X                  Y                   Z               Mass
    ------------   -----------------  -----------------  -----------------  -----------------
         C           -0.601684719080    -1.912458359801    -0.655354843969    12.000000000000
         C           -0.356684719080    -3.403458359801    -0.804354843969    12.000000000000
         H           -0.807684719080    -1.457458359801    -1.624354843969     1.007825032230
         H           -1.462684719080    -1.738458359801    -0.007354843969     1.007825032230
         H            0.281315280920    -1.452458359801    -0.215354843969     1.007825032230
         H           -1.216684719080    -3.830458359801    -1.316354843969     1.007825032230
         H            0.547092280920    -3.596764359801    -1.400864843969     1.007825032230
         H           -0.249133719080    -3.880581359801     0.180925156031     1.007825032230
         C            0.202315280920     1.271541640199     0.425645156031    12.000000000000
         C           -0.771684719080     2.247541640199     1.092645156031    12.000000000000
         C            1.546315280920     1.881541640199    -0.020354843969    12.000000000000
         H            0.397315280920     0.450541640199     1.114645156031     1.007825032230
         H           -0.284684719080     0.870541640199    -0.464354843969     1.007825032230
         H           -0.380684719080     2.520541640199     2.069645156031     1.007825032230
         H            1.340315280920     2.732541640199    -0.667354843969     1.007825032230
         H           -1.766566719080     1.788711640199     1.191075156031     1.007825032230
         H           -0.886340719080     3.148091640199     0.471475156031     1.007825032230
         H            2.124881280920     2.255021640199     0.837415156031     1.007825032230
         H            2.142359280920     1.181581640199    -0.624334843969     1.007825032230

  Running in c1 symmetry.

  Rotational constants: A =      0.23972  B =      0.03862  C =      0.03454 [cm^-1]
  Rotational constants: A =   7186.55706  B =   1157.71857  C =   1035.36189 [MHz]
  Nuclear repulsion =  177.453769165062965

  Charge       = 0
  Multiplicity = 1
  Electrons    = 44
  Nalpha       = 22
  Nbeta        = 22

  ==> Algorithm <==

  SCF Algorithm Type is PK.
  DIIS enabled.
  MOM disabled.
  Fractional occupation disabled.
  Guess Type is SAD.
  Energy threshold   = 1.00e-06
  Density threshold  = 1.00e-10
  Integral threshold = 0.00e+00

  ==> Primary Basis <==

  Basis Set: CC-PVDZ
    Blend: CC-PVDZ
    Number of shells: 72
    Number of basis function: 140
    Number of Cartesian functions: 145
    Spherical Harmonics?: true
    Max angular momentum: 2

  ==> Pre-Iterations <==

   -------------------------------------------------------
    Irrep   Nso     Nmo     Nalpha   Nbeta   Ndocc  Nsocc
   -------------------------------------------------------
     A        140     140       0       0       0       0
   -------------------------------------------------------
    Total     140     140      22      22      22       0
   -------------------------------------------------------

  ==> Integral Setup <==

  Using integral reordering PK algorithm.
  Sizing the integral batches needed.
  Building batch lookup table.
   Calculation information:
      Number of atoms:                  19
      Number of AO shells:              72
      Number of primitives:            180
      Number of atomic orbitals:       145
      Number of basis functions:       140

      Integral cutoff                 1.00e-12
      Number of threads:                 1

	Batch   1 pq = [       0,    9405] index = [             0,44231715] size =     44231715
	Batch   2 pq = [    9405,    9870] index = [      44231715,48713385] size =      4481670
  Task number: 5
  Buffer size: 11059200
  Buffer per thread: 2
  We computed 2840133 shell quartets total.
  Whereas there are 3454506 unique shell quartets.

  ==> DiskJK: Disk-Based J/K Matrices <==

    J tasked:                  Yes
    K tasked:                  Yes
    wK tasked:                  No
    Memory [MiB]:              375
    Schwarz Cutoff:          1E-12

    OpenMP threads:              1

  Minimum eigenvalue in the overlap matrix is 5.3900205377E-03.
  Using Symmetric Orthogonalization.

  SCF Guess: Superposition of Atomic Densities via on-the-fly atomic UHF.

  ==> Iterations <==

                        Total Energy        Delta E     RMS |[F,P]|

   @RHF iter SAD:  -196.35940158599490   -1.96359e+02   0.00000e+00
   @RHF iter   1:  -197.31049910590576   -9.51098e-01   3.78846e-03 DIIS
   @RHF iter   2:  -197.47056653879241   -1.60067e-01   1.61882e-03 DIIS
   @RHF iter   3:  -197.49834369155735   -2.77772e-02   3.25814e-04 DIIS
   @RHF iter   4:  -197.50058337285833   -2.23968e-03   4.82752e-05 DIIS
   @RHF iter   5:  -197.50062254103557   -3.91682e-05   1.47120e-05 DIIS
   @RHF iter   6:  -197.50062590455624   -3.36352e-06   2.57027e-06 DIIS
   @RHF iter   7:  -197.50062602357085   -1.19015e-07   5.03633e-07 DIIS
   @RHF iter   8:  -197.50062602929177   -5.72092e-09   1.35510e-07 DIIS
   @RHF iter   9:  -197.50062602967893   -3.87161e-10   4.29540e-08 DIIS
   @RHF iter  10:  -197.50062602972287   -4.39400e-11   8.76800e-09 DIIS
   @RHF iter  11:  -197.50062602972389   -1.02318e-12   1.59114e-09 DIIS
   @RHF iter  12:  -197.50062602972426   -3.69482e-13   2.98486e-10 DIIS
   @RHF iter  13:  -197.50062602972443   -1.70530e-13   5.92266e-11 DIIS
  Energy and wave function converged.

  ==> Post-Iterations <==

    Orbital Energies [Eh]
    ---------------------

    Doubly Occupied:

       1A    -11.218949     2A    -11.217717     3A    -11.217272
       4A    -11.217105     5A    -11.214628     6A     -1.048720
       7A     -1.020212     8A     -0.923961     9A     -0.835931
      10A     -0.794719    11A     -0.624772    12A     -0.602010
      13A     -0.596659    14A     -0.590015    15A     -0.546632
      16A     -0.531453    17A     -0.503823    18A     -0.486680
      19A     -0.483946    20A     -0.474069    21A     -0.467184
      22A     -0.457494

    Virtual:

      23A      0.172876    24A      0.193910    25A      0.215369
      26A      0.224996    27A      0.231868    28A      0.249486
      29A      0.260627    30A      0.262333    31A      0.276969
      32A      0.285207    33A      0.296742    34A      0.303267
      35A      0.312229    36A      0.331621    37A      0.375219
      38A      0.407726    39A      0.434663    40A      0.567960
      41A      0.579561    42A      0.595817    43A      0.606900
      44A      0.610021    45A      0.618026    46A      0.625806
      47A      0.679054    48A      0.705463    49A      0.767909
      50A      0.796649    51A      0.808561    52A      0.846207
      53A      0.878314    54A      0.882759    55A      0.891046
      56A      0.892691    57A      0.899297    58A      0.900766
      59A      0.900930    60A      0.904888    61A      0.912389
      62A      0.918233    63A      0.924175    64A      0.943972
      65A      0.948628    66A      0.966281    67A      0.989180
      68A      0.999672    69A      1.116009    70A      1.119990
      71A      1.143047    72A      1.171461    73A      1.211208
      74A      1.251232    75A      1.374579    76A      1.466388
      77A      1.472846    78A      1.482306    79A      1.499109
      80A      1.541894    81A      1.584582    82A      1.633531
      83A      1.669645    84A      1.681140    85A      1.691578
      86A      1.693818    87A      1.702120    88A      1.860586
      89A      1.863162    90A      1.874278    91A      1.884176
      92A      1.893365    93A      1.908062    94A      1.918347
      95A      1.923225    96A      1.931977    97A      1.946047
      98A      1.948771    99A      1.949191   100A      1.958327
     101A      1.973346   102A      1.983368   103A      1.989982
     104A      1.995965   105A      2.028854   106A      2.047809
     107A      2.059304   108A      2.099179   109A      2.125488
     110A      2.126203   111A      2.168925   112A      2.286290
     113A      2.301549   114A      2.305821   115A      2.313642
     116A      2.336601   117A      2.358497   118A      2.460326
     119A      2.468020   120A      2.510261   121A      2.545594
     122A      2.557438   123A      2.575693   124A      2.586868
     125A      2.616023   126A      2.631949   127A      2.743243
     128A      2.757678   129A      2.765453   130A      2.788443
     131A      2.792089   132A      2.801720   133A      2.853114
     134A      2.859825   135A      2.912674   136A      2.951008
     137A      2.959809   138A      2.969448   139A      2.977176
     140A      3.074703

    Final Occupation by Irrep:
              A
    DOCC [    22 ]

  @RHF Final Energy:  -197.50062602972443

   => Energetics <=

    Nuclear Repulsion Energy =            177.4537691650629654
    One-Electron Energy =                -615.7608892639275382
    Two-Electron Energy =                 240.8064940691401432
    Total Energy =                       -197.5006260297244296

Computation Completed

Properties will be evaluated at   0.000000,   0.000000,   0.000000 [a0]

Properties computed using the SCF density matrix

  Nuclear Dipole Moment: [e a0]
     X:    -0.2074      Y:    -0.9455      Z:    -0.4267

  Electronic Dipole Moment: [e a0]
     X:     0.1859      Y:     0.9290      Z:     0.4101

  Dipole Moment: [e a0]
     X:    -0.0214      Y:    -0.0166      Z:    -0.0166     Total:     0.0318

  Dipole Moment: [D]
     X:    -0.0545      Y:    -0.0422      Z:    -0.0422     Total:     0.0808

*** tstop() called on ds3 at Mon Apr 27 22:30:52 2020
Module time:
	user time   =      14.93 seconds =       0.25 minutes
	system time =       6.89 seconds =       0.11 minutes
	total time  =         21 seconds =       0.35 minutes
Total time:
	user time   =      14.93 seconds =       0.25 minutes
	system time =       6.89 seconds =       0.11 minutes
	total time  =         21 seconds =       0.35 minutes
                                     G D M A

                                 by Anthony Stone

                           version 2.2.06, 22 June 2011

               Distributed Multipoles from Gaussian wavefunctions

Starting at 22:30:52 on 27 Apr 2020

Using SCF density matrix from file ./SSI/SSI-094VAL-152LEU-1-dimer.test.31091.fchk

                         Distributed Multipole Analysis

Standard DMA

Positions and radii in angstrom
Multipole moments in atomic units, ea_0^k for rank k

C          x = -0.601685  y = -1.912458  z = -0.655355 angstrom
           Maximum rank =  0   Radius =  0.650 angstrom
                   Q00  =  -0.238841

C          x = -0.356685  y = -3.403458  z = -0.804355 angstrom
           Maximum rank =  0   Radius =  0.650 angstrom
                   Q00  =  -0.229617

H          x = -0.807685  y = -1.457458  z = -1.624355 angstrom
           Maximum rank =  0   Radius =  0.325 angstrom
                   Q00  =   0.076735

H          x = -1.462685  y = -1.738458  z = -0.007355 angstrom
           Maximum rank =  0   Radius =  0.325 angstrom
                   Q00  =   0.077472

H          x =  0.281315  y = -1.452458  z = -0.215355 angstrom
           Maximum rank =  0   Radius =  0.325 angstrom
                   Q00  =   0.079192

H          x = -1.216685  y = -3.830458  z = -1.316355 angstrom
           Maximum rank =  0   Radius =  0.325 angstrom
                   Q00  =   0.076573

H          x =  0.547092  y = -3.596764  z = -1.400865 angstrom
           Maximum rank =  0   Radius =  0.325 angstrom
                   Q00  =   0.078088

H          x = -0.249134  y = -3.880581  z =  0.180925 angstrom
           Maximum rank =  0   Radius =  0.325 angstrom
                   Q00  =   0.078830

C          x =  0.202315  y =  1.271542  z =  0.425645 angstrom
           Maximum rank =  0   Radius =  0.650 angstrom
                   Q00  =  -0.084281

C          x = -0.771685  y =  2.247542  z =  1.092645 angstrom
           Maximum rank =  0   Radius =  0.650 angstrom
                   Q00  =  -0.238059

C          x =  1.546315  y =  1.881542  z = -0.020355 angstrom
           Maximum rank =  0   Radius =  0.650 angstrom
                   Q00  =  -0.245057

H          x =  0.397315  y =  0.450542  z =  1.114645 angstrom
           Maximum rank =  0   Radius =  0.325 angstrom
                   Q00  =   0.043658

H          x = -0.284685  y =  0.870542  z = -0.464355 angstrom
           Maximum rank =  0   Radius =  0.325 angstrom
                   Q00  =   0.046329

H          x = -0.380685  y =  2.520542  z =  2.069645 angstrom
           Maximum rank =  0   Radius =  0.325 angstrom
                   Q00  =   0.079157

H          x =  1.340315  y =  2.732542  z = -0.667355 angstrom
           Maximum rank =  0   Radius =  0.325 angstrom
                   Q00  =   0.075593

H          x = -1.766567  y =  1.788712  z =  1.191075 angstrom
           Maximum rank =  0   Radius =  0.325 angstrom
                   Q00  =   0.084744

H          x = -0.886341  y =  3.148092  z =  0.471475 angstrom
           Maximum rank =  0   Radius =  0.325 angstrom
                   Q00  =   0.075271

H          x =  2.124881  y =  2.255022  z =  0.837415 angstrom
           Maximum rank =  0   Radius =  0.325 angstrom
                   Q00  =   0.077879

H          x =  2.142359  y =  1.181582  z = -0.624335 angstrom
           Maximum rank =  0   Radius =  0.325 angstrom
                   Q00  =   0.086337

Total multipoles referred to origin at
           x =   0.000000,  y =    0.000000,  z =    0.000000 angstrom
                   Q00  =  -0.000000

Finished at 22:30:52 on 27 Apr 2020

  DMA results are available in the Python driver through the
	  variable('DMA DISTRIBUTED MULTIPOLES')
  and
	  variable('DMA TOTAL MULTIPOLES')
  commands.

    Psi4 stopped on: Monday, 27 April 2020 10:30PM
    Psi4 wall time for execution: 0:00:21.27

*** Psi4 exiting successfully. Buy a developer a beer!
