                               Psi4 1.3.2 release

  ==> Input File <==

--------------------------------------------------------------------------
import numpy as np
set {scf_type pk
basis cc-pvdz
d_convergence 10
gdma_switch   0
gdma_limit    0
gdma_origin   [ 0.0,  0.0,  0.0 ]
}
molecule test {
    units Angstrom
    0 1
    --
    0 1
    C               -0.692906963186399     0.010905376565258    -1.770610691113596
    S                0.408093036813601    -1.387094623434743    -1.629610691113596
    H               -1.120906963186399     0.043905376565258    -2.773610691113596
    H               -1.501906963186399    -0.083094623434742    -1.046610691113596
    H               -0.146906963186399     0.934905376565258    -1.584610691113595
    C                0.558493036813601    -2.840434623434742    -0.612100691113596
    H                1.415683036813601    -3.402964623434743    -0.918190691113596
    H               -0.330496963186399    -3.467564623434742    -0.714780691113596
    H                0.678463036813601    -2.556224623434742     0.436319308886404
    C               -0.149906963186399     0.693905376565258     2.701389308886405
    C               -0.128906963186399     1.491905376565257     1.418389308886404
    O                0.883093036813601     1.539905376565257     0.719389308886405
    N               -1.246906963186399     2.121905376565258     1.092389308886405
    H               -0.897906963186399     1.093905376565257     3.388389308886404
    H                0.826093036813601     0.839905376565258     3.169389308886404
    H               -1.256906963186399     2.685905376565257     0.256389308886404
    H               -2.070906963186399     2.038905376565258     1.675389308886404
    H               -0.310706963186399    -0.380894623434742     2.531189308886404

}
e, wfn = energy('scf', return_wfn=True)
gdma(wfn)
dmavals = variable('DMA DISTRIBUTED MULTIPOLES')
charges = np.array(dmavals)
print(charges)
np.save('SSI-123MET-140ASN-1-dimer.npy', np.array(charges))--------------------------------------------------------------------------

*** tstart() called on ds3
*** at Mon Apr 27 18:00:56 2020

   => Loading Basis Set <=

    Name: CC-PVDZ
    Role: ORBITAL
    Keyword: BASIS
    atoms 1, 6, 10-11     entry C          line   138 file /theoryfs2/ds/metcalf/miniconda2/envs/tf2gpu/share/psi4/basis/cc-pvdz.gbs
    atoms 2               entry S          line   598 file /theoryfs2/ds/metcalf/miniconda2/envs/tf2gpu/share/psi4/basis/cc-pvdz.gbs
    atoms 3-5, 7-9, 14-18 entry H          line    22 file /theoryfs2/ds/metcalf/miniconda2/envs/tf2gpu/share/psi4/basis/cc-pvdz.gbs
    atoms 12              entry O          line   198 file /theoryfs2/ds/metcalf/miniconda2/envs/tf2gpu/share/psi4/basis/cc-pvdz.gbs
    atoms 13              entry N          line   168 file /theoryfs2/ds/metcalf/miniconda2/envs/tf2gpu/share/psi4/basis/cc-pvdz.gbs

         ---------------------------------------------------------
                                   SCF
               by Justin Turney, Rob Parrish, Andy Simmonett
                          and Daniel G. A. Smith
                              RHF Reference
                        1 Threads,    500 MiB Core
         ---------------------------------------------------------

  ==> Geometry <==

    Molecular point group: c1
    Full point group: C1

    Geometry (in Angstrom), charge = 0, multiplicity = 1:

       Center              X                  Y                   Z               Mass
    ------------   -----------------  -----------------  -----------------  -----------------
         C           -0.692906963186     0.010905376565    -1.770610691114    12.000000000000
         S            0.408093036814    -1.387094623435    -1.629610691114    31.972071174400
         H           -1.120906963186     0.043905376565    -2.773610691114     1.007825032230
         H           -1.501906963186    -0.083094623435    -1.046610691114     1.007825032230
         H           -0.146906963186     0.934905376565    -1.584610691114     1.007825032230
         C            0.558493036814    -2.840434623435    -0.612100691114    12.000000000000
         H            1.415683036814    -3.402964623435    -0.918190691114     1.007825032230
         H           -0.330496963186    -3.467564623435    -0.714780691114     1.007825032230
         H            0.678463036814    -2.556224623435     0.436319308886     1.007825032230
         C           -0.149906963186     0.693905376565     2.701389308886    12.000000000000
         C           -0.128906963186     1.491905376565     1.418389308886    12.000000000000
         O            0.883093036814     1.539905376565     0.719389308886    15.994914619570
         N           -1.246906963186     2.121905376565     1.092389308886    14.003074004430
         H           -0.897906963186     1.093905376565     3.388389308886     1.007825032230
         H            0.826093036814     0.839905376565     3.169389308886     1.007825032230
         H           -1.256906963186     2.685905376565     0.256389308886     1.007825032230
         H           -2.070906963186     2.038905376565     1.675389308886     1.007825032230
         H           -0.310706963186    -0.380894623435     2.531189308886     1.007825032230

  Running in c1 symmetry.

  Rotational constants: A =      0.09855  B =      0.02908  C =      0.02538 [cm^-1]
  Rotational constants: A =   2954.51243  B =    871.71138  C =    760.87003 [MHz]
  Nuclear repulsion =  364.156535595455296

  Charge       = 0
  Multiplicity = 1
  Electrons    = 66
  Nalpha       = 33
  Nbeta        = 33

  ==> Algorithm <==

  SCF Algorithm Type is PK.
  DIIS enabled.
  MOM disabled.
  Fractional occupation disabled.
  Guess Type is SAD.
  Energy threshold   = 1.00e-06
  Density threshold  = 1.00e-10
  Integral threshold = 0.00e+00

  ==> Primary Basis <==

  Basis Set: CC-PVDZ
    Blend: CC-PVDZ
    Number of shells: 77
    Number of basis function: 157
    Number of Cartesian functions: 164
    Spherical Harmonics?: true
    Max angular momentum: 2

  ==> Pre-Iterations <==

   -------------------------------------------------------
    Irrep   Nso     Nmo     Nalpha   Nbeta   Ndocc  Nsocc
   -------------------------------------------------------
     A        157     157       0       0       0       0
   -------------------------------------------------------
    Total     157     157      33      33      33       0
   -------------------------------------------------------

  ==> Integral Setup <==

  Using integral reordering PK algorithm.
  Sizing the integral batches needed.
  Building batch lookup table.
   Calculation information:
      Number of atoms:                  18
      Number of AO shells:              77
      Number of primitives:            237
      Number of atomic orbitals:       164
      Number of basis functions:       157

      Integral cutoff                 1.00e-12
      Number of threads:                 1

	Batch   1 pq = [       0,    9405] index = [             0,44231715] size =     44231715
	Batch   2 pq = [    9405,   12403] index = [      44231715,76923406] size =     32691691
  Task number: 7
  Buffer size: 11059200
  Buffer per thread: 2
  We computed 3865408 shell quartets total.
  Whereas there are 4510506 unique shell quartets.

  ==> DiskJK: Disk-Based J/K Matrices <==

    J tasked:                  Yes
    K tasked:                  Yes
    wK tasked:                  No
    Memory [MiB]:              375
    Schwarz Cutoff:          1E-12

    OpenMP threads:              1

  Minimum eigenvalue in the overlap matrix is 4.4220988134E-03.
  Using Symmetric Orthogonalization.

  SCF Guess: Superposition of Atomic Densities via on-the-fly atomic UHF.

  ==> Iterations <==

                        Total Energy        Delta E     RMS |[F,P]|

   @RHF iter SAD:  -683.50725070215242   -6.83507e+02   0.00000e+00
   @RHF iter   1:  -684.48364988536832   -9.76399e-01   3.91758e-03 DIIS
   @RHF iter   2:  -684.64969146011549   -1.66042e-01   2.20351e-03 DIIS
   @RHF iter   3:  -684.69438421280870   -4.46928e-02   5.04066e-04 DIIS
   @RHF iter   4:  -684.69816580022530   -3.78159e-03   1.81217e-04 DIIS
   @RHF iter   5:  -684.69873695209765   -5.71152e-04   3.22510e-05 DIIS
   @RHF iter   6:  -684.69877185886071   -3.49068e-05   1.47825e-05 DIIS
   @RHF iter   7:  -684.69877789943894   -6.04058e-06   5.73133e-06 DIIS
   @RHF iter   8:  -684.69877914654523   -1.24711e-06   1.96959e-06 DIIS
   @RHF iter   9:  -684.69877929659538   -1.50050e-07   4.82796e-07 DIIS
   @RHF iter  10:  -684.69877930447637   -7.88100e-09   1.33318e-07 DIIS
   @RHF iter  11:  -684.69877930505868   -5.82304e-10   3.61008e-08 DIIS
   @RHF iter  12:  -684.69877930509654   -3.78577e-11   1.16677e-08 DIIS
   @RHF iter  13:  -684.69877930510052   -3.97904e-12   3.46372e-09 DIIS
   @RHF iter  14:  -684.69877930510063   -1.13687e-13   1.57355e-09 DIIS
   @RHF iter  15:  -684.69877930510063    0.00000e+00   5.34321e-10 DIIS
   @RHF iter  16:  -684.69877930510427   -3.63798e-12   1.63761e-10 DIIS
   @RHF iter  17:  -684.69877930510143    2.84217e-12   6.28658e-11 DIIS
  Energy and wave function converged.

  ==> Post-Iterations <==

    Orbital Energies [Eh]
    ---------------------

    Doubly Occupied:

       1A    -91.901770     2A    -20.506933     3A    -15.595699
       4A    -11.351196     5A    -11.256908     6A    -11.253061
       7A    -11.246028     8A     -8.908572     9A     -6.591497
      10A     -6.588988    11A     -6.587363    12A     -1.370557
      13A     -1.222766    14A     -1.043490    15A     -1.004492
      16A     -0.960858    17A     -0.804818    18A     -0.787608
      19A     -0.733958    20A     -0.659123    21A     -0.619085
      22A     -0.590626    23A     -0.585428    24A     -0.572768
      25A     -0.572385    26A     -0.564628    27A     -0.557977
      28A     -0.527176    29A     -0.523719    30A     -0.413620
      31A     -0.407758    32A     -0.350857    33A     -0.305010

    Virtual:

      34A      0.142067    35A      0.168102    36A      0.182099
      37A      0.197620    38A      0.221211    39A      0.227722
      40A      0.228382    41A      0.254815    42A      0.258442
      43A      0.264241    44A      0.270268    45A      0.305609
      46A      0.333871    47A      0.370026    48A      0.387886
      49A      0.458563    50A      0.536074    51A      0.552665
      52A      0.573406    53A      0.581902    54A      0.619473
      55A      0.648698    56A      0.657051    57A      0.672908
      58A      0.692540    59A      0.704633    60A      0.714687
      61A      0.732898    62A      0.759139    63A      0.771168
      64A      0.808728    65A      0.823915    66A      0.843134
      67A      0.851227    68A      0.858631    69A      0.871379
      70A      0.880167    71A      0.881152    72A      0.888749
      73A      0.898022    74A      0.909875    75A      0.913671
      76A      0.924420    77A      0.932297    78A      0.953318
      79A      0.968015    80A      1.000757    81A      1.019490
      82A      1.037704    83A      1.050488    84A      1.126803
      85A      1.135683    86A      1.160572    87A      1.223812
      88A      1.317112    89A      1.325284    90A      1.346039
      91A      1.357846    92A      1.362377    93A      1.390971
      94A      1.406082    95A      1.413004    96A      1.442289
      97A      1.452007    98A      1.475665    99A      1.479172
     100A      1.541694   101A      1.621903   102A      1.651369
     103A      1.679215   104A      1.700906   105A      1.748049
     106A      1.814613   107A      1.852693   108A      1.869817
     109A      1.886742   110A      1.892291   111A      1.896265
     112A      1.899419   113A      1.912796   114A      1.919870
     115A      1.942928   116A      1.945598   117A      1.972092
     118A      1.985594   119A      2.007922   120A      2.042447
     121A      2.047715   122A      2.060998   123A      2.068509
     124A      2.080718   125A      2.140261   126A      2.225891
     127A      2.229302   128A      2.242316   129A      2.281063
     130A      2.425544   131A      2.428092   132A      2.450046
     133A      2.455042   134A      2.459852   135A      2.464080
     136A      2.472018   137A      2.546161   138A      2.563302
     139A      2.616891   140A      2.737282   141A      2.751567
     142A      2.761814   143A      2.768133   144A      2.787226
     145A      2.796376   146A      2.812540   147A      2.821656
     148A      2.825374   149A      2.847610   150A      2.978005
     151A      3.091199   152A      3.136601   153A      3.274966
     154A      3.493509   155A      3.525023   156A      3.860870
     157A      3.907495

    Final Occupation by Irrep:
              A
    DOCC [    33 ]

  @RHF Final Energy:  -684.69877930510143

   => Energetics <=

    Nuclear Repulsion Energy =            364.1565355954552956
    One-Electron Energy =               -1663.7771818521061959
    Two-Electron Energy =                 614.9218669515494184
    Total Energy =                       -684.6987793051014251

Computation Completed

Properties will be evaluated at   0.000000,   0.000000,   0.000000 [a0]

Properties computed using the SCF density matrix

  Nuclear Dipole Moment: [e a0]
     X:    -4.4029      Y:    -2.1478      Z:     4.1002

  Electronic Dipole Moment: [e a0]
     X:     2.4853      Y:     2.3494      Z:    -2.8332

  Dipole Moment: [e a0]
     X:    -1.9175      Y:     0.2016      Z:     1.2670     Total:     2.3071

  Dipole Moment: [D]
     X:    -4.8739      Y:     0.5125      Z:     3.2203     Total:     5.8641

*** tstop() called on ds3 at Mon Apr 27 18:01:40 2020
Module time:
	user time   =      33.14 seconds =       0.55 minutes
	system time =      11.55 seconds =       0.19 minutes
	total time  =         44 seconds =       0.73 minutes
Total time:
	user time   =      33.14 seconds =       0.55 minutes
	system time =      11.55 seconds =       0.19 minutes
	total time  =         44 seconds =       0.73 minutes
                                     G D M A

                                 by Anthony Stone

                           version 2.2.06, 22 June 2011

               Distributed Multipoles from Gaussian wavefunctions

Starting at 18:1:40 on 27 Apr 2020

Using SCF density matrix from file ./SSI/SSI-123MET-140ASN-1-dimer.test.18627.fchk

                         Distributed Multipole Analysis

Standard DMA

Positions and radii in angstrom
Multipole moments in atomic units, ea_0^k for rank k

C          x = -0.692907  y =  0.010905  z = -1.770611 angstrom
           Maximum rank =  0   Radius =  0.650 angstrom
                   Q00  =  -0.271671

S          x =  0.408093  y = -1.387095  z = -1.629611 angstrom
           Maximum rank =  0   Radius =  0.650 angstrom
                   Q00  =  -0.064086

H          x = -1.120907  y =  0.043905  z = -2.773611 angstrom
           Maximum rank =  0   Radius =  0.325 angstrom
                   Q00  =   0.102291

H          x = -1.501907  y = -0.083095  z = -1.046611 angstrom
           Maximum rank =  0   Radius =  0.325 angstrom
                   Q00  =   0.083757

H          x = -0.146907  y =  0.934905  z = -1.584611 angstrom
           Maximum rank =  0   Radius =  0.325 angstrom
                   Q00  =   0.118775

C          x =  0.558493  y = -2.840435  z = -0.612101 angstrom
           Maximum rank =  0   Radius =  0.650 angstrom
                   Q00  =  -0.277634

H          x =  1.415683  y = -3.402965  z = -0.918191 angstrom
           Maximum rank =  0   Radius =  0.325 angstrom
                   Q00  =   0.139288

H          x = -0.330497  y = -3.467565  z = -0.714781 angstrom
           Maximum rank =  0   Radius =  0.325 angstrom
                   Q00  =   0.081414

H          x =  0.678463  y = -2.556225  z =  0.436319 angstrom
           Maximum rank =  0   Radius =  0.325 angstrom
                   Q00  =   0.080914

C          x = -0.149907  y =  0.693905  z =  2.701389 angstrom
           Maximum rank =  0   Radius =  0.650 angstrom
                   Q00  =  -0.261902

C          x = -0.128907  y =  1.491905  z =  1.418389 angstrom
           Maximum rank =  0   Radius =  0.650 angstrom
                   Q00  =   0.812953

O          x =  0.883093  y =  1.539905  z =  0.719389 angstrom
           Maximum rank =  0   Radius =  0.650 angstrom
                   Q00  =  -0.785108

N          x = -1.246907  y =  2.121905  z =  1.092389 angstrom
           Maximum rank =  0   Radius =  0.650 angstrom
                   Q00  =  -0.531412

H          x = -0.897907  y =  1.093905  z =  3.388389 angstrom
           Maximum rank =  0   Radius =  0.325 angstrom
                   Q00  =   0.077663

H          x =  0.826093  y =  0.839905  z =  3.169389 angstrom
           Maximum rank =  0   Radius =  0.325 angstrom
                   Q00  =   0.132781

H          x = -1.256907  y =  2.685905  z =  0.256389 angstrom
           Maximum rank =  0   Radius =  0.325 angstrom
                   Q00  =   0.223355

H          x = -2.070907  y =  2.038905  z =  1.675389 angstrom
           Maximum rank =  0   Radius =  0.325 angstrom
                   Q00  =   0.208340

H          x = -0.310707  y = -0.380895  z =  2.531189 angstrom
           Maximum rank =  0   Radius =  0.325 angstrom
                   Q00  =   0.130283

Total multipoles referred to origin at
           x =   0.000000,  y =    0.000000,  z =    0.000000 angstrom
                   Q00  =  -0.000000

Finished at 18:1:40 on 27 Apr 2020

  DMA results are available in the Python driver through the
	  variable('DMA DISTRIBUTED MULTIPOLES')
  and
	  variable('DMA TOTAL MULTIPOLES')
  commands.

    Psi4 stopped on: Monday, 27 April 2020 06:01PM
    Psi4 wall time for execution: 0:00:44.33

*** Psi4 exiting successfully. Buy a developer a beer!
