                               Psi4 1.3.2 release

  ==> Input File <==

--------------------------------------------------------------------------
import numpy as np
set {scf_type pk
basis cc-pvdz
d_convergence 10
gdma_switch   0
gdma_limit    0
gdma_origin   [ 0.0,  0.0,  0.0 ]
}
molecule test {
    units Angstrom
    0 1
    --
    0 1
    C               -0.286062449379360    -3.076935190859242     1.448887715156773
    C                0.990937550620640    -2.300935190859243     1.824887715156773
    H               -1.110062449379360    -2.376935190859243     1.298887715156773
    H               -0.120062449379360    -3.639935190859243     0.529887715156773
    H               -0.547062449379360    -3.770935190859243     2.243887715156773
    H                1.244937550620640    -1.614935190859243     1.013887715156773
    H                1.811937550620640    -3.002935190859243     1.964887715156773
    H                0.844517550620640    -1.728055190859243     2.752447715156773
    C               -1.028062449379360     1.948064809140757     2.093887715156773
    C               -1.292062449379360     0.366064809140757     0.141887715156773
    C               -0.483062449379360     1.252064809140757     0.843887715156773
    C               -0.899062449379360    -0.164935190859243    -1.105112284843227
    C                0.762937550620640     1.578064809140758     0.302887715156773
    C                0.320937550620640     0.199064809140757    -1.673112284843227
    C                1.185937550620640     1.057064809140757    -0.952112284843227
    O                0.553937550620640    -0.210935190859243    -2.964112284843227
    H               -2.246062449379360     0.095064809140757     0.573887715156773
    H               -1.546062449379360    -0.845935190859243    -1.641112284843227
    H               -0.200062449379360     2.235064809140758     2.740887715156773
    H               -1.674062449379360     1.254064809140757     2.640887715156773
    H                1.399937550620640     2.238064809140758     0.862887715156773
    H                2.191937550620640     1.233064809140757    -1.318112284843227
    H                1.353937550620640     0.157064809140757    -3.348112284843227
    H               -1.532202449379360     2.903874809140758     1.888257715156773

}
e, wfn = energy('scf', return_wfn=True)
gdma(wfn)
dmavals = variable('DMA DISTRIBUTED MULTIPOLES')
charges = np.array(dmavals)
print(charges)
np.save('SSI-064ILE-084TYR-1-dimer.npy', np.array(charges))--------------------------------------------------------------------------

*** tstart() called on ds3
*** at Tue Apr 28 11:50:45 2020

   => Loading Basis Set <=

    Name: CC-PVDZ
    Role: ORBITAL
    Keyword: BASIS
    atoms 1-2, 9-15  entry C          line   138 file /theoryfs2/ds/metcalf/miniconda2/envs/tf2gpu/share/psi4/basis/cc-pvdz.gbs
    atoms 3-8, 17-24 entry H          line    22 file /theoryfs2/ds/metcalf/miniconda2/envs/tf2gpu/share/psi4/basis/cc-pvdz.gbs
    atoms 16         entry O          line   198 file /theoryfs2/ds/metcalf/miniconda2/envs/tf2gpu/share/psi4/basis/cc-pvdz.gbs

         ---------------------------------------------------------
                                   SCF
               by Justin Turney, Rob Parrish, Andy Simmonett
                          and Daniel G. A. Smith
                              RHF Reference
                        1 Threads,    500 MiB Core
         ---------------------------------------------------------

  ==> Geometry <==

    Molecular point group: c1
    Full point group: C1

    Geometry (in Angstrom), charge = 0, multiplicity = 1:

       Center              X                  Y                   Z               Mass
    ------------   -----------------  -----------------  -----------------  -----------------
         C           -0.286062449379    -3.076935190859     1.448887715157    12.000000000000
         C            0.990937550621    -2.300935190859     1.824887715157    12.000000000000
         H           -1.110062449379    -2.376935190859     1.298887715157     1.007825032230
         H           -0.120062449379    -3.639935190859     0.529887715157     1.007825032230
         H           -0.547062449379    -3.770935190859     2.243887715157     1.007825032230
         H            1.244937550621    -1.614935190859     1.013887715157     1.007825032230
         H            1.811937550621    -3.002935190859     1.964887715157     1.007825032230
         H            0.844517550621    -1.728055190859     2.752447715157     1.007825032230
         C           -1.028062449379     1.948064809141     2.093887715157    12.000000000000
         C           -1.292062449379     0.366064809141     0.141887715157    12.000000000000
         C           -0.483062449379     1.252064809141     0.843887715157    12.000000000000
         C           -0.899062449379    -0.164935190859    -1.105112284843    12.000000000000
         C            0.762937550621     1.578064809141     0.302887715157    12.000000000000
         C            0.320937550621     0.199064809141    -1.673112284843    12.000000000000
         C            1.185937550621     1.057064809141    -0.952112284843    12.000000000000
         O            0.553937550621    -0.210935190859    -2.964112284843    15.994914619570
         H           -2.246062449379     0.095064809141     0.573887715157     1.007825032230
         H           -1.546062449379    -0.845935190859    -1.641112284843     1.007825032230
         H           -0.200062449379     2.235064809141     2.740887715157     1.007825032230
         H           -1.674062449379     1.254064809141     2.640887715157     1.007825032230
         H            1.399937550621     2.238064809141     0.862887715157     1.007825032230
         H            2.191937550621     1.233064809141    -1.318112284843     1.007825032230
         H            1.353937550621     0.157064809141    -3.348112284843     1.007825032230
         H           -1.532202449379     2.903874809141     1.888257715157     1.007825032230

  Running in c1 symmetry.

  Rotational constants: A =      0.03891  B =      0.03220  C =      0.02226 [cm^-1]
  Rotational constants: A =   1166.61554  B =    965.26897  C =    667.47262 [MHz]
  Nuclear repulsion =  504.207943742547741

  Charge       = 0
  Multiplicity = 1
  Electrons    = 76
  Nalpha       = 38
  Nbeta        = 38

  ==> Algorithm <==

  SCF Algorithm Type is PK.
  DIIS enabled.
  MOM disabled.
  Fractional occupation disabled.
  Guess Type is SAD.
  Energy threshold   = 1.00e-06
  Density threshold  = 1.00e-10
  Integral threshold = 0.00e+00

  ==> Primary Basis <==

  Basis Set: CC-PVDZ
    Blend: CC-PVDZ
    Number of shells: 102
    Number of basis function: 210
    Number of Cartesian functions: 220
    Spherical Harmonics?: true
    Max angular momentum: 2

  ==> Pre-Iterations <==

   -------------------------------------------------------
    Irrep   Nso     Nmo     Nalpha   Nbeta   Ndocc  Nsocc
   -------------------------------------------------------
     A        210     210       0       0       0       0
   -------------------------------------------------------
    Total     210     210      38      38      38       0
   -------------------------------------------------------

  ==> Integral Setup <==

  Using integral reordering PK algorithm.
  Sizing the integral batches needed.
  Building batch lookup table.
   Calculation information:
      Number of atoms:                  24
      Number of AO shells:             102
      Number of primitives:            290
      Number of atomic orbitals:       220
      Number of basis functions:       210

      Integral cutoff                 1.00e-12
      Number of threads:                 1

	Batch   1 pq = [       0,    9405] index = [             0,44231715] size =     44231715
	Batch   2 pq = [    9405,   13301] index = [      44231715,88464951] size =     44233236
	Batch   3 pq = [   13301,   16290] index = [      88464951,132690195] size =     44225244
	Batch   4 pq = [   16290,   18810] index = [     132690195,176917455] size =     44227260
	Batch   5 pq = [   18810,   21030] index = [     176917455,221140965] size =     44223510
	Batch   6 pq = [   21030,   22155] index = [     221140965,245433090] size =     24292125
  Task number: 23
  Buffer size: 11059200
  Buffer per thread: 2
  We computed 13105817 shell quartets total.
  Whereas there are 13799631 unique shell quartets.

  ==> DiskJK: Disk-Based J/K Matrices <==

    J tasked:                  Yes
    K tasked:                  Yes
    wK tasked:                  No
    Memory [MiB]:              375
    Schwarz Cutoff:          1E-12

    OpenMP threads:              1

  Minimum eigenvalue in the overlap matrix is 3.5433374675E-04.
  Using Symmetric Orthogonalization.

  SCF Guess: Superposition of Atomic Densities via on-the-fly atomic UHF.

  ==> Iterations <==

                        Total Energy        Delta E     RMS |[F,P]|

   @RHF iter SAD:  -422.46081832238497   -4.22461e+02   0.00000e+00
   @RHF iter   1:  -423.60080538985460   -1.13999e+00   2.95220e-03 DIIS
   @RHF iter   2:  -423.81205476277160   -2.11249e-01   1.27153e-03 DIIS
   @RHF iter   3:  -423.84754219772242   -3.54874e-02   2.94158e-04 DIIS
   @RHF iter   4:  -423.85049413599614   -2.95194e-03   1.28071e-04 DIIS
   @RHF iter   5:  -423.85092179519586   -4.27659e-04   2.06547e-05 DIIS
   @RHF iter   6:  -423.85094007436203   -1.82792e-05   6.68556e-06 DIIS
   @RHF iter   7:  -423.85094196242744   -1.88807e-06   2.39172e-06 DIIS
   @RHF iter   8:  -423.85094228483422   -3.22407e-07   9.57204e-07 DIIS
   @RHF iter   9:  -423.85094235407013   -6.92359e-08   4.32049e-07 DIIS
   @RHF iter  10:  -423.85094237030057   -1.62304e-08   1.94642e-07 DIIS
   @RHF iter  11:  -423.85094237539192   -5.09135e-09   8.05992e-08 DIIS
   @RHF iter  12:  -423.85094237608456   -6.92637e-10   3.51661e-08 DIIS
   @RHF iter  13:  -423.85094237618836   -1.03796e-10   9.08507e-09 DIIS
   @RHF iter  14:  -423.85094237619649   -8.12861e-12   2.61660e-09 DIIS
   @RHF iter  15:  -423.85094237619472    1.76215e-12   8.28039e-10 DIIS
   @RHF iter  16:  -423.85094237619501   -2.84217e-13   2.84473e-10 DIIS
   @RHF iter  17:  -423.85094237619512   -1.13687e-13   1.16331e-10 DIIS
   @RHF iter  18:  -423.85094237619313    1.98952e-12   5.17120e-11 DIIS
  Energy and wave function converged.

  ==> Post-Iterations <==

    Orbital Energies [Eh]
    ---------------------

    Doubly Occupied:

       1A    -20.585980     2A    -11.306241     3A    -11.244719
       4A    -11.243278     5A    -11.240456     6A    -11.236621
       7A    -11.233126     8A    -11.232318     9A    -11.208357
      10A    -11.207622    11A     -1.396428    12A     -1.145146
      13A     -1.034998    14A     -1.010426    15A     -1.004997
      16A     -0.927625    17A     -0.845300    18A     -0.827953
      19A     -0.800556    20A     -0.730415    21A     -0.661851
      22A     -0.641661    23A     -0.610354    24A     -0.590936
      25A     -0.586580    26A     -0.583020    27A     -0.579690
      28A     -0.569081    29A     -0.563886    30A     -0.528718
      31A     -0.499305    32A     -0.486955    33A     -0.485686
      34A     -0.477964    35A     -0.477849    36A     -0.460661
      37A     -0.333291    38A     -0.305166

    Virtual:

      39A      0.123537    40A      0.149336    41A      0.175292
      42A      0.179668    43A      0.203834    44A      0.213767
      45A      0.220097    46A      0.250394    47A      0.253995
      48A      0.260684    49A      0.269820    50A      0.277592
      51A      0.284330    52A      0.290724    53A      0.301104
      54A      0.317628    55A      0.362832    56A      0.369107
      57A      0.402249    58A      0.424169    59A      0.449087
      60A      0.477467    61A      0.486904    62A      0.510073
      63A      0.581832    64A      0.595097    65A      0.601320
      66A      0.611153    67A      0.636841    68A      0.642904
      69A      0.659307    70A      0.664454    71A      0.674919
      72A      0.686338    73A      0.698248    74A      0.726951
      75A      0.736469    76A      0.759755    77A      0.775198
      78A      0.779059    79A      0.782065    80A      0.794072
      81A      0.832907    82A      0.842711    83A      0.847460
      84A      0.852342    85A      0.868852    86A      0.870857
      87A      0.877476    88A      0.882455    89A      0.892823
      90A      0.912247    91A      0.912624    92A      0.915583
      93A      0.920778    94A      0.929408    95A      0.940283
      96A      0.951897    97A      0.959708    98A      0.987748
      99A      1.005614   100A      1.007454   101A      1.049714
     102A      1.078371   103A      1.113550   104A      1.131120
     105A      1.135807   106A      1.139128   107A      1.145879
     108A      1.167402   109A      1.204593   110A      1.224078
     111A      1.233250   112A      1.257388   113A      1.265527
     114A      1.272628   115A      1.287475   116A      1.308095
     117A      1.327333   118A      1.336114   119A      1.354635
     120A      1.401090   121A      1.480785   122A      1.483352
     123A      1.487451   124A      1.496788   125A      1.528470
     126A      1.552153   127A      1.588232   128A      1.610526
     129A      1.619655   130A      1.665409   131A      1.689988
     132A      1.698061   133A      1.710299   134A      1.718752
     135A      1.740763   136A      1.782703   137A      1.793754
     138A      1.809453   139A      1.844221   140A      1.864045
     141A      1.878539   142A      1.881020   143A      1.885088
     144A      1.891864   145A      1.903999   146A      1.920884
     147A      1.925252   148A      1.940723   149A      1.949869
     150A      1.951154   151A      1.959186   152A      1.964065
     153A      1.969080   154A      1.980560   155A      1.986142
     156A      2.002491   157A      2.014167   158A      2.027172
     159A      2.042858   160A      2.060650   161A      2.072038
     162A      2.115450   163A      2.121913   164A      2.129263
     165A      2.141933   166A      2.154978   167A      2.198002
     168A      2.216669   169A      2.257609   170A      2.266529
     171A      2.294202   172A      2.300658   173A      2.318576
     174A      2.326793   175A      2.362843   176A      2.408465
     177A      2.434568   178A      2.465638   179A      2.472075
     180A      2.477192   181A      2.479192   182A      2.512950
     183A      2.523294   184A      2.577345   185A      2.584382
     186A      2.586935   187A      2.608750   188A      2.743008
     189A      2.755241   190A      2.775388   191A      2.789332
     192A      2.800648   193A      2.808951   194A      2.831238
     195A      2.867284   196A      2.869098   197A      2.885569
     198A      2.933795   199A      2.966145   200A      2.977854
     201A      3.000617   202A      3.047663   203A      3.084916
     204A      3.231921   205A      3.261646   206A      3.346702
     207A      3.532580   208A      3.648898   209A      3.908736
     210A      4.188499

    Final Occupation by Irrep:
              A
    DOCC [    38 ]

  @RHF Final Energy:  -423.85094237619313

   => Energetics <=

    Nuclear Repulsion Energy =            504.2079437425477408
    One-Electron Energy =               -1574.3073385329626035
    Two-Electron Energy =                 646.2484524142216742
    Total Energy =                       -423.8509423761931885

Computation Completed

Properties will be evaluated at   0.000000,   0.000000,   0.000000 [a0]

Properties computed using the SCF density matrix

  Nuclear Dipole Moment: [e a0]
     X:    -0.1177      Y:    -6.4352      Z:    11.4260

  Electronic Dipole Moment: [e a0]
     X:     0.5108      Y:     6.8971      Z:   -11.3589

  Dipole Moment: [e a0]
     X:     0.3931      Y:     0.4619      Z:     0.0671     Total:     0.6102

  Dipole Moment: [D]
     X:     0.9992      Y:     1.1740      Z:     0.1707     Total:     1.5510

*** tstop() called on ds3 at Tue Apr 28 11:53:02 2020
Module time:
	user time   =     101.39 seconds =       1.69 minutes
	system time =      41.46 seconds =       0.69 minutes
	total time  =        137 seconds =       2.28 minutes
Total time:
	user time   =     101.39 seconds =       1.69 minutes
	system time =      41.46 seconds =       0.69 minutes
	total time  =        137 seconds =       2.28 minutes
                                     G D M A

                                 by Anthony Stone

                           version 2.2.06, 22 June 2011

               Distributed Multipoles from Gaussian wavefunctions

Starting at 11:53:2 on 28 Apr 2020

Using SCF density matrix from file ./SSI/SSI-064ILE-084TYR-1-dimer.test.6977.fchk

                         Distributed Multipole Analysis

Standard DMA

Positions and radii in angstrom
Multipole moments in atomic units, ea_0^k for rank k

C          x = -0.286062  y = -3.076935  z =  1.448888 angstrom
           Maximum rank =  0   Radius =  0.650 angstrom
                   Q00  =  -0.233875

C          x =  0.990938  y = -2.300935  z =  1.824888 angstrom
           Maximum rank =  0   Radius =  0.650 angstrom
                   Q00  =  -0.240387

H          x = -1.110062  y = -2.376935  z =  1.298888 angstrom
           Maximum rank =  0   Radius =  0.325 angstrom
                   Q00  =   0.080026

H          x = -0.120062  y = -3.639935  z =  0.529888 angstrom
           Maximum rank =  0   Radius =  0.325 angstrom
                   Q00  =   0.079767

H          x = -0.547062  y = -3.770935  z =  2.243888 angstrom
           Maximum rank =  0   Radius =  0.325 angstrom
                   Q00  =   0.072754

H          x =  1.244938  y = -1.614935  z =  1.013888 angstrom
           Maximum rank =  0   Radius =  0.325 angstrom
                   Q00  =   0.091326

H          x =  1.811938  y = -3.002935  z =  1.964888 angstrom
           Maximum rank =  0   Radius =  0.325 angstrom
                   Q00  =   0.072771

H          x =  0.844518  y = -1.728055  z =  2.752448 angstrom
           Maximum rank =  0   Radius =  0.325 angstrom
                   Q00  =   0.074870

C          x = -1.028062  y =  1.948065  z =  2.093888 angstrom
           Maximum rank =  0   Radius =  0.650 angstrom
                   Q00  =  -0.205990

C          x = -1.292062  y =  0.366065  z =  0.141888 angstrom
           Maximum rank =  0   Radius =  0.650 angstrom
                   Q00  =   0.015654

C          x = -0.483062  y =  1.252065  z =  0.843888 angstrom
           Maximum rank =  0   Radius =  0.650 angstrom
                   Q00  =  -0.119585

C          x = -0.899062  y = -0.164935  z = -1.105112 angstrom
           Maximum rank =  0   Radius =  0.650 angstrom
                   Q00  =  -0.096112

C          x =  0.762938  y =  1.578065  z =  0.302888 angstrom
           Maximum rank =  0   Radius =  0.650 angstrom
                   Q00  =  -0.031406

C          x =  0.320938  y =  0.199065  z = -1.673112 angstrom
           Maximum rank =  0   Radius =  0.650 angstrom
                   Q00  =   0.308577

C          x =  1.185938  y =  1.057065  z = -0.952112 angstrom
           Maximum rank =  0   Radius =  0.650 angstrom
                   Q00  =  -0.204997

O          x =  0.553938  y = -0.210935  z = -2.964112 angstrom
           Maximum rank =  0   Radius =  0.650 angstrom
                   Q00  =  -0.670228

H          x = -2.246062  y =  0.095065  z =  0.573888 angstrom
           Maximum rank =  0   Radius =  0.325 angstrom
                   Q00  =   0.064695

H          x = -1.546062  y = -0.845935  z = -1.641112 angstrom
           Maximum rank =  0   Radius =  0.325 angstrom
                   Q00  =   0.083385

H          x = -0.200062  y =  2.235065  z =  2.740888 angstrom
           Maximum rank =  0   Radius =  0.325 angstrom
                   Q00  =   0.094673

H          x = -1.674062  y =  1.254065  z =  2.640888 angstrom
           Maximum rank =  0   Radius =  0.325 angstrom
                   Q00  =   0.099625

H          x =  1.399938  y =  2.238065  z =  0.862888 angstrom
           Maximum rank =  0   Radius =  0.325 angstrom
                   Q00  =   0.072542

H          x =  2.191938  y =  1.233065  z = -1.318112 angstrom
           Maximum rank =  0   Radius =  0.325 angstrom
                   Q00  =   0.082448

H          x =  1.353938  y =  0.157065  z = -3.348112 angstrom
           Maximum rank =  0   Radius =  0.325 angstrom
                   Q00  =   0.406844

H          x = -1.532202  y =  2.903875  z =  1.888258 angstrom
           Maximum rank =  0   Radius =  0.325 angstrom
                   Q00  =   0.102624

Total multipoles referred to origin at
           x =   0.000000,  y =    0.000000,  z =    0.000000 angstrom
                   Q00  =  -0.000000

Finished at 11:53:2 on 28 Apr 2020

  DMA results are available in the Python driver through the
	  variable('DMA DISTRIBUTED MULTIPOLES')
  and
	  variable('DMA TOTAL MULTIPOLES')
  commands.

    Psi4 stopped on: Tuesday, 28 April 2020 11:53AM
    Psi4 wall time for execution: 0:02:17.11

*** Psi4 exiting successfully. Buy a developer a beer!
