                               Psi4 1.3.2 release

  ==> Input File <==

--------------------------------------------------------------------------
import numpy as np
set {scf_type pk
basis cc-pvdz
d_convergence 10
gdma_switch   0
gdma_limit    0
gdma_origin   [ 0.0,  0.0,  0.0 ]
}
molecule test {
    units Angstrom
    0 1
    --
    0 1
    C                2.392212633727361    -1.290949094168117    -2.240015452655209
    C               -0.723787366272639    -0.559949094168117    -0.104015452655209
    C                0.381212633727362    -1.203949094168117    -0.714015452655209
    C               -1.020787366272639     0.754050905831883    -0.431015452655209
    C                1.200212633727362    -0.565949094168117    -1.647015452655209
    C               -0.220787366272639     1.399050905831883    -1.366015452655209
    C                0.896212633727361     0.746050905831883    -1.989015452655209
    H               -1.339787366272639    -1.073949094168117     0.618984547344791
    H                0.623212633727361    -2.225949094168117    -0.464015452655209
    H               -1.855787366272639     1.267050905831883     0.027984547344791
    H               -0.482787366272639     2.398050905831883    -1.597015452655209
    H                2.986212633727361    -1.665949094168117    -1.405015452655209
    H                2.979212633727362    -0.554949094168117    -2.790015452655209
    H                1.508212633727362     1.258050905831883    -2.723015452655209
    H                2.126572633727361    -2.112149094168118    -2.921965452655209
    C               -0.678787366272639     0.157050905831883     3.545984547344791
    C               -2.077787366272638     0.599050905831882     3.991984547344790
    H               -0.731787366272639    -0.836949094168117     3.105984547344790
    H               -0.296787366272639     0.860050905831883     2.803984547344791
    H               -0.006787366272639     0.139050905831883     4.403984547344791
    H               -2.010787366272639     1.595050905831883     4.429984547344791
    H               -2.486337366272639    -0.120849094168117     4.716434547344790
    H               -2.773757366272639     0.663150905831883     3.142564547344791

}
e, wfn = energy('scf', return_wfn=True)
gdma(wfn)
dmavals = variable('DMA DISTRIBUTED MULTIPOLES')
charges = np.array(dmavals)
print(charges)
np.save('SSI-078PHE-107ALA-2-dimer.npy', np.array(charges))--------------------------------------------------------------------------

*** tstart() called on ds3
*** at Tue Apr 28 00:17:29 2020

   => Loading Basis Set <=

    Name: CC-PVDZ
    Role: ORBITAL
    Keyword: BASIS
    atoms 1-7, 16-17  entry C          line   138 file /theoryfs2/ds/metcalf/miniconda2/envs/tf2gpu/share/psi4/basis/cc-pvdz.gbs
    atoms 8-15, 18-23 entry H          line    22 file /theoryfs2/ds/metcalf/miniconda2/envs/tf2gpu/share/psi4/basis/cc-pvdz.gbs

         ---------------------------------------------------------
                                   SCF
               by Justin Turney, Rob Parrish, Andy Simmonett
                          and Daniel G. A. Smith
                              RHF Reference
                        1 Threads,    500 MiB Core
         ---------------------------------------------------------

  ==> Geometry <==

    Molecular point group: c1
    Full point group: C1

    Geometry (in Angstrom), charge = 0, multiplicity = 1:

       Center              X                  Y                   Z               Mass
    ------------   -----------------  -----------------  -----------------  -----------------
         C            2.392212633727    -1.290949094168    -2.240015452655    12.000000000000
         C           -0.723787366273    -0.559949094168    -0.104015452655    12.000000000000
         C            0.381212633727    -1.203949094168    -0.714015452655    12.000000000000
         C           -1.020787366273     0.754050905832    -0.431015452655    12.000000000000
         C            1.200212633727    -0.565949094168    -1.647015452655    12.000000000000
         C           -0.220787366273     1.399050905832    -1.366015452655    12.000000000000
         C            0.896212633727     0.746050905832    -1.989015452655    12.000000000000
         H           -1.339787366273    -1.073949094168     0.618984547345     1.007825032230
         H            0.623212633727    -2.225949094168    -0.464015452655     1.007825032230
         H           -1.855787366273     1.267050905832     0.027984547345     1.007825032230
         H           -0.482787366273     2.398050905832    -1.597015452655     1.007825032230
         H            2.986212633727    -1.665949094168    -1.405015452655     1.007825032230
         H            2.979212633727    -0.554949094168    -2.790015452655     1.007825032230
         H            1.508212633727     1.258050905832    -2.723015452655     1.007825032230
         H            2.126572633727    -2.112149094168    -2.921965452655     1.007825032230
         C           -0.678787366273     0.157050905832     3.545984547345    12.000000000000
         C           -2.077787366273     0.599050905832     3.991984547345    12.000000000000
         H           -0.731787366273    -0.836949094168     3.105984547345     1.007825032230
         H           -0.296787366273     0.860050905832     2.803984547345     1.007825032230
         H           -0.006787366273     0.139050905832     4.403984547345     1.007825032230
         H           -2.010787366273     1.595050905832     4.429984547345     1.007825032230
         H           -2.486337366273    -0.120849094168     4.716434547345     1.007825032230
         H           -2.773757366273     0.663150905832     3.142564547345     1.007825032230

  Running in c1 symmetry.

  Rotational constants: A =      0.09559  B =      0.02026  C =      0.01814 [cm^-1]
  Rotational constants: A =   2865.77501  B =    607.38537  C =    543.72978 [MHz]
  Nuclear repulsion =  400.028942768154025

  Charge       = 0
  Multiplicity = 1
  Electrons    = 68
  Nalpha       = 34
  Nbeta        = 34

  ==> Algorithm <==

  SCF Algorithm Type is PK.
  DIIS enabled.
  MOM disabled.
  Fractional occupation disabled.
  Guess Type is SAD.
  Energy threshold   = 1.00e-06
  Density threshold  = 1.00e-10
  Integral threshold = 0.00e+00

  ==> Primary Basis <==

  Basis Set: CC-PVDZ
    Blend: CC-PVDZ
    Number of shells: 96
    Number of basis function: 196
    Number of Cartesian functions: 205
    Spherical Harmonics?: true
    Max angular momentum: 2

  ==> Pre-Iterations <==

   -------------------------------------------------------
    Irrep   Nso     Nmo     Nalpha   Nbeta   Ndocc  Nsocc
   -------------------------------------------------------
     A        196     196       0       0       0       0
   -------------------------------------------------------
    Total     196     196      34      34      34       0
   -------------------------------------------------------

  ==> Integral Setup <==

  Using integral reordering PK algorithm.
  Sizing the integral batches needed.
  Building batch lookup table.
   Calculation information:
      Number of atoms:                  23
      Number of AO shells:              96
      Number of primitives:            268
      Number of atomic orbitals:       205
      Number of basis functions:       196

      Integral cutoff                 1.00e-12
      Number of threads:                 1

	Batch   1 pq = [       0,    9405] index = [             0,44231715] size =     44231715
	Batch   2 pq = [    9405,   13301] index = [      44231715,88464951] size =     44233236
	Batch   3 pq = [   13301,   16290] index = [      88464951,132690195] size =     44225244
	Batch   4 pq = [   16290,   18810] index = [     132690195,176917455] size =     44227260
	Batch   5 pq = [   18810,   19306] index = [     176917455,186370471] size =      9453016
  Task number: 17
  Buffer size: 11059200
  Buffer per thread: 2
  We computed 8748622 shell quartets total.
  Whereas there are 10841496 unique shell quartets.

  ==> DiskJK: Disk-Based J/K Matrices <==

    J tasked:                  Yes
    K tasked:                  Yes
    wK tasked:                  No
    Memory [MiB]:              375
    Schwarz Cutoff:          1E-12

    OpenMP threads:              1

  Minimum eigenvalue in the overlap matrix is 3.2604186663E-04.
  Using Symmetric Orthogonalization.

  SCF Guess: Superposition of Atomic Densities via on-the-fly atomic UHF.

  ==> Iterations <==

                        Total Energy        Delta E     RMS |[F,P]|

   @RHF iter SAD:  -347.74579021286843   -3.47746e+02   0.00000e+00
   @RHF iter   1:  -348.76803817522699   -1.02225e+00   2.85506e-03 DIIS
   @RHF iter   2:  -348.95717443167138   -1.89136e-01   1.17165e-03 DIIS
   @RHF iter   3:  -348.98607268892465   -2.88983e-02   2.54927e-04 DIIS
   @RHF iter   4:  -348.98850891443368   -2.43623e-03   4.85438e-05 DIIS
   @RHF iter   5:  -348.98857311154222   -6.41971e-05   1.66071e-05 DIIS
   @RHF iter   6:  -348.98858017593466   -7.06439e-06   4.59213e-06 DIIS
   @RHF iter   7:  -348.98858086704888   -6.91114e-07   1.50900e-06 DIIS
   @RHF iter   8:  -348.98858098051568   -1.13467e-07   5.51792e-07 DIIS
   @RHF iter   9:  -348.98858101554907   -3.50334e-08   2.73639e-07 DIIS
   @RHF iter  10:  -348.98858102488532   -9.33625e-09   1.22613e-07 DIIS
   @RHF iter  11:  -348.98858102652173   -1.63641e-09   3.77588e-08 DIIS
   @RHF iter  12:  -348.98858102662359   -1.01863e-10   1.54929e-08 DIIS
   @RHF iter  13:  -348.98858102663388   -1.02887e-11   4.96937e-09 DIIS
   @RHF iter  14:  -348.98858102663672   -2.84217e-12   1.80300e-09 DIIS
   @RHF iter  15:  -348.98858102663627    4.54747e-13   8.92765e-10 DIIS
   @RHF iter  16:  -348.98858102663718   -9.09495e-13   3.97556e-10 DIIS
   @RHF iter  17:  -348.98858102663718    0.00000e+00   1.05979e-10 DIIS
   @RHF iter  18:  -348.98858102663667    5.11591e-13   4.12742e-11 DIIS
  Energy and wave function converged.

  ==> Post-Iterations <==

    Orbital Energies [Eh]
    ---------------------

    Doubly Occupied:

       1A    -11.241464     2A    -11.238051     3A    -11.237405
       4A    -11.236174     5A    -11.232151     6A    -11.231932
       7A    -11.231168     8A    -11.218685     9A    -11.214245
      10A     -1.146960    11A     -1.046832    12A     -1.015291
      13A     -1.000011    14A     -0.932683    15A     -0.835362
      16A     -0.830053    17A     -0.787923    18A     -0.689734
      19A     -0.633258    20A     -0.628008    21A     -0.598171
      22A     -0.593615    23A     -0.579275    24A     -0.573347
      25A     -0.565009    26A     -0.537177    27A     -0.497713
      28A     -0.487726    29A     -0.486650    30A     -0.482641
      31A     -0.480942    32A     -0.478675    33A     -0.327741
      34A     -0.322109

    Virtual:

      35A      0.129803    36A      0.143007    37A      0.166278
      38A      0.191133    39A      0.210784    40A      0.220392
      41A      0.228441    42A      0.244025    43A      0.252435
      44A      0.257233    45A      0.267241    46A      0.272916
      47A      0.278251    48A      0.290639    49A      0.317396
      50A      0.328128    51A      0.367190    52A      0.371451
      53A      0.395958    54A      0.448783    55A      0.460873
      56A      0.467848    57A      0.498509    58A      0.560102
      59A      0.586909    60A      0.602846    61A      0.604935
      62A      0.622083    63A      0.630786    64A      0.654172
      65A      0.668857    66A      0.691209    67A      0.692995
      68A      0.712492    69A      0.721817    70A      0.741022
      71A      0.743479    72A      0.751272    73A      0.752424
      74A      0.762414    75A      0.784634    76A      0.804994
      77A      0.840875    78A      0.854342    79A      0.857346
      80A      0.868882    81A      0.876203    82A      0.882651
      83A      0.893371    84A      0.894125    85A      0.897284
      86A      0.906495    87A      0.912159    88A      0.916982
      89A      0.927468    90A      0.939639    91A      0.944188
      92A      0.956827    93A      0.977831    94A      0.994631
      95A      1.016067    96A      1.058301    97A      1.111914
      98A      1.123770    99A      1.129677   100A      1.136741
     101A      1.150530   102A      1.161016   103A      1.189353
     104A      1.228467   105A      1.232276   106A      1.239301
     107A      1.254861   108A      1.267669   109A      1.294164
     110A      1.301618   111A      1.320677   112A      1.328441
     113A      1.414933   114A      1.478682   115A      1.482370
     116A      1.499101   117A      1.534724   118A      1.540775
     119A      1.566973   120A      1.619765   121A      1.675912
     122A      1.681870   123A      1.688295   124A      1.694471
     125A      1.721144   126A      1.739869   127A      1.770009
     128A      1.793821   129A      1.797206   130A      1.852924
     131A      1.864819   132A      1.872537   133A      1.883697
     134A      1.890926   135A      1.896263   136A      1.900974
     137A      1.923166   138A      1.928801   139A      1.937281
     140A      1.945086   141A      1.948523   142A      1.953633
     143A      1.957877   144A      1.958998   145A      1.967439
     146A      1.974998   147A      1.991760   148A      2.012042
     149A      2.030239   150A      2.041166   151A      2.073428
     152A      2.099575   153A      2.101260   154A      2.114588
     155A      2.123101   156A      2.140848   157A      2.162765
     158A      2.176432   159A      2.195823   160A      2.242385
     161A      2.265700   162A      2.288817   163A      2.297536
     164A      2.302469   165A      2.314435   166A      2.328146
     167A      2.338283   168A      2.443108   169A      2.455676
     170A      2.463143   171A      2.467509   172A      2.508429
     173A      2.526912   174A      2.559222   175A      2.578376
     176A      2.622837   177A      2.733782   178A      2.750208
     179A      2.764243   180A      2.773471   181A      2.775748
     182A      2.799483   183A      2.822360   184A      2.839642
     185A      2.850545   186A      2.858525   187A      2.860165
     188A      2.943835   189A      2.953890   190A      2.961310
     191A      2.981920   192A      3.049890   193A      3.129043
     194A      3.173353   195A      3.298870   196A      3.930284

    Final Occupation by Irrep:
              A
    DOCC [    34 ]

  @RHF Final Energy:  -348.98858102663667

   => Energetics <=

    Nuclear Repulsion Energy =            400.0289427681540246
    One-Electron Energy =               -1262.7586807689635862
    Two-Electron Energy =                 513.7411569741728954
    Total Energy =                       -348.9885810266366661

Computation Completed

Properties will be evaluated at   0.000000,   0.000000,   0.000000 [a0]

Properties computed using the SCF density matrix

  Nuclear Dipole Moment: [e a0]
     X:    -1.6511      Y:    -0.3846      Z:    10.6392

  Electronic Dipole Moment: [e a0]
     X:     1.7820      Y:     0.3274      Z:   -10.7031

  Dipole Moment: [e a0]
     X:     0.1310      Y:    -0.0573      Z:    -0.0639     Total:     0.1565

  Dipole Moment: [D]
     X:     0.3329      Y:    -0.1455      Z:    -0.1623     Total:     0.3979

*** tstop() called on ds3 at Tue Apr 28 00:19:51 2020
Module time:
	user time   =      63.77 seconds =       1.06 minutes
	system time =      28.94 seconds =       0.48 minutes
	total time  =        142 seconds =       2.37 minutes
Total time:
	user time   =      63.77 seconds =       1.06 minutes
	system time =      28.94 seconds =       0.48 minutes
	total time  =        142 seconds =       2.37 minutes
                                     G D M A

                                 by Anthony Stone

                           version 2.2.06, 22 June 2011

               Distributed Multipoles from Gaussian wavefunctions

Starting at 0:19:51 on 28 Apr 2020

Using SCF density matrix from file ./SSI/SSI-078PHE-107ALA-2-dimer.test.5038.fchk

                         Distributed Multipole Analysis

Standard DMA

Positions and radii in angstrom
Multipole moments in atomic units, ea_0^k for rank k

C          x =  2.392213  y = -1.290949  z = -2.240015 angstrom
           Maximum rank =  0   Radius =  0.650 angstrom
                   Q00  =  -0.203273

C          x = -0.723787  y = -0.559949  z = -0.104015 angstrom
           Maximum rank =  0   Radius =  0.650 angstrom
                   Q00  =  -0.080007

C          x =  0.381213  y = -1.203949  z = -0.714015 angstrom
           Maximum rank =  0   Radius =  0.650 angstrom
                   Q00  =   0.000166

C          x = -1.020787  y =  0.754051  z = -0.431015 angstrom
           Maximum rank =  0   Radius =  0.650 angstrom
                   Q00  =  -0.091675

C          x =  1.200213  y = -0.565949  z = -1.647015 angstrom
           Maximum rank =  0   Radius =  0.650 angstrom
                   Q00  =  -0.100918

C          x = -0.220787  y =  1.399051  z = -1.366015 angstrom
           Maximum rank =  0   Radius =  0.650 angstrom
                   Q00  =  -0.049783

C          x =  0.896213  y =  0.746051  z = -1.989015 angstrom
           Maximum rank =  0   Radius =  0.650 angstrom
                   Q00  =  -0.096892

H          x = -1.339787  y = -1.073949  z =  0.618985 angstrom
           Maximum rank =  0   Radius =  0.325 angstrom
                   Q00  =   0.066782

H          x =  0.623213  y = -2.225949  z = -0.464015 angstrom
           Maximum rank =  0   Radius =  0.325 angstrom
                   Q00  =   0.054138

H          x = -1.855787  y =  1.267051  z =  0.027985 angstrom
           Maximum rank =  0   Radius =  0.325 angstrom
                   Q00  =   0.063889

H          x = -0.482787  y =  2.398051  z = -1.597015 angstrom
           Maximum rank =  0   Radius =  0.325 angstrom
                   Q00  =   0.065017

H          x =  2.986213  y = -1.665949  z = -1.405015 angstrom
           Maximum rank =  0   Radius =  0.325 angstrom
                   Q00  =   0.102504

H          x =  2.979213  y = -0.554949  z = -2.790015 angstrom
           Maximum rank =  0   Radius =  0.325 angstrom
                   Q00  =   0.097504

H          x =  1.508213  y =  1.258051  z = -2.723015 angstrom
           Maximum rank =  0   Radius =  0.325 angstrom
                   Q00  =   0.064408

H          x =  2.126573  y = -2.112149  z = -2.921965 angstrom
           Maximum rank =  0   Radius =  0.325 angstrom
                   Q00  =   0.106798

C          x = -0.678787  y =  0.157051  z =  3.545985 angstrom
           Maximum rank =  0   Radius =  0.650 angstrom
                   Q00  =  -0.230342

C          x = -2.077787  y =  0.599051  z =  3.991985 angstrom
           Maximum rank =  0   Radius =  0.650 angstrom
                   Q00  =  -0.241963

H          x = -0.731787  y = -0.836949  z =  3.105985 angstrom
           Maximum rank =  0   Radius =  0.325 angstrom
                   Q00  =   0.075575

H          x = -0.296787  y =  0.860051  z =  2.803985 angstrom
           Maximum rank =  0   Radius =  0.325 angstrom
                   Q00  =   0.086806

H          x = -0.006787  y =  0.139051  z =  4.403985 angstrom
           Maximum rank =  0   Radius =  0.325 angstrom
                   Q00  =   0.079783

H          x = -2.010787  y =  1.595051  z =  4.429985 angstrom
           Maximum rank =  0   Radius =  0.325 angstrom
                   Q00  =   0.079879

H          x = -2.486337  y = -0.120849  z =  4.716435 angstrom
           Maximum rank =  0   Radius =  0.325 angstrom
                   Q00  =   0.077798

H          x = -2.773757  y =  0.663151  z =  3.142565 angstrom
           Maximum rank =  0   Radius =  0.325 angstrom
                   Q00  =   0.073805

Total multipoles referred to origin at
           x =   0.000000,  y =    0.000000,  z =    0.000000 angstrom
                   Q00  =  -0.000000

Finished at 0:19:51 on 28 Apr 2020

  DMA results are available in the Python driver through the
	  variable('DMA DISTRIBUTED MULTIPOLES')
  and
	  variable('DMA TOTAL MULTIPOLES')
  commands.

    Psi4 stopped on: Tuesday, 28 April 2020 12:19AM
    Psi4 wall time for execution: 0:02:22.28

*** Psi4 exiting successfully. Buy a developer a beer!
