                               Psi4 1.3.2 release

  ==> Input File <==

--------------------------------------------------------------------------
import numpy as np
set {scf_type pk
basis cc-pvdz
d_convergence 10
gdma_switch   0
gdma_limit    0
gdma_origin   [ 0.0,  0.0,  0.0 ]
}
molecule test {
    units Angstrom
    0 1
    --
    0 1
    C                1.475485323357050     1.855322376340662    -2.427393205048596
    C               -0.250514676642950     0.801322376340662    -0.849393205048596
    C                0.842485323357050     1.575322376340662    -1.095393205048596
    C                0.363485323357050     1.587322376340662     1.158606794951404
    C                1.257485323357050     2.096322376340662     0.177606794951404
    C                0.485485323357050     1.892322376340662     2.509606794951404
    C                2.297485323357050     2.941322376340663     0.590606794951404
    C                1.524485323357050     2.727322376340663     2.892606794951404
    C                2.421485323357050     3.249322376340662     1.945606794951404
    N               -0.541514676642950     0.800322376340662     0.495606794951404
    H               -0.804514676642950     0.260322376340662    -1.606393205048596
    H               -1.272514676642950     0.237322376340662     0.940606794951404
    H                1.393485323357050     0.960322376340662    -3.044393205048595
    H                2.534485323357050     2.054322376340662    -2.273393205048596
    H               -0.214514676642950     1.486322376340662     3.225606794951405
    H                2.993485323357050     3.337322376340662    -0.134393205048596
    H                1.654485323357050     2.984322376340663     3.932606794951405
    H                3.220485323357050     3.901322376340662     2.269606794951404
    H                1.008205323357050     2.697142376340662    -2.959373205048596
    C               -1.752514676642950    -2.619677623659338    -1.049393205048596
    C               -3.288514676642950    -4.947677623659338    -0.796393205048596
    S               -1.600514676642950    -4.410677623659339    -1.215393205048596
    H               -2.142514676642950    -2.369677623659338    -0.062393205048596
    H               -0.773514676642950    -2.157677623659338    -1.173393205048596
    H               -2.425514676642950    -2.223677623659338    -1.804393205048596
    H               -3.740514676642950    -4.201677623659338    -0.148393205048596
    H               -3.206514676642950    -5.873677623659339    -0.228393205048596
    H               -3.941204676642950    -5.151597623659338    -1.658023205048596

}
e, wfn = energy('scf', return_wfn=True)
gdma(wfn)
dmavals = variable('DMA DISTRIBUTED MULTIPOLES')
charges = np.array(dmavals)
print(charges)
np.save('SSI-025TRP-038MET-1-dimer.npy', np.array(charges))--------------------------------------------------------------------------

*** tstart() called on ds3
*** at Mon Apr 27 13:23:22 2020

   => Loading Basis Set <=

    Name: CC-PVDZ
    Role: ORBITAL
    Keyword: BASIS
    atoms 1-9, 20-21   entry C          line   138 file /theoryfs2/ds/metcalf/miniconda2/envs/tf2gpu/share/psi4/basis/cc-pvdz.gbs
    atoms 10           entry N          line   168 file /theoryfs2/ds/metcalf/miniconda2/envs/tf2gpu/share/psi4/basis/cc-pvdz.gbs
    atoms 11-19, 23-28 entry H          line    22 file /theoryfs2/ds/metcalf/miniconda2/envs/tf2gpu/share/psi4/basis/cc-pvdz.gbs
    atoms 22           entry S          line   598 file /theoryfs2/ds/metcalf/miniconda2/envs/tf2gpu/share/psi4/basis/cc-pvdz.gbs

         ---------------------------------------------------------
                                   SCF
               by Justin Turney, Rob Parrish, Andy Simmonett
                          and Daniel G. A. Smith
                              RHF Reference
                        1 Threads,    500 MiB Core
         ---------------------------------------------------------

  ==> Geometry <==

    Molecular point group: c1
    Full point group: C1

    Geometry (in Angstrom), charge = 0, multiplicity = 1:

       Center              X                  Y                   Z               Mass
    ------------   -----------------  -----------------  -----------------  -----------------
         C            1.475485323357     1.855322376341    -2.427393205049    12.000000000000
         C           -0.250514676643     0.801322376341    -0.849393205049    12.000000000000
         C            0.842485323357     1.575322376341    -1.095393205049    12.000000000000
         C            0.363485323357     1.587322376341     1.158606794951    12.000000000000
         C            1.257485323357     2.096322376341     0.177606794951    12.000000000000
         C            0.485485323357     1.892322376341     2.509606794951    12.000000000000
         C            2.297485323357     2.941322376341     0.590606794951    12.000000000000
         C            1.524485323357     2.727322376341     2.892606794951    12.000000000000
         C            2.421485323357     3.249322376341     1.945606794951    12.000000000000
         N           -0.541514676643     0.800322376341     0.495606794951    14.003074004430
         H           -0.804514676643     0.260322376341    -1.606393205049     1.007825032230
         H           -1.272514676643     0.237322376341     0.940606794951     1.007825032230
         H            1.393485323357     0.960322376341    -3.044393205049     1.007825032230
         H            2.534485323357     2.054322376341    -2.273393205049     1.007825032230
         H           -0.214514676643     1.486322376341     3.225606794951     1.007825032230
         H            2.993485323357     3.337322376341    -0.134393205049     1.007825032230
         H            1.654485323357     2.984322376341     3.932606794951     1.007825032230
         H            3.220485323357     3.901322376341     2.269606794951     1.007825032230
         H            1.008205323357     2.697142376341    -2.959373205049     1.007825032230
         C           -1.752514676643    -2.619677623659    -1.049393205049    12.000000000000
         C           -3.288514676643    -4.947677623659    -0.796393205049    12.000000000000
         S           -1.600514676643    -4.410677623659    -1.215393205049    31.972071174400
         H           -2.142514676643    -2.369677623659    -0.062393205049     1.007825032230
         H           -0.773514676643    -2.157677623659    -1.173393205049     1.007825032230
         H           -2.425514676643    -2.223677623659    -1.804393205049     1.007825032230
         H           -3.740514676643    -4.201677623659    -0.148393205049     1.007825032230
         H           -3.206514676643    -5.873677623659    -0.228393205049     1.007825032230
         H           -3.941204676643    -5.151597623659    -1.658023205049     1.007825032230

  Running in c1 symmetry.

  Rotational constants: A =      0.04359  B =      0.00709  C =      0.00636 [cm^-1]
  Rotational constants: A =   1306.76546  B =    212.47026  C =    190.66913 [MHz]
  Nuclear repulsion =  781.996815339484328

  Charge       = 0
  Multiplicity = 1
  Electrons    = 104
  Nalpha       = 52
  Nbeta        = 52

  ==> Algorithm <==

  SCF Algorithm Type is PK.
  DIIS enabled.
  MOM disabled.
  Fractional occupation disabled.
  Guess Type is SAD.
  Energy threshold   = 1.00e-06
  Density threshold  = 1.00e-10
  Integral threshold = 0.00e+00

  ==> Primary Basis <==

  Basis Set: CC-PVDZ
    Blend: CC-PVDZ
    Number of shells: 125
    Number of basis function: 261
    Number of Cartesian functions: 274
    Spherical Harmonics?: true
    Max angular momentum: 2

  ==> Pre-Iterations <==

   -------------------------------------------------------
    Irrep   Nso     Nmo     Nalpha   Nbeta   Ndocc  Nsocc
   -------------------------------------------------------
     A        261     261       0       0       0       0
   -------------------------------------------------------
    Total     261     261      52      52      52       0
   -------------------------------------------------------

  ==> Integral Setup <==

  Using integral reordering PK algorithm.
  Sizing the integral batches needed.
  Building batch lookup table.
   Calculation information:
      Number of atoms:                  28
      Number of AO shells:             125
      Number of primitives:            389
      Number of atomic orbitals:       274
      Number of basis functions:       261

      Integral cutoff                 1.00e-12
      Number of threads:                 1

	Batch   1 pq = [       0,    9405] index = [             0,44231715] size =     44231715
	Batch   2 pq = [    9405,   13301] index = [      44231715,88464951] size =     44233236
	Batch   3 pq = [   13301,   16290] index = [      88464951,132690195] size =     44225244
	Batch   4 pq = [   16290,   18810] index = [     132690195,176917455] size =     44227260
	Batch   5 pq = [   18810,   21030] index = [     176917455,221140965] size =     44223510
	Batch   6 pq = [   21030,   23037] index = [     221140965,265363203] size =     44222238
	Batch   7 pq = [   23037,   24883] index = [     265363203,309594286] size =     44231083
	Batch   8 pq = [   24883,   26601] index = [     309594286,353819901] size =     44225615
	Batch   9 pq = [   26601,   28214] index = [     353819901,398029005] size =     44209104
	Batch  10 pq = [   28214,   29740] index = [     398029005,442248670] size =     44219665
	Batch  11 pq = [   29740,   31191] index = [     442248670,486454836] size =     44206166
	Batch  12 pq = [   31191,   32578] index = [     486454836,530679331] size =     44224495
	Batch  13 pq = [   32578,   33908] index = [     530679331,574893186] size =     44213855
	Batch  14 pq = [   33908,   34191] index = [     574893186,584529336] size =      9636150
  Task number: 53
  Buffer size: 11059200
  Buffer per thread: 2
  We computed 21831439 shell quartets total.
  Whereas there are 31011750 unique shell quartets.

  ==> DiskJK: Disk-Based J/K Matrices <==

    J tasked:                  Yes
    K tasked:                  Yes
    wK tasked:                  No
    Memory [MiB]:              375
    Schwarz Cutoff:          1E-12

    OpenMP threads:              1

  Minimum eigenvalue in the overlap matrix is 2.4228103227E-04.
  Using Symmetric Orthogonalization.

  SCF Guess: Superposition of Atomic Densities via on-the-fly atomic UHF.

  ==> Iterations <==

                        Total Energy        Delta E     RMS |[F,P]|

   @RHF iter SAD:  -876.50779258137879   -8.76508e+02   0.00000e+00
   @RHF iter   1:  -877.02632535304758   -5.18533e-01   2.31540e-03 DIIS
   @RHF iter   2:  -877.24803078007324   -2.21705e-01   1.00288e-03 DIIS
   @RHF iter   3:  -877.28450940005303   -3.64786e-02   3.00017e-04 DIIS
   @RHF iter   4:  -877.28870528752498   -4.19589e-03   1.25686e-04 DIIS
   @RHF iter   5:  -877.28932474063231   -6.19453e-04   1.94661e-05 DIIS
   @RHF iter   6:  -877.28935506457299   -3.03239e-05   8.72281e-06 DIIS
   @RHF iter   7:  -877.28936142058728   -6.35601e-06   3.67625e-06 DIIS
   @RHF iter   8:  -877.28936316874308   -1.74816e-06   1.48994e-06 DIIS
   @RHF iter   9:  -877.28936355501423   -3.86271e-07   6.44843e-07 DIIS
   @RHF iter  10:  -877.28936362502770   -7.00135e-08   3.05325e-07 DIIS
   @RHF iter  11:  -877.28936364370611   -1.86784e-08   1.11024e-07 DIIS
   @RHF iter  12:  -877.28936364634546   -2.63935e-09   3.56544e-08 DIIS
   @RHF iter  13:  -877.28936364648860   -1.43132e-10   1.10919e-08 DIIS
   @RHF iter  14:  -877.28936364650099   -1.23919e-11   3.99509e-09 DIIS
   @RHF iter  15:  -877.28936364651020   -9.20863e-12   2.12470e-09 DIIS
   @RHF iter  16:  -877.28936364650735    2.84217e-12   9.87729e-10 DIIS
   @RHF iter  17:  -877.28936364650906   -1.70530e-12   4.20359e-10 DIIS
   @RHF iter  18:  -877.28936364650929   -2.27374e-13   1.66536e-10 DIIS
   @RHF iter  19:  -877.28936364650349    5.79803e-12   6.02099e-11 DIIS
  Energy and wave function converged.

  ==> Post-Iterations <==

    Orbital Energies [Eh]
    ---------------------

    Doubly Occupied:

       1A    -91.942284     2A    -15.604376     3A    -11.265258
       4A    -11.264849     5A    -11.263709     6A    -11.261979
       7A    -11.231806     8A    -11.231781     9A    -11.230340
      10A    -11.228181    11A    -11.222402    12A    -11.221800
      13A    -11.219558    14A     -8.945565    15A     -6.627608
      16A     -6.626024    17A     -6.623787    18A     -1.295609
      19A     -1.127518    20A     -1.074136    21A     -1.064526
      22A     -0.997035    23A     -0.987668    24A     -0.958146
      25A     -0.932795    26A     -0.840359    27A     -0.813758
      28A     -0.803957    29A     -0.753762    30A     -0.719321
      31A     -0.664121    32A     -0.643380    33A     -0.612727
      34A     -0.603439    35A     -0.601611    36A     -0.593320
      37A     -0.589972    38A     -0.578046    39A     -0.570486
      40A     -0.567927    41A     -0.553942    42A     -0.538673
      43A     -0.527891    44A     -0.504529    45A     -0.495191
      46A     -0.472038    47A     -0.461511    48A     -0.431393
      49A     -0.374228    50A     -0.337295    51A     -0.295661
      52A     -0.275963

    Virtual:

      53A      0.122381    54A      0.149630    55A      0.169205
      56A      0.177614    57A      0.185182    58A      0.195725
      59A      0.209978    60A      0.214981    61A      0.216832
      62A      0.227552    63A      0.239977    64A      0.245943
      65A      0.251560    66A      0.258694    67A      0.271847
      68A      0.276427    69A      0.278697    70A      0.300772
      71A      0.309228    72A      0.319042    73A      0.375026
      74A      0.382870    75A      0.404809    76A      0.420842
      77A      0.441362    78A      0.464686    79A      0.474395
      80A      0.501323    81A      0.510312    82A      0.519737
      83A      0.569754    84A      0.596469    85A      0.599005
      86A      0.605432    87A      0.618193    88A      0.632885
      89A      0.643133    90A      0.664574    91A      0.670969
      92A      0.688870    93A      0.690259    94A      0.695958
      95A      0.716290    96A      0.722150    97A      0.725001
      98A      0.731232    99A      0.737309   100A      0.739890
     101A      0.747640   102A      0.756038   103A      0.760495
     104A      0.764029   105A      0.783545   106A      0.789171
     107A      0.794713   108A      0.810359   109A      0.830267
     110A      0.835488   111A      0.846151   112A      0.850879
     113A      0.865428   114A      0.868432   115A      0.873465
     116A      0.877310   117A      0.881835   118A      0.887754
     119A      0.891498   120A      0.894576   121A      0.898297
     122A      0.906173   123A      0.920723   124A      0.927726
     125A      0.942015   126A      0.950128   127A      0.952714
     128A      0.970004   129A      0.979475   130A      0.984160
     131A      0.990475   132A      1.020380   133A      1.051337
     134A      1.077072   135A      1.094643   136A      1.130148
     137A      1.135251   138A      1.142473   139A      1.149494
     140A      1.161430   141A      1.166882   142A      1.212055
     143A      1.225350   144A      1.234274   145A      1.244631
     146A      1.252514   147A      1.262764   148A      1.274308
     149A      1.284567   150A      1.284864   151A      1.303311
     152A      1.310635   153A      1.327074   154A      1.330553
     155A      1.335932   156A      1.357781   157A      1.361316
     158A      1.385623   159A      1.422755   160A      1.446783
     161A      1.450045   162A      1.498129   163A      1.522226
     164A      1.553655   165A      1.572830   166A      1.605286
     167A      1.624873   168A      1.635356   169A      1.645440
     170A      1.664333   171A      1.669929   172A      1.689491
     173A      1.700827   174A      1.735939   175A      1.758659
     176A      1.763234   177A      1.780918   178A      1.810261
     179A      1.823528   180A      1.835555   181A      1.864366
     182A      1.875253   183A      1.877661   184A      1.890240
     185A      1.891190   186A      1.901390   187A      1.903166
     188A      1.907937   189A      1.912053   190A      1.917922
     191A      1.925816   192A      1.942451   193A      1.949016
     194A      1.970853   195A      1.976674   196A      1.993606
     197A      1.994042   198A      1.999432   199A      2.002447
     200A      2.016311   201A      2.029549   202A      2.038606
     203A      2.065800   204A      2.071774   205A      2.082320
     206A      2.090071   207A      2.094631   208A      2.109964
     209A      2.122221   210A      2.145734   211A      2.160294
     212A      2.172511   213A      2.174695   214A      2.217203
     215A      2.226114   216A      2.236769   217A      2.272970
     218A      2.287049   219A      2.303870   220A      2.308071
     221A      2.337172   222A      2.345201   223A      2.398312
     224A      2.400293   225A      2.402585   226A      2.416293
     227A      2.420066   228A      2.445130   229A      2.452774
     230A      2.463326   231A      2.536844   232A      2.586780
     233A      2.598663   234A      2.627417   235A      2.664356
     236A      2.683626   237A      2.717711   238A      2.728319
     239A      2.754630   240A      2.767697   241A      2.769017
     242A      2.770150   243A      2.777767   244A      2.781369
     245A      2.792119   246A      2.801982   247A      2.820026
     248A      2.841492   249A      2.852377   250A      2.875287
     251A      2.934247   252A      2.969054   253A      3.017740
     254A      3.046437   255A      3.071039   256A      3.111744
     257A      3.203781   258A      3.298174   259A      3.369969
     260A      3.729867   261A      3.944921

    Final Occupation by Irrep:
              A
    DOCC [    52 ]

  @RHF Final Energy:  -877.28936364650349

   => Energetics <=

    Nuclear Repulsion Energy =            781.9968153394843284
    One-Electron Energy =               -2751.2258771790247920
    Two-Electron Energy =                1091.9396981930369748
    Total Energy =                       -877.2893636465034888

Computation Completed

Properties will be evaluated at   0.000000,   0.000000,   0.000000 [a0]

Properties computed using the SCF density matrix

  Nuclear Dipole Moment: [e a0]
     X:    -5.3999      Y:    -3.9242      Z:    -4.4626

  Electronic Dipole Moment: [e a0]
     X:     4.3098      Y:     3.7565      Z:     4.5317

  Dipole Moment: [e a0]
     X:    -1.0901      Y:    -0.1676      Z:     0.0691     Total:     1.1051

  Dipole Moment: [D]
     X:    -2.7708      Y:    -0.4260      Z:     0.1757     Total:     2.8088

*** tstop() called on ds3 at Mon Apr 27 13:28:48 2020
Module time:
	user time   =     225.47 seconds =       3.76 minutes
	system time =     113.78 seconds =       1.90 minutes
	total time  =        326 seconds =       5.43 minutes
Total time:
	user time   =     225.47 seconds =       3.76 minutes
	system time =     113.78 seconds =       1.90 minutes
	total time  =        326 seconds =       5.43 minutes
                                     G D M A

                                 by Anthony Stone

                           version 2.2.06, 22 June 2011

               Distributed Multipoles from Gaussian wavefunctions

Starting at 13:28:48 on 27 Apr 2020

Using SCF density matrix from file ./SSI/SSI-025TRP-038MET-1-dimer.test.6420.fchk

                         Distributed Multipole Analysis

Standard DMA

Positions and radii in angstrom
Multipole moments in atomic units, ea_0^k for rank k

C          x =  1.475485  y =  1.855322  z = -2.427393 angstrom
           Maximum rank =  0   Radius =  0.650 angstrom
                   Q00  =  -0.213934

C          x = -0.250515  y =  0.801322  z = -0.849393 angstrom
           Maximum rank =  0   Radius =  0.650 angstrom
                   Q00  =   0.070057

C          x =  0.842485  y =  1.575322  z = -1.095393 angstrom
           Maximum rank =  0   Radius =  0.650 angstrom
                   Q00  =  -0.123526

C          x =  0.363485  y =  1.587322  z =  1.158607 angstrom
           Maximum rank =  0   Radius =  0.650 angstrom
                   Q00  =   0.292751

C          x =  1.257485  y =  2.096322  z =  0.177607 angstrom
           Maximum rank =  0   Radius =  0.650 angstrom
                   Q00  =  -0.049513

C          x =  0.485485  y =  1.892322  z =  2.509607 angstrom
           Maximum rank =  0   Radius =  0.650 angstrom
                   Q00  =  -0.120469

C          x =  2.297485  y =  2.941322  z =  0.590607 angstrom
           Maximum rank =  0   Radius =  0.650 angstrom
                   Q00  =  -0.098027

C          x =  1.524485  y =  2.727322  z =  2.892607 angstrom
           Maximum rank =  0   Radius =  0.650 angstrom
                   Q00  =  -0.075581

C          x =  2.421485  y =  3.249322  z =  1.945607 angstrom
           Maximum rank =  0   Radius =  0.650 angstrom
                   Q00  =  -0.079555

N          x = -0.541515  y =  0.800322  z =  0.495607 angstrom
           Maximum rank =  0   Radius =  0.650 angstrom
                   Q00  =  -0.500223

H          x = -0.804515  y =  0.260322  z = -1.606393 angstrom
           Maximum rank =  0   Radius =  0.325 angstrom
                   Q00  =   0.097638

H          x = -1.272515  y =  0.237322  z =  0.940607 angstrom
           Maximum rank =  0   Radius =  0.325 angstrom
                   Q00  =   0.218026

H          x =  1.393485  y =  0.960322  z = -3.044393 angstrom
           Maximum rank =  0   Radius =  0.325 angstrom
                   Q00  =   0.103277

H          x =  2.534485  y =  2.054322  z = -2.273393 angstrom
           Maximum rank =  0   Radius =  0.325 angstrom
                   Q00  =   0.106555

H          x = -0.214515  y =  1.486322  z =  3.225607 angstrom
           Maximum rank =  0   Radius =  0.325 angstrom
                   Q00  =   0.073381

H          x =  2.993485  y =  3.337322  z = -0.134393 angstrom
           Maximum rank =  0   Radius =  0.325 angstrom
                   Q00  =   0.070841

H          x =  1.654485  y =  2.984322  z =  3.932607 angstrom
           Maximum rank =  0   Radius =  0.325 angstrom
                   Q00  =   0.065595

H          x =  3.220485  y =  3.901322  z =  2.269607 angstrom
           Maximum rank =  0   Radius =  0.325 angstrom
                   Q00  =   0.061321

H          x =  1.008205  y =  2.697142  z = -2.959373 angstrom
           Maximum rank =  0   Radius =  0.325 angstrom
                   Q00  =   0.101640

C          x = -1.752515  y = -2.619678  z = -1.049393 angstrom
           Maximum rank =  0   Radius =  0.650 angstrom
                   Q00  =  -0.369134

C          x = -3.288515  y = -4.947678  z = -0.796393 angstrom
           Maximum rank =  0   Radius =  0.650 angstrom
                   Q00  =  -0.362628

S          x = -1.600515  y = -4.410678  z = -1.215393 angstrom
           Maximum rank =  0   Radius =  0.650 angstrom
                   Q00  =   0.132341

H          x = -2.142515  y = -2.369678  z = -0.062393 angstrom
           Maximum rank =  0   Radius =  0.325 angstrom
                   Q00  =   0.079335

H          x = -0.773515  y = -2.157678  z = -1.173393 angstrom
           Maximum rank =  0   Radius =  0.325 angstrom
                   Q00  =   0.124957

H          x = -2.425515  y = -2.223678  z = -1.804393 angstrom
           Maximum rank =  0   Radius =  0.325 angstrom
                   Q00  =   0.087587

H          x = -3.740515  y = -4.201678  z = -0.148393 angstrom
           Maximum rank =  0   Radius =  0.325 angstrom
                   Q00  =   0.094569

H          x = -3.206515  y = -5.873678  z = -0.228393 angstrom
           Maximum rank =  0   Radius =  0.325 angstrom
                   Q00  =   0.113555

H          x = -3.941205  y = -5.151598  z = -1.658023 angstrom
           Maximum rank =  0   Radius =  0.325 angstrom
                   Q00  =   0.099164

Total multipoles referred to origin at
           x =   0.000000,  y =    0.000000,  z =    0.000000 angstrom
                   Q00  =  -0.000000

Finished at 13:28:48 on 27 Apr 2020

  DMA results are available in the Python driver through the
	  variable('DMA DISTRIBUTED MULTIPOLES')
  and
	  variable('DMA TOTAL MULTIPOLES')
  commands.

    Psi4 stopped on: Monday, 27 April 2020 01:28PM
    Psi4 wall time for execution: 0:05:26.38

*** Psi4 exiting successfully. Buy a developer a beer!
