                               Psi4 1.3.2 release

  ==> Input File <==

--------------------------------------------------------------------------
import numpy as np
set {scf_type pk
basis cc-pvdz
d_convergence 10
gdma_switch   0
gdma_limit    0
gdma_origin   [ 0.0,  0.0,  0.0 ]
}
molecule test {
    units Angstrom
    0 1
    --
    0 1
    C               -1.834889578401457     0.286070992644764     0.653724181061790
    C               -1.113889578401456    -0.450929007355236     1.766724181061790
    H               -2.879889578401456     0.430070992644764     0.930724181061790
    H               -1.409889578401456     1.278070992644764     0.502724181061790
    H               -1.803889578401456    -0.291929007355236    -0.269275818938210
    H               -0.092889578401456    -0.680929007355236     1.489724181061790
    H               -1.630719578401456    -1.400475007355236     1.969824181061790
    H               -1.065819578401456     0.216222192644764     2.639994181061790
    C                0.973110421598544    -0.065929007355236    -0.666275818938210
    C                1.971110421598544     0.224070992644764    -1.757275818938210
    H                0.364110421598544    -0.938929007355236    -0.891275818938210
    H                1.530110421598544    -0.250929007355236     0.249724181061790
    H                0.370110421598544     0.828070992644764    -0.553275818938210
    H                2.685110421598544    -0.598929007355236    -1.829275818938210
    H                2.518110421598543     1.119070992644764    -1.477275818938210
    H                1.469820421598544     0.370580492644764    -2.725385818938210

}
e, wfn = energy('scf', return_wfn=True)
gdma(wfn)
dmavals = variable('DMA DISTRIBUTED MULTIPOLES')
charges = np.array(dmavals)
print(charges)
np.save('SSI-123ALA-158ILE-1-dimer.npy', np.array(charges))--------------------------------------------------------------------------

*** tstart() called on ds3
*** at Mon Apr 27 07:39:03 2020

   => Loading Basis Set <=

    Name: CC-PVDZ
    Role: ORBITAL
    Keyword: BASIS
    atoms 1-2, 9-10  entry C          line   138 file /theoryfs2/ds/metcalf/miniconda2/envs/tf2gpu/share/psi4/basis/cc-pvdz.gbs
    atoms 3-8, 11-16 entry H          line    22 file /theoryfs2/ds/metcalf/miniconda2/envs/tf2gpu/share/psi4/basis/cc-pvdz.gbs

         ---------------------------------------------------------
                                   SCF
               by Justin Turney, Rob Parrish, Andy Simmonett
                          and Daniel G. A. Smith
                              RHF Reference
                        1 Threads,    500 MiB Core
         ---------------------------------------------------------

  ==> Geometry <==

    Molecular point group: c1
    Full point group: C1

    Geometry (in Angstrom), charge = 0, multiplicity = 1:

       Center              X                  Y                   Z               Mass
    ------------   -----------------  -----------------  -----------------  -----------------
         C           -1.834889578401     0.286070992645     0.653724181062    12.000000000000
         C           -1.113889578401    -0.450929007355     1.766724181062    12.000000000000
         H           -2.879889578401     0.430070992645     0.930724181062     1.007825032230
         H           -1.409889578401     1.278070992645     0.502724181062     1.007825032230
         H           -1.803889578401    -0.291929007355    -0.269275818938     1.007825032230
         H           -0.092889578401    -0.680929007355     1.489724181062     1.007825032230
         H           -1.630719578401    -1.400475007355     1.969824181062     1.007825032230
         H           -1.065819578401     0.216222192645     2.639994181062     1.007825032230
         C            0.973110421599    -0.065929007355    -0.666275818938    12.000000000000
         C            1.971110421599     0.224070992645    -1.757275818938    12.000000000000
         H            0.364110421599    -0.938929007355    -0.891275818938     1.007825032230
         H            1.530110421599    -0.250929007355     0.249724181062     1.007825032230
         H            0.370110421599     0.828070992645    -0.553275818938     1.007825032230
         H            2.685110421599    -0.598929007355    -1.829275818938     1.007825032230
         H            2.518110421599     1.119070992645    -1.477275818938     1.007825032230
         H            1.469820421599     0.370580492645    -2.725385818938     1.007825032230

  Running in c1 symmetry.

  Rotational constants: A =      0.53242  B =      0.06754  C =      0.06288 [cm^-1]
  Rotational constants: A =  15961.48512  B =   2024.79677  C =   1885.04348 [MHz]
  Nuclear repulsion =  130.393357840666113

  Charge       = 0
  Multiplicity = 1
  Electrons    = 36
  Nalpha       = 18
  Nbeta        = 18

  ==> Algorithm <==

  SCF Algorithm Type is PK.
  DIIS enabled.
  MOM disabled.
  Fractional occupation disabled.
  Guess Type is SAD.
  Energy threshold   = 1.00e-06
  Density threshold  = 1.00e-10
  Integral threshold = 0.00e+00

  ==> Primary Basis <==

  Basis Set: CC-PVDZ
    Blend: CC-PVDZ
    Number of shells: 60
    Number of basis function: 116
    Number of Cartesian functions: 120
    Spherical Harmonics?: true
    Max angular momentum: 2

  ==> Pre-Iterations <==

   -------------------------------------------------------
    Irrep   Nso     Nmo     Nalpha   Nbeta   Ndocc  Nsocc
   -------------------------------------------------------
     A        116     116       0       0       0       0
   -------------------------------------------------------
    Total     116     116      18      18      18       0
   -------------------------------------------------------

  ==> Integral Setup <==

  Using integral reordering PK algorithm.
  Sizing the integral batches needed.
  Building batch lookup table.
   Calculation information:
      Number of atoms:                  16
      Number of AO shells:              60
      Number of primitives:            148
      Number of atomic orbitals:       120
      Number of basis functions:       116

      Integral cutoff                 1.00e-12
      Number of threads:                 1

	Batch   1 pq = [       0,    6786] index = [             0,23028291] size =     23028291
  Task number: 3
  Buffer size: 11059200
  Buffer per thread: 2
  We computed 1602930 shell quartets total.
  Whereas there are 1675365 unique shell quartets.

  ==> DiskJK: Disk-Based J/K Matrices <==

    J tasked:                  Yes
    K tasked:                  Yes
    wK tasked:                  No
    Memory [MiB]:              375
    Schwarz Cutoff:          1E-12

    OpenMP threads:              1

  Minimum eigenvalue in the overlap matrix is 5.0741904196E-03.
  Using Symmetric Orthogonalization.

  SCF Guess: Superposition of Atomic Densities via on-the-fly atomic UHF.

  ==> Iterations <==

                        Total Energy        Delta E     RMS |[F,P]|

   @RHF iter SAD:  -157.54129724761606   -1.57541e+02   0.00000e+00
   @RHF iter   1:  -158.29096215854784   -7.49665e-01   4.28462e-03 DIIS
   @RHF iter   2:  -158.42979813620684   -1.38836e-01   1.80532e-03 DIIS
   @RHF iter   3:  -158.45349523265781   -2.36971e-02   3.57352e-04 DIIS
   @RHF iter   4:  -158.45538877624639   -1.89354e-03   3.94620e-05 DIIS
   @RHF iter   5:  -158.45541283084233   -2.40546e-05   7.48663e-06 DIIS
   @RHF iter   6:  -158.45541354978667   -7.18944e-07   1.84373e-06 DIIS
   @RHF iter   7:  -158.45541358238245   -3.25958e-08   3.53921e-07 DIIS
   @RHF iter   8:  -158.45541358394016   -1.55771e-09   6.77241e-08 DIIS
   @RHF iter   9:  -158.45541358401721   -7.70513e-11   1.97321e-08 DIIS
   @RHF iter  10:  -158.45541358402349   -6.28120e-12   5.07802e-09 DIIS
   @RHF iter  11:  -158.45541358402409   -5.96856e-13   1.28378e-09 DIIS
   @RHF iter  12:  -158.45541358402397    1.13687e-13   2.75102e-10 DIIS
   @RHF iter  13:  -158.45541358402426   -2.84217e-13   4.73775e-11 DIIS
  Energy and wave function converged.

  ==> Post-Iterations <==

    Orbital Energies [Eh]
    ---------------------

    Doubly Occupied:

       1A    -11.214231     2A    -11.213805     3A    -11.212919
       4A    -11.212008     5A     -1.029406     6A     -1.016409
       7A     -0.835383     8A     -0.834377     9A     -0.610815
      10A     -0.604834    11A     -0.597317    12A     -0.594140
      13A     -0.503906    14A     -0.498003    15A     -0.491768
      16A     -0.490395    17A     -0.479799    18A     -0.464875

    Virtual:

      19A      0.178476    20A      0.200306    21A      0.231697
      22A      0.234308    23A      0.247400    24A      0.261387
      25A      0.267808    26A      0.279856    27A      0.282361
      28A      0.304961    29A      0.347967    30A      0.352723
      31A      0.393734    32A      0.419097    33A      0.575264
      34A      0.595773    35A      0.605856    36A      0.609980
      37A      0.611665    38A      0.646438    39A      0.656607
      40A      0.730686    41A      0.746390    42A      0.824755
      43A      0.851021    44A      0.869939    45A      0.883864
      46A      0.894743    47A      0.897200    48A      0.900379
      49A      0.912500    50A      0.916046    51A      0.924092
      52A      0.940927    53A      0.957081    54A      0.975745
      55A      0.995191    56A      1.053106    57A      1.127210
      58A      1.134264    59A      1.148897    60A      1.172843
      61A      1.224952    62A      1.339494    63A      1.465076
      64A      1.473211    65A      1.486015    66A      1.527110
      67A      1.597289    68A      1.620151    69A      1.671591
      70A      1.683503    71A      1.692317    72A      1.710687
      73A      1.847885    74A      1.873597    75A      1.884331
      76A      1.892227    77A      1.914259    78A      1.927361
      79A      1.936055    80A      1.939990    81A      1.953356
      82A      1.961548    83A      1.972697    84A      1.976138
      85A      1.996787    86A      2.013747    87A      2.047188
      88A      2.085653    89A      2.110449    90A      2.117940
      91A      2.129018    92A      2.194768    93A      2.282846
      94A      2.318101    95A      2.334864    96A      2.409928
      97A      2.465326    98A      2.476187    99A      2.487424
     100A      2.508437   101A      2.575031   102A      2.585197
     103A      2.590409   104A      2.604658   105A      2.773466
     106A      2.778325   107A      2.791477   108A      2.816314
     109A      2.850368   110A      2.860270   111A      2.868906
     112A      2.906492   113A      2.942133   114A      2.968786
     115A      2.981622   116A      3.027688

    Final Occupation by Irrep:
              A
    DOCC [    18 ]

  @RHF Final Energy:  -158.45541358402426

   => Energetics <=

    Nuclear Repulsion Energy =            130.3933578406661127
    One-Electron Energy =                -469.8887626498409986
    Two-Electron Energy =                 181.0399912251506294
    Total Energy =                       -158.4554135840242566

Computation Completed

Properties will be evaluated at   0.000000,   0.000000,   0.000000 [a0]

Properties computed using the SCF density matrix

  Nuclear Dipole Moment: [e a0]
     X:     0.0509      Y:     0.0750      Z:     0.0346

  Electronic Dipole Moment: [e a0]
     X:    -0.0282      Y:    -0.0624      Z:    -0.0384

  Dipole Moment: [e a0]
     X:     0.0226      Y:     0.0125      Z:    -0.0037     Total:     0.0262

  Dipole Moment: [D]
     X:     0.0576      Y:     0.0319      Z:    -0.0095     Total:     0.0665

*** tstop() called on ds3 at Mon Apr 27 07:39:25 2020
Module time:
	user time   =       8.49 seconds =       0.14 minutes
	system time =       2.67 seconds =       0.04 minutes
	total time  =         22 seconds =       0.37 minutes
Total time:
	user time   =       8.49 seconds =       0.14 minutes
	system time =       2.67 seconds =       0.04 minutes
	total time  =         22 seconds =       0.37 minutes
                                     G D M A

                                 by Anthony Stone

                           version 2.2.06, 22 June 2011

               Distributed Multipoles from Gaussian wavefunctions

Starting at 7:39:25 on 27 Apr 2020

Using SCF density matrix from file ./SSI/SSI-123ALA-158ILE-1-dimer.test.30185.fchk

                         Distributed Multipole Analysis

Standard DMA

Positions and radii in angstrom
Multipole moments in atomic units, ea_0^k for rank k

C          x = -1.834890  y =  0.286071  z =  0.653724 angstrom
           Maximum rank =  0   Radius =  0.650 angstrom
                   Q00  =  -0.236086

C          x = -1.113890  y = -0.450929  z =  1.766724 angstrom
           Maximum rank =  0   Radius =  0.650 angstrom
                   Q00  =  -0.226735

H          x = -2.879890  y =  0.430071  z =  0.930724 angstrom
           Maximum rank =  0   Radius =  0.325 angstrom
                   Q00  =   0.075747

H          x = -1.409890  y =  1.278071  z =  0.502724 angstrom
           Maximum rank =  0   Radius =  0.325 angstrom
                   Q00  =   0.073600

H          x = -1.803890  y = -0.291929  z = -0.269276 angstrom
           Maximum rank =  0   Radius =  0.325 angstrom
                   Q00  =   0.075707

H          x = -0.092890  y = -0.680929  z =  1.489724 angstrom
           Maximum rank =  0   Radius =  0.325 angstrom
                   Q00  =   0.087137

H          x = -1.630720  y = -1.400475  z =  1.969824 angstrom
           Maximum rank =  0   Radius =  0.325 angstrom
                   Q00  =   0.076232

H          x = -1.065820  y =  0.216222  z =  2.639994 angstrom
           Maximum rank =  0   Radius =  0.325 angstrom
                   Q00  =   0.073944

C          x =  0.973110  y = -0.065929  z = -0.666276 angstrom
           Maximum rank =  0   Radius =  0.650 angstrom
                   Q00  =  -0.235303

C          x =  1.971110  y =  0.224071  z = -1.757276 angstrom
           Maximum rank =  0   Radius =  0.650 angstrom
                   Q00  =  -0.216921

H          x =  0.364110  y = -0.938929  z = -0.891276 angstrom
           Maximum rank =  0   Radius =  0.325 angstrom
                   Q00  =   0.076225

H          x =  1.530110  y = -0.250929  z =  0.249724 angstrom
           Maximum rank =  0   Radius =  0.325 angstrom
                   Q00  =   0.070742

H          x =  0.370110  y =  0.828071  z = -0.553276 angstrom
           Maximum rank =  0   Radius =  0.325 angstrom
                   Q00  =   0.076977

H          x =  2.685110  y = -0.598929  z = -1.829276 angstrom
           Maximum rank =  0   Radius =  0.325 angstrom
                   Q00  =   0.074805

H          x =  2.518110  y =  1.119071  z = -1.477276 angstrom
           Maximum rank =  0   Radius =  0.325 angstrom
                   Q00  =   0.077256

H          x =  1.469820  y =  0.370580  z = -2.725386 angstrom
           Maximum rank =  0   Radius =  0.325 angstrom
                   Q00  =   0.076673

Total multipoles referred to origin at
           x =   0.000000,  y =    0.000000,  z =    0.000000 angstrom
                   Q00  =  -0.000000

Finished at 7:39:25 on 27 Apr 2020

  DMA results are available in the Python driver through the
	  variable('DMA DISTRIBUTED MULTIPOLES')
  and
	  variable('DMA TOTAL MULTIPOLES')
  commands.

    Psi4 stopped on: Monday, 27 April 2020 07:39AM
    Psi4 wall time for execution: 0:00:21.46

*** Psi4 exiting successfully. Buy a developer a beer!
