                               Psi4 1.3.2 release

  ==> Input File <==

--------------------------------------------------------------------------
import numpy as np
set {scf_type pk
basis cc-pvdz
d_convergence 10
gdma_switch   0
gdma_limit    0
gdma_origin   [ 0.0,  0.0,  0.0 ]
}
molecule test {
    units Angstrom
    0 1
    --
    0 1
    C                1.349730549376963    -1.267860213943309     0.691521076393301
    C                1.941730549376963    -2.522860213943309     1.173521076393301
    C                1.440730549376964    -1.292860213943309    -0.819478923606699
    H                1.856730549376963    -0.398860213943309     1.103521076393301
    H                0.299730549376963    -1.253860213943309     0.981521076393301
    H                2.954730549376963    -2.311860213943309     1.520521076393301
    H                1.371730549376963    -2.935860213943309     2.003521076393301
    H                0.459730549376963    -1.072860213943309    -1.244478923606699
    H                2.008342549376964    -3.238574213943309     0.340861076393301
    H                1.720512549376964    -2.328728213943309    -1.061758923606699
    H                2.152069549376963    -0.534627513943309    -1.178758923606699
    C               -1.130269450623036     1.328139786056691    -0.442478923606699
    C               -0.978269450623036     2.748139786056691     0.147521076393301
    C               -2.598269450623036     1.007139786056691    -0.727478923606699
    H               -0.564269450623036     1.253139786056691    -1.370478923606699
    H               -0.733269450623037     0.604139786056691     0.257521076393301
    H               -1.638269450623037     2.848139786056691     1.008521076393301
    H               -1.326269450623036     3.451139786056691    -0.612478923606699
    H               -3.219269450623037     1.722139786056691    -0.189478923606699
    H               -2.782269450623037     1.183139786056691    -1.789478923606699
    H                0.042169199376963     3.036415786056691     0.440101076393301
    H               -2.904364450623037    -0.021103113943309    -0.484538923606699

}
e, wfn = energy('scf', return_wfn=True)
gdma(wfn)
dmavals = variable('DMA DISTRIBUTED MULTIPOLES')
charges = np.array(dmavals)
print(charges)
np.save('SSI-046PRO-141ARG-1-dimer.npy', np.array(charges))--------------------------------------------------------------------------

*** tstart() called on ds3
*** at Mon Apr 27 13:00:46 2020

   => Loading Basis Set <=

    Name: CC-PVDZ
    Role: ORBITAL
    Keyword: BASIS
    atoms 1-3, 12-14  entry C          line   138 file /theoryfs2/ds/metcalf/miniconda2/envs/tf2gpu/share/psi4/basis/cc-pvdz.gbs
    atoms 4-11, 15-22 entry H          line    22 file /theoryfs2/ds/metcalf/miniconda2/envs/tf2gpu/share/psi4/basis/cc-pvdz.gbs

         ---------------------------------------------------------
                                   SCF
               by Justin Turney, Rob Parrish, Andy Simmonett
                          and Daniel G. A. Smith
                              RHF Reference
                        1 Threads,    500 MiB Core
         ---------------------------------------------------------

  ==> Geometry <==

    Molecular point group: c1
    Full point group: C1

    Geometry (in Angstrom), charge = 0, multiplicity = 1:

       Center              X                  Y                   Z               Mass
    ------------   -----------------  -----------------  -----------------  -----------------
         C            1.349730549377    -1.267860213943     0.691521076393    12.000000000000
         C            1.941730549377    -2.522860213943     1.173521076393    12.000000000000
         C            1.440730549377    -1.292860213943    -0.819478923607    12.000000000000
         H            1.856730549377    -0.398860213943     1.103521076393     1.007825032230
         H            0.299730549377    -1.253860213943     0.981521076393     1.007825032230
         H            2.954730549377    -2.311860213943     1.520521076393     1.007825032230
         H            1.371730549377    -2.935860213943     2.003521076393     1.007825032230
         H            0.459730549377    -1.072860213943    -1.244478923607     1.007825032230
         H            2.008342549377    -3.238574213943     0.340861076393     1.007825032230
         H            1.720512549377    -2.328728213943    -1.061758923607     1.007825032230
         H            2.152069549377    -0.534627513943    -1.178758923607     1.007825032230
         C           -1.130269450623     1.328139786057    -0.442478923607    12.000000000000
         C           -0.978269450623     2.748139786057     0.147521076393    12.000000000000
         C           -2.598269450623     1.007139786057    -0.727478923607    12.000000000000
         H           -0.564269450623     1.253139786057    -1.370478923607     1.007825032230
         H           -0.733269450623     0.604139786057     0.257521076393     1.007825032230
         H           -1.638269450623     2.848139786057     1.008521076393     1.007825032230
         H           -1.326269450623     3.451139786057    -0.612478923607     1.007825032230
         H           -3.219269450623     1.722139786057    -0.189478923607     1.007825032230
         H           -2.782269450623     1.183139786057    -1.789478923607     1.007825032230
         H            0.042169199377     3.036415786057     0.440101076393     1.007825032230
         H           -2.904364450623    -0.021103113943    -0.484538923607     1.007825032230

  Running in c1 symmetry.

  Rotational constants: A =      0.16906  B =      0.02990  C =      0.02864 [cm^-1]
  Rotational constants: A =   5068.21008  B =    896.30515  C =    858.65935 [MHz]
  Nuclear repulsion =  242.087833486539466

  Charge       = 0
  Multiplicity = 1
  Electrons    = 52
  Nalpha       = 26
  Nbeta        = 26

  ==> Algorithm <==

  SCF Algorithm Type is PK.
  DIIS enabled.
  MOM disabled.
  Fractional occupation disabled.
  Guess Type is SAD.
  Energy threshold   = 1.00e-06
  Density threshold  = 1.00e-10
  Integral threshold = 0.00e+00

  ==> Primary Basis <==

  Basis Set: CC-PVDZ
    Blend: CC-PVDZ
    Number of shells: 84
    Number of basis function: 164
    Number of Cartesian functions: 170
    Spherical Harmonics?: true
    Max angular momentum: 2

  ==> Pre-Iterations <==

   -------------------------------------------------------
    Irrep   Nso     Nmo     Nalpha   Nbeta   Ndocc  Nsocc
   -------------------------------------------------------
     A        164     164       0       0       0       0
   -------------------------------------------------------
    Total     164     164      26      26      26       0
   -------------------------------------------------------

  ==> Integral Setup <==

  Using integral reordering PK algorithm.
  Sizing the integral batches needed.
  Building batch lookup table.
   Calculation information:
      Number of atoms:                  22
      Number of AO shells:              84
      Number of primitives:            212
      Number of atomic orbitals:       170
      Number of basis functions:       164

      Integral cutoff                 1.00e-12
      Number of threads:                 1

	Batch   1 pq = [       0,    9405] index = [             0,44231715] size =     44231715
	Batch   2 pq = [    9405,   13530] index = [      44231715,91537215] size =     47305500
  Task number: 9
  Buffer size: 11059200
  Buffer per thread: 2
  We computed 5494987 shell quartets total.
  Whereas there are 6374235 unique shell quartets.

  ==> DiskJK: Disk-Based J/K Matrices <==

    J tasked:                  Yes
    K tasked:                  Yes
    wK tasked:                  No
    Memory [MiB]:              375
    Schwarz Cutoff:          1E-12

    OpenMP threads:              1

  Minimum eigenvalue in the overlap matrix is 3.9901164817E-03.
  Using Symmetric Orthogonalization.

  SCF Guess: Superposition of Atomic Densities via on-the-fly atomic UHF.

  ==> Iterations <==

                        Total Energy        Delta E     RMS |[F,P]|

   @RHF iter SAD:  -235.60031449974832   -2.35600e+02   0.00000e+00
   @RHF iter   1:  -236.27877960931073   -6.78465e-01   3.57483e-03 DIIS
   @RHF iter   2:  -236.46982145457693   -1.91042e-01   1.57985e-03 DIIS
   @RHF iter   3:  -236.50566164511201   -3.58402e-02   3.09918e-04 DIIS
   @RHF iter   4:  -236.50830668301330   -2.64504e-03   5.04132e-05 DIIS
   @RHF iter   5:  -236.50836124673447   -5.45637e-05   1.40234e-05 DIIS
   @RHF iter   6:  -236.50836571932157   -4.47259e-06   2.35823e-06 DIIS
   @RHF iter   7:  -236.50836585865164   -1.39330e-07   4.76681e-07 DIIS
   @RHF iter   8:  -236.50836586522661   -6.57496e-09   1.06193e-07 DIIS
   @RHF iter   9:  -236.50836586553601   -3.09399e-10   3.76292e-08 DIIS
   @RHF iter  10:  -236.50836586557250   -3.64935e-11   7.33889e-09 DIIS
   @RHF iter  11:  -236.50836586557435   -1.84741e-12   1.40654e-09 DIIS
   @RHF iter  12:  -236.50836586557384    5.11591e-13   3.66790e-10 DIIS
   @RHF iter  13:  -236.50836586557543   -1.59162e-12   8.51566e-11 DIIS
  Energy and wave function converged.

  ==> Post-Iterations <==

    Orbital Energies [Eh]
    ---------------------

    Doubly Occupied:

       1A    -11.218402     2A    -11.217619     3A    -11.215409
       4A    -11.210797     5A    -11.208956     6A    -11.207652
       7A     -1.073496     8A     -1.051763     9A     -0.921027
      10A     -0.918735    11A     -0.801855    12A     -0.795609
      13A     -0.635420    14A     -0.624588    15A     -0.619501
      16A     -0.599370    17A     -0.538511    18A     -0.536315
      19A     -0.531206    20A     -0.525913    21A     -0.487958
      22A     -0.476564    23A     -0.470007    24A     -0.464582
      25A     -0.458161    26A     -0.450226

    Virtual:

      27A      0.171894    28A      0.196601    29A      0.201974
      30A      0.218364    31A      0.227410    32A      0.236201
      33A      0.240710    34A      0.255671    35A      0.272669
      36A      0.278644    37A      0.286240    38A      0.290903
      39A      0.317810    40A      0.324507    41A      0.336600
      42A      0.359167    43A      0.383959    44A      0.397975
      45A      0.431702    46A      0.469457    47A      0.554576
      48A      0.573413    49A      0.585151    50A      0.611258
      51A      0.618586    52A      0.635213    53A      0.644146
      54A      0.683181    55A      0.707558    56A      0.734491
      57A      0.767601    58A      0.773324    59A      0.799690
      60A      0.834340    61A      0.838760    62A      0.859487
      63A      0.866789    64A      0.877937    65A      0.883984
      66A      0.889629    67A      0.893712    68A      0.897786
      69A      0.906566    70A      0.907421    71A      0.920579
      72A      0.926451    73A      0.928896    74A      0.941079
      75A      0.952377    76A      0.962342    77A      0.964012
      78A      0.980384    79A      0.986950    80A      1.032028
      81A      1.060821    82A      1.080814    83A      1.103922
      84A      1.141933    85A      1.186920    86A      1.235999
      87A      1.366863    88A      1.433865    89A      1.479674
      90A      1.493207    91A      1.498896    92A      1.526273
      93A      1.542582    94A      1.608334    95A      1.631100
      96A      1.638145    97A      1.655741    98A      1.672491
      99A      1.693902   100A      1.703605   101A      1.717538
     102A      1.737409   103A      1.786869   104A      1.826555
     105A      1.865788   106A      1.870753   107A      1.874912
     108A      1.896802   109A      1.908706   110A      1.912005
     111A      1.938211   112A      1.951552   113A      1.956268
     114A      1.960747   115A      1.964404   116A      1.974970
     117A      1.986002   118A      1.990596   119A      2.003647
     120A      2.011641   121A      2.018566   122A      2.034731
     123A      2.049216   124A      2.056586   125A      2.062658
     126A      2.116472   127A      2.133110   128A      2.194795
     129A      2.206141   130A      2.244369   131A      2.292253
     132A      2.313636   133A      2.321701   134A      2.327631
     135A      2.341712   136A      2.366190   137A      2.384316
     138A      2.418024   139A      2.440183   140A      2.460633
     141A      2.476620   142A      2.515375   143A      2.559895
     144A      2.594075   145A      2.616863   146A      2.667501
     147A      2.672335   148A      2.737361   149A      2.756944
     150A      2.771747   151A      2.779499   152A      2.784480
     153A      2.796172   154A      2.809456   155A      2.836067
     156A      2.844544   157A      2.853977   158A      2.885816
     159A      2.893135   160A      2.926779   161A      2.936186
     162A      2.949273   163A      3.067683   164A      3.086518

    Final Occupation by Irrep:
              A
    DOCC [    26 ]

  @RHF Final Energy:  -236.50836586557543

   => Energetics <=

    Nuclear Repulsion Energy =            242.0878334865394663
    One-Electron Energy =                -796.6731125034416436
    Two-Electron Energy =                 318.0769131513267212
    Total Energy =                       -236.5083658655754562

Computation Completed

Properties will be evaluated at   0.000000,   0.000000,   0.000000 [a0]

Properties computed using the SCF density matrix

  Nuclear Dipole Moment: [e a0]
     X:    -0.2833      Y:     0.0018      Z:    -0.2581

  Electronic Dipole Moment: [e a0]
     X:     0.2816      Y:     0.0105      Z:     0.2782

  Dipole Moment: [e a0]
     X:    -0.0017      Y:     0.0123      Z:     0.0200     Total:     0.0236

  Dipole Moment: [D]
     X:    -0.0044      Y:     0.0313      Z:     0.0509     Total:     0.0599

*** tstop() called on ds3 at Mon Apr 27 13:01:32 2020
Module time:
	user time   =      29.25 seconds =       0.49 minutes
	system time =      11.07 seconds =       0.18 minutes
	total time  =         46 seconds =       0.77 minutes
Total time:
	user time   =      29.25 seconds =       0.49 minutes
	system time =      11.07 seconds =       0.18 minutes
	total time  =         46 seconds =       0.77 minutes
                                     G D M A

                                 by Anthony Stone

                           version 2.2.06, 22 June 2011

               Distributed Multipoles from Gaussian wavefunctions

Starting at 13:1:32 on 27 Apr 2020

Using SCF density matrix from file ./SSI/SSI-046PRO-141ARG-1-dimer.test.4953.fchk

                         Distributed Multipole Analysis

Standard DMA

Positions and radii in angstrom
Multipole moments in atomic units, ea_0^k for rank k

C          x =  1.349731  y = -1.267860  z =  0.691521 angstrom
           Maximum rank =  0   Radius =  0.650 angstrom
                   Q00  =  -0.108890

C          x =  1.941731  y = -2.522860  z =  1.173521 angstrom
           Maximum rank =  0   Radius =  0.650 angstrom
                   Q00  =  -0.214234

C          x =  1.440731  y = -1.292860  z = -0.819479 angstrom
           Maximum rank =  0   Radius =  0.650 angstrom
                   Q00  =  -0.207174

H          x =  1.856731  y = -0.398860  z =  1.103521 angstrom
           Maximum rank =  0   Radius =  0.325 angstrom
                   Q00  =   0.062551

H          x =  0.299731  y = -1.253860  z =  0.981521 angstrom
           Maximum rank =  0   Radius =  0.325 angstrom
                   Q00  =   0.045820

H          x =  2.954731  y = -2.311860  z =  1.520521 angstrom
           Maximum rank =  0   Radius =  0.325 angstrom
                   Q00  =   0.078111

H          x =  1.371731  y = -2.935860  z =  2.003521 angstrom
           Maximum rank =  0   Radius =  0.325 angstrom
                   Q00  =   0.083027

H          x =  0.459731  y = -1.072860  z = -1.244479 angstrom
           Maximum rank =  0   Radius =  0.325 angstrom
                   Q00  =   0.088299

H          x =  2.008343  y = -3.238574  z =  0.340861 angstrom
           Maximum rank =  0   Radius =  0.325 angstrom
                   Q00  =   0.052907

H          x =  1.720513  y = -2.328728  z = -1.061759 angstrom
           Maximum rank =  0   Radius =  0.325 angstrom
                   Q00  =   0.048391

H          x =  2.152070  y = -0.534628  z = -1.178759 angstrom
           Maximum rank =  0   Radius =  0.325 angstrom
                   Q00  =   0.073167

C          x = -1.130269  y =  1.328140  z = -0.442479 angstrom
           Maximum rank =  0   Radius =  0.650 angstrom
                   Q00  =  -0.105520

C          x = -0.978269  y =  2.748140  z =  0.147521 angstrom
           Maximum rank =  0   Radius =  0.650 angstrom
                   Q00  =  -0.239956

C          x = -2.598269  y =  1.007140  z = -0.727479 angstrom
           Maximum rank =  0   Radius =  0.650 angstrom
                   Q00  =  -0.240179

H          x = -0.564269  y =  1.253140  z = -1.370479 angstrom
           Maximum rank =  0   Radius =  0.325 angstrom
                   Q00  =   0.053987

H          x = -0.733269  y =  0.604140  z =  0.257521 angstrom
           Maximum rank =  0   Radius =  0.325 angstrom
                   Q00  =   0.051404

H          x = -1.638269  y =  2.848140  z =  1.008521 angstrom
           Maximum rank =  0   Radius =  0.325 angstrom
                   Q00  =   0.077184

H          x = -1.326269  y =  3.451140  z = -0.612479 angstrom
           Maximum rank =  0   Radius =  0.325 angstrom
                   Q00  =   0.073588

H          x = -3.219269  y =  1.722140  z = -0.189479 angstrom
           Maximum rank =  0   Radius =  0.325 angstrom
                   Q00  =   0.072382

H          x = -2.782269  y =  1.183140  z = -1.789479 angstrom
           Maximum rank =  0   Radius =  0.325 angstrom
                   Q00  =   0.082988

H          x =  0.042169  y =  3.036416  z =  0.440101 angstrom
           Maximum rank =  0   Radius =  0.325 angstrom
                   Q00  =   0.087443

H          x = -2.904364  y = -0.021103  z = -0.484539 angstrom
           Maximum rank =  0   Radius =  0.325 angstrom
                   Q00  =   0.084704

Total multipoles referred to origin at
           x =   0.000000,  y =    0.000000,  z =    0.000000 angstrom
                   Q00  =  -0.000000

Finished at 13:1:32 on 27 Apr 2020

  DMA results are available in the Python driver through the
	  variable('DMA DISTRIBUTED MULTIPOLES')
  and
	  variable('DMA TOTAL MULTIPOLES')
  commands.

    Psi4 stopped on: Monday, 27 April 2020 01:01PM
    Psi4 wall time for execution: 0:00:46.61

*** Psi4 exiting successfully. Buy a developer a beer!
