                               Psi4 1.3.2 release

  ==> Input File <==

--------------------------------------------------------------------------
import numpy as np
set {scf_type pk
basis cc-pvdz
d_convergence 10
gdma_switch   0
gdma_limit    0
gdma_origin   [ 0.0,  0.0,  0.0 ]
}
molecule test {
    units Angstrom
    0 1
    --
    0 1
    C                2.091230917739771     1.294209588519968     2.421952362452962
    C               -1.196769082260229    -0.055790411480032     1.088952362452962
    C               -0.254769082260229     0.701209588519968     1.767952362452962
    C               -0.785769082260229    -1.037790411480032     0.207952362452962
    C                1.110230917739771     0.495209588519968     1.611952362452962
    C                0.568230917739771    -1.275790411480032     0.032952362452962
    C                1.518230917739771    -0.506790411480032     0.732952362452962
    O               -1.729769082260229    -1.758790411480032    -0.465047637547038
    H               -2.249769082260229     0.133209588519968     1.241952362452962
    H               -0.597769082260229     1.466209588519968     2.452952362452962
    H               -2.620769082260229    -1.467790411480032    -0.235047637547038
    H                0.892230917739771    -2.042790411480032    -0.653047637547038
    H                1.638230917739771     2.247209588519967     2.700952362452962
    H                2.957230917739771     1.512209588519968     1.804952362452962
    H                2.569230917739771    -0.706790411480032     0.585952362452962
    H                2.416720917739771     0.772279588519968     3.333902362452962
    C               -0.602769082260229     1.058209588519968    -2.512047637547038
    C               -0.316769082260229     0.992209588519968    -4.024047637547037
    H               -1.109769082260229     1.983209588519968    -2.250047637547038
    H               -1.263769082260229     0.237209588519968    -2.244047637547038
    H                0.326230917739771     0.972209588519968    -1.950047637547038
    H               -1.265769082260229     1.219209588519968    -4.515047637547037
    H                0.406207917739771     1.765969588519968    -4.321697637547038
    H               -0.020162082260229    -0.001790411480032    -4.390107637547037

}
e, wfn = energy('scf', return_wfn=True)
gdma(wfn)
dmavals = variable('DMA DISTRIBUTED MULTIPOLES')
charges = np.array(dmavals)
print(charges)
np.save('SSI-101TYR-151VAL-1-dimer.npy', np.array(charges))--------------------------------------------------------------------------

*** tstart() called on ds3
*** at Mon Apr 27 20:00:20 2020

   => Loading Basis Set <=

    Name: CC-PVDZ
    Role: ORBITAL
    Keyword: BASIS
    atoms 1-7, 17-18  entry C          line   138 file /theoryfs2/ds/metcalf/miniconda2/envs/tf2gpu/share/psi4/basis/cc-pvdz.gbs
    atoms 8           entry O          line   198 file /theoryfs2/ds/metcalf/miniconda2/envs/tf2gpu/share/psi4/basis/cc-pvdz.gbs
    atoms 9-16, 19-24 entry H          line    22 file /theoryfs2/ds/metcalf/miniconda2/envs/tf2gpu/share/psi4/basis/cc-pvdz.gbs

         ---------------------------------------------------------
                                   SCF
               by Justin Turney, Rob Parrish, Andy Simmonett
                          and Daniel G. A. Smith
                              RHF Reference
                        1 Threads,    500 MiB Core
         ---------------------------------------------------------

  ==> Geometry <==

    Molecular point group: c1
    Full point group: C1

    Geometry (in Angstrom), charge = 0, multiplicity = 1:

       Center              X                  Y                   Z               Mass
    ------------   -----------------  -----------------  -----------------  -----------------
         C            2.091230917740     1.294209588520     2.421952362453    12.000000000000
         C           -1.196769082260    -0.055790411480     1.088952362453    12.000000000000
         C           -0.254769082260     0.701209588520     1.767952362453    12.000000000000
         C           -0.785769082260    -1.037790411480     0.207952362453    12.000000000000
         C            1.110230917740     0.495209588520     1.611952362453    12.000000000000
         C            0.568230917740    -1.275790411480     0.032952362453    12.000000000000
         C            1.518230917740    -0.506790411480     0.732952362453    12.000000000000
         O           -1.729769082260    -1.758790411480    -0.465047637547    15.994914619570
         H           -2.249769082260     0.133209588520     1.241952362453     1.007825032230
         H           -0.597769082260     1.466209588520     2.452952362453     1.007825032230
         H           -2.620769082260    -1.467790411480    -0.235047637547     1.007825032230
         H            0.892230917740    -2.042790411480    -0.653047637547     1.007825032230
         H            1.638230917740     2.247209588520     2.700952362453     1.007825032230
         H            2.957230917740     1.512209588520     1.804952362453     1.007825032230
         H            2.569230917740    -0.706790411480     0.585952362453     1.007825032230
         H            2.416720917740     0.772279588520     3.333902362453     1.007825032230
         C           -0.602769082260     1.058209588520    -2.512047637547    12.000000000000
         C           -0.316769082260     0.992209588520    -4.024047637547    12.000000000000
         H           -1.109769082260     1.983209588520    -2.250047637547     1.007825032230
         H           -1.263769082260     0.237209588520    -2.244047637547     1.007825032230
         H            0.326230917740     0.972209588520    -1.950047637547     1.007825032230
         H           -1.265769082260     1.219209588520    -4.515047637547     1.007825032230
         H            0.406207917740     1.765969588520    -4.321697637547     1.007825032230
         H           -0.020162082260    -0.001790411480    -4.390107637547     1.007825032230

  Running in c1 symmetry.

  Rotational constants: A =      0.05106  B =      0.02467  C =      0.02028 [cm^-1]
  Rotational constants: A =   1530.67890  B =    739.59850  C =    607.94939 [MHz]
  Nuclear repulsion =  503.753995927492156

  Charge       = 0
  Multiplicity = 1
  Electrons    = 76
  Nalpha       = 38
  Nbeta        = 38

  ==> Algorithm <==

  SCF Algorithm Type is PK.
  DIIS enabled.
  MOM disabled.
  Fractional occupation disabled.
  Guess Type is SAD.
  Energy threshold   = 1.00e-06
  Density threshold  = 1.00e-10
  Integral threshold = 0.00e+00

  ==> Primary Basis <==

  Basis Set: CC-PVDZ
    Blend: CC-PVDZ
    Number of shells: 102
    Number of basis function: 210
    Number of Cartesian functions: 220
    Spherical Harmonics?: true
    Max angular momentum: 2

  ==> Pre-Iterations <==

   -------------------------------------------------------
    Irrep   Nso     Nmo     Nalpha   Nbeta   Ndocc  Nsocc
   -------------------------------------------------------
     A        210     210       0       0       0       0
   -------------------------------------------------------
    Total     210     210      38      38      38       0
   -------------------------------------------------------

  ==> Integral Setup <==

  Using integral reordering PK algorithm.
  Sizing the integral batches needed.
  Building batch lookup table.
   Calculation information:
      Number of atoms:                  24
      Number of AO shells:             102
      Number of primitives:            290
      Number of atomic orbitals:       220
      Number of basis functions:       210

      Integral cutoff                 1.00e-12
      Number of threads:                 1

	Batch   1 pq = [       0,    9405] index = [             0,44231715] size =     44231715
	Batch   2 pq = [    9405,   13301] index = [      44231715,88464951] size =     44233236
	Batch   3 pq = [   13301,   16290] index = [      88464951,132690195] size =     44225244
	Batch   4 pq = [   16290,   18810] index = [     132690195,176917455] size =     44227260
	Batch   5 pq = [   18810,   21030] index = [     176917455,221140965] size =     44223510
	Batch   6 pq = [   21030,   22155] index = [     221140965,245433090] size =     24292125
  Task number: 23
  Buffer size: 11059200
  Buffer per thread: 2
  We computed 12437872 shell quartets total.
  Whereas there are 13799631 unique shell quartets.

  ==> DiskJK: Disk-Based J/K Matrices <==

    J tasked:                  Yes
    K tasked:                  Yes
    wK tasked:                  No
    Memory [MiB]:              375
    Schwarz Cutoff:          1E-12

    OpenMP threads:              1

  Minimum eigenvalue in the overlap matrix is 3.1265826002E-04.
  Using Symmetric Orthogonalization.

  SCF Guess: Superposition of Atomic Densities via on-the-fly atomic UHF.

  ==> Iterations <==

                        Total Energy        Delta E     RMS |[F,P]|

   @RHF iter SAD:  -422.70703143855440   -4.22707e+02   0.00000e+00
   @RHF iter   1:  -423.60002411480548   -8.92993e-01   2.97351e-03 DIIS
   @RHF iter   2:  -423.81642622350466   -2.16402e-01   1.24821e-03 DIIS
   @RHF iter   3:  -423.85084478523771   -3.44186e-02   2.80512e-04 DIIS
   @RHF iter   4:  -423.85366267935632   -2.81789e-03   1.15533e-04 DIIS
   @RHF iter   5:  -423.85400321008626   -3.40531e-04   2.09463e-05 DIIS
   @RHF iter   6:  -423.85402103180559   -1.78217e-05   6.54635e-06 DIIS
   @RHF iter   7:  -423.85402272346948   -1.69166e-06   2.11446e-06 DIIS
   @RHF iter   8:  -423.85402295858597   -2.35116e-07   7.92575e-07 DIIS
   @RHF iter   9:  -423.85402299747244   -3.88865e-08   3.21173e-07 DIIS
   @RHF iter  10:  -423.85402300500061   -7.52817e-09   1.37756e-07 DIIS
   @RHF iter  11:  -423.85402300736700   -2.36639e-09   6.01006e-08 DIIS
   @RHF iter  12:  -423.85402300780555   -4.38547e-10   2.73921e-08 DIIS
   @RHF iter  13:  -423.85402300787104   -6.54836e-11   7.81404e-09 DIIS
   @RHF iter  14:  -423.85402300787337   -2.33058e-12   2.26201e-09 DIIS
   @RHF iter  15:  -423.85402300787575   -2.38742e-12   6.46843e-10 DIIS
   @RHF iter  16:  -423.85402300787706   -1.30740e-12   1.94191e-10 DIIS
   @RHF iter  17:  -423.85402300787655    5.11591e-13   6.91539e-11 DIIS
  Energy and wave function converged.

  ==> Post-Iterations <==

    Orbital Energies [Eh]
    ---------------------

    Doubly Occupied:

       1A    -20.585044     2A    -11.297162     3A    -11.240313
       4A    -11.236830     5A    -11.233067     6A    -11.231273
       7A    -11.230977     8A    -11.228363     9A    -11.211639
      10A    -11.204610    11A     -1.400237    12A     -1.152384
      13A     -1.040595    14A     -1.016414    15A     -1.005107
      16A     -0.928472    17A     -0.845372    18A     -0.828795
      19A     -0.802212    20A     -0.732244    21A     -0.670891
      22A     -0.641842    23A     -0.606371    24A     -0.594511
      25A     -0.586308    26A     -0.584471    27A     -0.580454
      28A     -0.571670    29A     -0.569151    30A     -0.528068
      31A     -0.499422    32A     -0.493493    33A     -0.484926
      34A     -0.478167    35A     -0.473797    36A     -0.462004
      37A     -0.337085    38A     -0.304263

    Virtual:

      39A      0.129035    40A      0.156097    41A      0.174138
      42A      0.185787    43A      0.198111    44A      0.216644
      45A      0.221878    46A      0.248165    47A      0.257505
      48A      0.260378    49A      0.268362    50A      0.277301
      51A      0.282937    52A      0.294672    53A      0.298627
      54A      0.319819    55A      0.370355    56A      0.374208
      57A      0.397556    58A      0.430925    59A      0.454809
      60A      0.482456    61A      0.497113    62A      0.508043
      63A      0.581470    64A      0.594763    65A      0.606631
      66A      0.611900    67A      0.638594    68A      0.647543
      69A      0.659831    70A      0.674648    71A      0.681119
      72A      0.688798    73A      0.705694    74A      0.730382
      75A      0.739139    76A      0.745909    77A      0.760292
      78A      0.772611    79A      0.783851    80A      0.801067
      81A      0.831709    82A      0.845445    83A      0.856467
      84A      0.862653    85A      0.877061    86A      0.886016
      87A      0.888968    88A      0.893873    89A      0.900053
      90A      0.902333    91A      0.914315    92A      0.925878
      93A      0.926732    94A      0.939953    95A      0.945249
      96A      0.947956    97A      0.964737    98A      0.974377
      99A      0.990633   100A      1.019160   101A      1.037238
     102A      1.071070   103A      1.119118   104A      1.124969
     105A      1.136266   106A      1.148553   107A      1.169414
     108A      1.181769   109A      1.216483   110A      1.221290
     111A      1.253745   112A      1.261801   113A      1.269366
     114A      1.303062   115A      1.311264   116A      1.314195
     117A      1.344430   118A      1.355741   119A      1.368748
     120A      1.387345   121A      1.470880   122A      1.476999
     123A      1.496286   124A      1.509397   125A      1.537174
     126A      1.557407   127A      1.589431   128A      1.611087
     129A      1.646229   130A      1.672744   131A      1.692713
     132A      1.702523   133A      1.708760   134A      1.734289
     135A      1.746970   136A      1.787425   137A      1.809149
     138A      1.811457   139A      1.867020   140A      1.874678
     141A      1.885561   142A      1.889177   143A      1.893290
     144A      1.902486   145A      1.914689   146A      1.919092
     147A      1.929586   148A      1.938674   149A      1.949822
     150A      1.954417   151A      1.963883   152A      1.974431
     153A      1.981965   154A      1.987258   155A      2.002711
     156A      2.007912   157A      2.030926   158A      2.058919
     159A      2.065966   160A      2.081640   161A      2.092015
     162A      2.096215   163A      2.138823   164A      2.150381
     165A      2.157199   166A      2.163828   167A      2.209144
     168A      2.225365   169A      2.263139   170A      2.277226
     171A      2.298081   172A      2.315461   173A      2.320032
     174A      2.342436   175A      2.394541   176A      2.424100
     177A      2.448595   178A      2.464865   179A      2.479446
     180A      2.482022   181A      2.489190   182A      2.535338
     183A      2.537466   184A      2.597697   185A      2.607259
     186A      2.616481   187A      2.656812   188A      2.751374
     189A      2.765823   190A      2.770330   191A      2.795223
     192A      2.810888   193A      2.819464   194A      2.841951
     195A      2.856207   196A      2.881728   197A      2.906500
     198A      2.947770   199A      2.978560   200A      3.002982
     201A      3.009501   202A      3.093162   203A      3.118744
     204A      3.257195   205A      3.284642   206A      3.342989
     207A      3.589216   208A      3.668175   209A      3.984691
     210A      4.183345

    Final Occupation by Irrep:
              A
    DOCC [    38 ]

  @RHF Final Energy:  -423.85402300787655

   => Energetics <=

    Nuclear Repulsion Energy =            503.7539959274921557
    One-Electron Energy =               -1573.3800334274546913
    Two-Electron Energy =                 645.7720144920858729
    Total Energy =                       -423.8540230078765489

Computation Completed

Properties will be evaluated at   0.000000,   0.000000,   0.000000 [a0]

Properties computed using the SCF density matrix

  Nuclear Dipole Moment: [e a0]
     X:     1.9400      Y:     7.5755      Z:    -7.9130

  Electronic Dipole Moment: [e a0]
     X:    -2.1900      Y:    -7.2251      Z:     8.3544

  Dipole Moment: [e a0]
     X:    -0.2500      Y:     0.3503      Z:     0.4414     Total:     0.6165

  Dipole Moment: [D]
     X:    -0.6354      Y:     0.8905      Z:     1.1219     Total:     1.5669

*** tstop() called on ds3 at Mon Apr 27 20:02:22 2020
Module time:
	user time   =      89.45 seconds =       1.49 minutes
	system time =      36.88 seconds =       0.61 minutes
	total time  =        122 seconds =       2.03 minutes
Total time:
	user time   =      89.45 seconds =       1.49 minutes
	system time =      36.88 seconds =       0.61 minutes
	total time  =        122 seconds =       2.03 minutes
                                     G D M A

                                 by Anthony Stone

                           version 2.2.06, 22 June 2011

               Distributed Multipoles from Gaussian wavefunctions

Starting at 20:2:22 on 27 Apr 2020

Using SCF density matrix from file ./SSI/SSI-101TYR-151VAL-1-dimer.test.11903.fchk

                         Distributed Multipole Analysis

Standard DMA

Positions and radii in angstrom
Multipole moments in atomic units, ea_0^k for rank k

C          x =  2.091231  y =  1.294210  z =  2.421952 angstrom
           Maximum rank =  0   Radius =  0.650 angstrom
                   Q00  =  -0.200662

C          x = -1.196769  y = -0.055790  z =  1.088952 angstrom
           Maximum rank =  0   Radius =  0.650 angstrom
                   Q00  =  -0.169445

C          x = -0.254769  y =  0.701210  z =  1.767952 angstrom
           Maximum rank =  0   Radius =  0.650 angstrom
                   Q00  =   0.066167

C          x = -0.785769  y = -1.037790  z =  0.207952 angstrom
           Maximum rank =  0   Radius =  0.650 angstrom
                   Q00  =   0.284798

C          x =  1.110231  y =  0.495210  z =  1.611952 angstrom
           Maximum rank =  0   Radius =  0.650 angstrom
                   Q00  =  -0.132665

C          x =  0.568231  y = -1.275790  z =  0.032952 angstrom
           Maximum rank =  0   Radius =  0.650 angstrom
                   Q00  =  -0.103784

C          x =  1.518231  y = -0.506790  z =  0.732952 angstrom
           Maximum rank =  0   Radius =  0.650 angstrom
                   Q00  =  -0.063253

O          x = -1.729769  y = -1.758790  z = -0.465048 angstrom
           Maximum rank =  0   Radius =  0.650 angstrom
                   Q00  =  -0.648238

H          x = -2.249769  y =  0.133210  z =  1.241952 angstrom
           Maximum rank =  0   Radius =  0.325 angstrom
                   Q00  =   0.067779

H          x = -0.597769  y =  1.466210  z =  2.452952 angstrom
           Maximum rank =  0   Radius =  0.325 angstrom
                   Q00  =   0.064980

H          x = -2.620769  y = -1.467790  z = -0.235048 angstrom
           Maximum rank =  0   Radius =  0.325 angstrom
                   Q00  =   0.407903

H          x =  0.892231  y = -2.042790  z = -0.653048 angstrom
           Maximum rank =  0   Radius =  0.325 angstrom
                   Q00  =   0.080595

H          x =  1.638231  y =  2.247210  z =  2.700952 angstrom
           Maximum rank =  0   Radius =  0.325 angstrom
                   Q00  =   0.096082

H          x =  2.957231  y =  1.512210  z =  1.804952 angstrom
           Maximum rank =  0   Radius =  0.325 angstrom
                   Q00  =   0.098273

H          x =  2.569231  y = -0.706790  z =  0.585952 angstrom
           Maximum rank =  0   Radius =  0.325 angstrom
                   Q00  =   0.064255

H          x =  2.416721  y =  0.772280  z =  3.333902 angstrom
           Maximum rank =  0   Radius =  0.325 angstrom
                   Q00  =   0.101229

C          x = -0.602769  y =  1.058210  z = -2.512048 angstrom
           Maximum rank =  0   Radius =  0.650 angstrom
                   Q00  =  -0.229066

C          x = -0.316769  y =  0.992210  z = -4.024048 angstrom
           Maximum rank =  0   Radius =  0.650 angstrom
                   Q00  =  -0.243111

H          x = -1.109769  y =  1.983210  z = -2.250048 angstrom
           Maximum rank =  0   Radius =  0.325 angstrom
                   Q00  =   0.074173

H          x = -1.263769  y =  0.237210  z = -2.244048 angstrom
           Maximum rank =  0   Radius =  0.325 angstrom
                   Q00  =   0.069448

H          x =  0.326231  y =  0.972210  z = -1.950048 angstrom
           Maximum rank =  0   Radius =  0.325 angstrom
                   Q00  =   0.086507

H          x = -1.265769  y =  1.219210  z = -4.515048 angstrom
           Maximum rank =  0   Radius =  0.325 angstrom
                   Q00  =   0.068457

H          x =  0.406208  y =  1.765970  z = -4.321698 angstrom
           Maximum rank =  0   Radius =  0.325 angstrom
                   Q00  =   0.076630

H          x = -0.020162  y = -0.001790  z = -4.390108 angstrom
           Maximum rank =  0   Radius =  0.325 angstrom
                   Q00  =   0.082950

Total multipoles referred to origin at
           x =   0.000000,  y =    0.000000,  z =    0.000000 angstrom
                   Q00  =  -0.000000

Finished at 20:2:22 on 27 Apr 2020

  DMA results are available in the Python driver through the
	  variable('DMA DISTRIBUTED MULTIPOLES')
  and
	  variable('DMA TOTAL MULTIPOLES')
  commands.

    Psi4 stopped on: Monday, 27 April 2020 08:02PM
    Psi4 wall time for execution: 0:02:02.34

*** Psi4 exiting successfully. Buy a developer a beer!
