                               Psi4 1.3.2 release

  ==> Input File <==

--------------------------------------------------------------------------
import numpy as np
set {scf_type pk
basis cc-pvdz
d_convergence 10
gdma_switch   0
gdma_limit    0
gdma_origin   [ 0.0,  0.0,  0.0 ]
}
molecule test {
    units Angstrom
    0 1
    --
    0 1
    C                0.759294852243248    -0.907922698087745     2.902865786680845
    C                0.827294852243248    -0.522922698087745     1.444865786680845
    C                0.958294852243248     0.816077301912255     1.057865786680845
    C                0.797294852243248    -1.507922698087745     0.456865786680845
    C                1.018294852243248     1.164077301912255    -0.297134213319155
    C                0.871294852243248    -1.171922698087745    -0.895134213319155
    C                0.980294852243248     0.165077301912255    -1.276134213319155
    O                1.022294852243248     0.492077301912255    -2.609134213319155
    H               -0.217705147756752    -1.356922698087745     3.089865786680845
    H                0.835294852243248    -0.014922698087745     3.525865786680845
    H                0.993294852243248     1.594077301912255     1.809865786680845
    H                0.691294852243248    -2.542922698087744     0.735865786680845
    H                1.098294852243248     2.203077301912256    -0.583134213319155
    H                0.842294852243248    -1.941922698087745    -1.647134213319155
    H                1.165294852243248     1.431077301912255    -2.755134213319155
    H                1.539474852243248    -1.628202698087745     3.190115786680845
    C               -2.556705147756752     0.570077301912255     0.102865786680845
    C               -3.962705147756751     0.633077301912255    -0.526134213319155
    H               -2.487705147756752     1.242077301912255     0.951865786680845
    H               -2.318705147756752    -0.442922698087745     0.421865786680845
    H               -1.792705147756752     0.837077301912255    -0.622134213319155
    H               -4.033705147756752    -0.152922698087745    -1.276134213319155
    H               -4.139911147756752     1.591696701912255    -1.035694213319155
    H               -4.739848147756752     0.448658301912255     0.230195786680845

}
e, wfn = energy('scf', return_wfn=True)
gdma(wfn)
dmavals = variable('DMA DISTRIBUTED MULTIPOLES')
charges = np.array(dmavals)
print(charges)
np.save('SSI-016TYR-079ILE-1-dimer.npy', np.array(charges))--------------------------------------------------------------------------

*** tstart() called on ds3
*** at Sun Apr 26 17:04:03 2020

   => Loading Basis Set <=

    Name: CC-PVDZ
    Role: ORBITAL
    Keyword: BASIS
    atoms 1-7, 17-18  entry C          line   138 file /theoryfs2/ds/metcalf/miniconda2/envs/tf2gpu/share/psi4/basis/cc-pvdz.gbs
    atoms 8           entry O          line   198 file /theoryfs2/ds/metcalf/miniconda2/envs/tf2gpu/share/psi4/basis/cc-pvdz.gbs
    atoms 9-16, 19-24 entry H          line    22 file /theoryfs2/ds/metcalf/miniconda2/envs/tf2gpu/share/psi4/basis/cc-pvdz.gbs

         ---------------------------------------------------------
                                   SCF
               by Justin Turney, Rob Parrish, Andy Simmonett
                          and Daniel G. A. Smith
                              RHF Reference
                        1 Threads,    500 MiB Core
         ---------------------------------------------------------

  ==> Geometry <==

    Molecular point group: c1
    Full point group: C1

    Geometry (in Angstrom), charge = 0, multiplicity = 1:

       Center              X                  Y                   Z               Mass
    ------------   -----------------  -----------------  -----------------  -----------------
         C            0.759294852243    -0.907922698088     2.902865786681    12.000000000000
         C            0.827294852243    -0.522922698088     1.444865786681    12.000000000000
         C            0.958294852243     0.816077301912     1.057865786681    12.000000000000
         C            0.797294852243    -1.507922698088     0.456865786681    12.000000000000
         C            1.018294852243     1.164077301912    -0.297134213319    12.000000000000
         C            0.871294852243    -1.171922698088    -0.895134213319    12.000000000000
         C            0.980294852243     0.165077301912    -1.276134213319    12.000000000000
         O            1.022294852243     0.492077301912    -2.609134213319    15.994914619570
         H           -0.217705147757    -1.356922698088     3.089865786681     1.007825032230
         H            0.835294852243    -0.014922698088     3.525865786681     1.007825032230
         H            0.993294852243     1.594077301912     1.809865786681     1.007825032230
         H            0.691294852243    -2.542922698088     0.735865786681     1.007825032230
         H            1.098294852243     2.203077301912    -0.583134213319     1.007825032230
         H            0.842294852243    -1.941922698088    -1.647134213319     1.007825032230
         H            1.165294852243     1.431077301912    -2.755134213319     1.007825032230
         H            1.539474852243    -1.628202698088     3.190115786681     1.007825032230
         C           -2.556705147757     0.570077301912     0.102865786681    12.000000000000
         C           -3.962705147757     0.633077301912    -0.526134213319    12.000000000000
         H           -2.487705147757     1.242077301912     0.951865786681     1.007825032230
         H           -2.318705147757    -0.442922698088     0.421865786681     1.007825032230
         H           -1.792705147757     0.837077301912    -0.622134213319     1.007825032230
         H           -4.033705147757    -0.152922698088    -1.276134213319     1.007825032230
         H           -4.139911147757     1.591696701912    -1.035694213319     1.007825032230
         H           -4.739848147757     0.448658301912     0.230195786681     1.007825032230

  Running in c1 symmetry.

  Rotational constants: A =      0.03865  B =      0.03083  C =      0.02119 [cm^-1]
  Rotational constants: A =   1158.71173  B =    924.39082  C =    635.30795 [MHz]
  Nuclear repulsion =  504.167919406783369

  Charge       = 0
  Multiplicity = 1
  Electrons    = 76
  Nalpha       = 38
  Nbeta        = 38

  ==> Algorithm <==

  SCF Algorithm Type is PK.
  DIIS enabled.
  MOM disabled.
  Fractional occupation disabled.
  Guess Type is SAD.
  Energy threshold   = 1.00e-06
  Density threshold  = 1.00e-10
  Integral threshold = 0.00e+00

  ==> Primary Basis <==

  Basis Set: CC-PVDZ
    Blend: CC-PVDZ
    Number of shells: 102
    Number of basis function: 210
    Number of Cartesian functions: 220
    Spherical Harmonics?: true
    Max angular momentum: 2

  ==> Pre-Iterations <==

   -------------------------------------------------------
    Irrep   Nso     Nmo     Nalpha   Nbeta   Ndocc  Nsocc
   -------------------------------------------------------
     A        210     210       0       0       0       0
   -------------------------------------------------------
    Total     210     210      38      38      38       0
   -------------------------------------------------------

  ==> Integral Setup <==

  Using integral reordering PK algorithm.
  Sizing the integral batches needed.
  Building batch lookup table.
   Calculation information:
      Number of atoms:                  24
      Number of AO shells:             102
      Number of primitives:            290
      Number of atomic orbitals:       220
      Number of basis functions:       210

      Integral cutoff                 1.00e-12
      Number of threads:                 1

	Batch   1 pq = [       0,    9405] index = [             0,44231715] size =     44231715
	Batch   2 pq = [    9405,   13301] index = [      44231715,88464951] size =     44233236
	Batch   3 pq = [   13301,   16290] index = [      88464951,132690195] size =     44225244
	Batch   4 pq = [   16290,   18810] index = [     132690195,176917455] size =     44227260
	Batch   5 pq = [   18810,   21030] index = [     176917455,221140965] size =     44223510
	Batch   6 pq = [   21030,   22155] index = [     221140965,245433090] size =     24292125
  Task number: 23
  Buffer size: 11059200
  Buffer per thread: 2
  We computed 12871860 shell quartets total.
  Whereas there are 13799631 unique shell quartets.

  ==> DiskJK: Disk-Based J/K Matrices <==

    J tasked:                  Yes
    K tasked:                  Yes
    wK tasked:                  No
    Memory [MiB]:              375
    Schwarz Cutoff:          1E-12

    OpenMP threads:              1

  Minimum eigenvalue in the overlap matrix is 3.3207679961E-04.
  Using Symmetric Orthogonalization.

  SCF Guess: Superposition of Atomic Densities via on-the-fly atomic UHF.

  ==> Iterations <==

                        Total Energy        Delta E     RMS |[F,P]|

   @RHF iter SAD:  -422.59517016223811   -4.22595e+02   0.00000e+00
   @RHF iter   1:  -423.60277191120593   -1.00760e+00   2.96887e-03 DIIS
   @RHF iter   2:  -423.81739304338089   -2.14621e-01   1.25336e-03 DIIS
   @RHF iter   3:  -423.85191290675988   -3.45199e-02   2.86608e-04 DIIS
   @RHF iter   4:  -423.85476432276556   -2.85142e-03   1.22436e-04 DIIS
   @RHF iter   5:  -423.85514940487627   -3.85082e-04   2.04057e-05 DIIS
   @RHF iter   6:  -423.85516666657531   -1.72617e-05   6.44002e-06 DIIS
   @RHF iter   7:  -423.85516830815448   -1.64158e-06   2.12702e-06 DIIS
   @RHF iter   8:  -423.85516854606482   -2.37910e-07   7.89773e-07 DIIS
   @RHF iter   9:  -423.85516858669729   -4.06325e-08   3.12519e-07 DIIS
   @RHF iter  10:  -423.85516859449979   -7.80250e-09   1.28031e-07 DIIS
   @RHF iter  11:  -423.85516859679069   -2.29090e-09   6.09256e-08 DIIS
   @RHF iter  12:  -423.85516859723987   -4.49177e-10   2.76912e-08 DIIS
   @RHF iter  13:  -423.85516859732417   -8.42988e-11   8.32991e-09 DIIS
   @RHF iter  14:  -423.85516859733502   -1.08571e-11   2.31068e-09 DIIS
   @RHF iter  15:  -423.85516859733201    3.01270e-12   8.82128e-10 DIIS
   @RHF iter  16:  -423.85516859733417   -2.16005e-12   3.75849e-10 DIIS
   @RHF iter  17:  -423.85516859733190    2.27374e-12   1.80863e-10 DIIS
   @RHF iter  18:  -423.85516859733070    1.19371e-12   8.58497e-11 DIIS
  Energy and wave function converged.

  ==> Post-Iterations <==

    Orbital Energies [Eh]
    ---------------------

    Doubly Occupied:

       1A    -20.582828     2A    -11.301253     3A    -11.240812
       4A    -11.238356     5A    -11.235371     6A    -11.235241
       7A    -11.232068     8A    -11.229223     9A    -11.212358
      10A    -11.204324    11A     -1.395218    12A     -1.148949
      13A     -1.036924    14A     -1.016627    15A     -1.004813
      16A     -0.926284    17A     -0.843071    18A     -0.830665
      19A     -0.802115    20A     -0.730812    21A     -0.665743
      22A     -0.642074    23A     -0.606347    24A     -0.589813
      25A     -0.586829    26A     -0.584956    27A     -0.581791
      28A     -0.569163    29A     -0.568102    30A     -0.527413
      31A     -0.497602    32A     -0.493874    33A     -0.485785
      34A     -0.478178    35A     -0.476289    36A     -0.461634
      37A     -0.337650    38A     -0.301795

    Virtual:

      39A      0.127779    40A      0.154826    41A      0.175229
      42A      0.180617    43A      0.199944    44A      0.215422
      45A      0.216888    46A      0.246059    47A      0.259612
      48A      0.263334    49A      0.266387    50A      0.270587
      51A      0.277176    52A      0.297216    53A      0.304626
      54A      0.315415    55A      0.368290    56A      0.372865
      57A      0.397888    58A      0.434822    59A      0.450517
      60A      0.476319    61A      0.493630    62A      0.515169
      63A      0.575778    64A      0.597451    65A      0.598984
      66A      0.615414    67A      0.628271    68A      0.645771
      69A      0.647609    70A      0.677048    71A      0.681968
      72A      0.698826    73A      0.704858    74A      0.734161
      75A      0.737681    76A      0.763602    77A      0.776042
      78A      0.783379    79A      0.789721    80A      0.793627
      81A      0.808061    82A      0.842923    83A      0.845992
      84A      0.857298    85A      0.878427    86A      0.884652
      87A      0.888277    88A      0.893071    89A      0.899656
      90A      0.901489    91A      0.917159    92A      0.919102
      93A      0.927783    94A      0.937612    95A      0.940846
      96A      0.947109    97A      0.969938    98A      0.984916
      99A      0.998383   100A      1.020212   101A      1.049431
     102A      1.067289   103A      1.120798   104A      1.131642
     105A      1.137677   106A      1.145352   107A      1.147344
     108A      1.184253   109A      1.211721   110A      1.230653
     111A      1.244193   112A      1.256415   113A      1.272886
     114A      1.287533   115A      1.298913   116A      1.308738
     117A      1.316779   118A      1.348361   119A      1.356826
     120A      1.391330   121A      1.471374   122A      1.480222
     123A      1.488484   124A      1.496816   125A      1.540651
     126A      1.560075   127A      1.602752   128A      1.614070
     129A      1.622071   130A      1.678911   131A      1.692357
     132A      1.693204   133A      1.710061   134A      1.738997
     135A      1.740485   136A      1.782567   137A      1.802657
     138A      1.813333   139A      1.852335   140A      1.880342
     141A      1.887304   142A      1.894097   143A      1.896221
     144A      1.903222   145A      1.910676   146A      1.914029
     147A      1.918093   148A      1.940031   149A      1.946634
     150A      1.955073   151A      1.957552   152A      1.961314
     153A      1.975195   154A      1.976333   155A      2.004190
     156A      2.006083   157A      2.045876   158A      2.054025
     159A      2.062062   160A      2.080517   161A      2.093171
     162A      2.104917   163A      2.111269   164A      2.130577
     165A      2.152486   166A      2.182544   167A      2.193278
     168A      2.217612   169A      2.258102   170A      2.267100
     171A      2.296781   172A      2.324937   173A      2.351509
     174A      2.363537   175A      2.382057   176A      2.393072
     177A      2.453796   178A      2.456923   179A      2.473042
     180A      2.476012   181A      2.494597   182A      2.527563
     183A      2.558849   184A      2.563492   185A      2.586411
     186A      2.615758   187A      2.639106   188A      2.737280
     189A      2.766277   190A      2.769072   191A      2.783575
     192A      2.805895   193A      2.814473   194A      2.841799
     195A      2.872292   196A      2.876267   197A      2.893995
     198A      2.954988   199A      2.965805   200A      2.997472
     201A      3.004145   202A      3.078959   203A      3.122358
     204A      3.244232   205A      3.277183   206A      3.346690
     207A      3.562073   208A      3.662292   209A      3.960448
     210A      4.189637

    Final Occupation by Irrep:
              A
    DOCC [    38 ]

  @RHF Final Energy:  -423.85516859733070

   => Energetics <=

    Nuclear Repulsion Energy =            504.1679194067833691
    One-Electron Energy =               -1574.2414744710399646
    Two-Electron Energy =                 646.2183864669259492
    Total Energy =                       -423.8551685973307031

Computation Completed

Properties will be evaluated at   0.000000,   0.000000,   0.000000 [a0]

Properties computed using the SCF density matrix

  Nuclear Dipole Moment: [e a0]
     X:   -11.7744      Y:     1.1901      Z:     5.6462

  Electronic Dipole Moment: [e a0]
     X:    11.9308      Y:    -0.7755      Z:    -5.3252

  Dipole Moment: [e a0]
     X:     0.1564      Y:     0.4146      Z:     0.3209     Total:     0.5471

  Dipole Moment: [D]
     X:     0.3975      Y:     1.0538      Z:     0.8157     Total:     1.3906

*** tstop() called on ds3 at Sun Apr 26 17:06:26 2020
Module time:
	user time   =     101.62 seconds =       1.69 minutes
	system time =      46.41 seconds =       0.77 minutes
	total time  =        143 seconds =       2.38 minutes
Total time:
	user time   =     101.62 seconds =       1.69 minutes
	system time =      46.41 seconds =       0.77 minutes
	total time  =        143 seconds =       2.38 minutes
                                     G D M A

                                 by Anthony Stone

                           version 2.2.06, 22 June 2011

               Distributed Multipoles from Gaussian wavefunctions

Starting at 17:6:26 on 26 Apr 2020

Using SCF density matrix from file ./SSI/SSI-016TYR-079ILE-1-dimer.test.17413.fchk

                         Distributed Multipole Analysis

Standard DMA

Positions and radii in angstrom
Multipole moments in atomic units, ea_0^k for rank k

C          x =  0.759295  y = -0.907923  z =  2.902866 angstrom
           Maximum rank =  0   Radius =  0.650 angstrom
                   Q00  =  -0.198972

C          x =  0.827295  y = -0.522923  z =  1.444866 angstrom
           Maximum rank =  0   Radius =  0.650 angstrom
                   Q00  =  -0.134200

C          x =  0.958295  y =  0.816077  z =  1.057866 angstrom
           Maximum rank =  0   Radius =  0.650 angstrom
                   Q00  =  -0.019032

C          x =  0.797295  y = -1.507923  z =  0.456866 angstrom
           Maximum rank =  0   Radius =  0.650 angstrom
                   Q00  =   0.030323

C          x =  1.018295  y =  1.164077  z = -0.297134 angstrom
           Maximum rank =  0   Radius =  0.650 angstrom
                   Q00  =  -0.193336

C          x =  0.871295  y = -1.171923  z = -0.895134 angstrom
           Maximum rank =  0   Radius =  0.650 angstrom
                   Q00  =  -0.109273

C          x =  0.980295  y =  0.165077  z = -1.276134 angstrom
           Maximum rank =  0   Radius =  0.650 angstrom
                   Q00  =   0.324095

O          x =  1.022295  y =  0.492077  z = -2.609134 angstrom
           Maximum rank =  0   Radius =  0.650 angstrom
                   Q00  =  -0.680520

H          x = -0.217705  y = -1.356923  z =  3.089866 angstrom
           Maximum rank =  0   Radius =  0.325 angstrom
                   Q00  =   0.096818

H          x =  0.835295  y = -0.014923  z =  3.525866 angstrom
           Maximum rank =  0   Radius =  0.325 angstrom
                   Q00  =   0.097020

H          x =  0.993295  y =  1.594077  z =  1.809866 angstrom
           Maximum rank =  0   Radius =  0.325 angstrom
                   Q00  =   0.071501

H          x =  0.691295  y = -2.542923  z =  0.735866 angstrom
           Maximum rank =  0   Radius =  0.325 angstrom
                   Q00  =   0.061602

H          x =  1.098295  y =  2.203077  z = -0.583134 angstrom
           Maximum rank =  0   Radius =  0.325 angstrom
                   Q00  =   0.072765

H          x =  0.842295  y = -1.941923  z = -1.647134 angstrom
           Maximum rank =  0   Radius =  0.325 angstrom
                   Q00  =   0.081240

H          x =  1.165295  y =  1.431077  z = -2.755134 angstrom
           Maximum rank =  0   Radius =  0.325 angstrom
                   Q00  =   0.406506

H          x =  1.539475  y = -1.628203  z =  3.190116 angstrom
           Maximum rank =  0   Radius =  0.325 angstrom
                   Q00  =   0.098900

C          x = -2.556705  y =  0.570077  z =  0.102866 angstrom
           Maximum rank =  0   Radius =  0.650 angstrom
                   Q00  =  -0.234551

C          x = -3.962705  y =  0.633077  z = -0.526134 angstrom
           Maximum rank =  0   Radius =  0.650 angstrom
                   Q00  =  -0.242617

H          x = -2.487705  y =  1.242077  z =  0.951866 angstrom
           Maximum rank =  0   Radius =  0.325 angstrom
                   Q00  =   0.071871

H          x = -2.318705  y = -0.442923  z =  0.421866 angstrom
           Maximum rank =  0   Radius =  0.325 angstrom
                   Q00  =   0.082464

H          x = -1.792705  y =  0.837077  z = -0.622134 angstrom
           Maximum rank =  0   Radius =  0.325 angstrom
                   Q00  =   0.085868

H          x = -4.033705  y = -0.152923  z = -1.276134 angstrom
           Maximum rank =  0   Radius =  0.325 angstrom
                   Q00  =   0.077728

H          x = -4.139911  y =  1.591697  z = -1.035694 angstrom
           Maximum rank =  0   Radius =  0.325 angstrom
                   Q00  =   0.077161

H          x = -4.739848  y =  0.448658  z =  0.230196 angstrom
           Maximum rank =  0   Radius =  0.325 angstrom
                   Q00  =   0.076640

Total multipoles referred to origin at
           x =   0.000000,  y =    0.000000,  z =    0.000000 angstrom
                   Q00  =  -0.000000

Finished at 17:6:26 on 26 Apr 2020

  DMA results are available in the Python driver through the
	  variable('DMA DISTRIBUTED MULTIPOLES')
  and
	  variable('DMA TOTAL MULTIPOLES')
  commands.

    Psi4 stopped on: Sunday, 26 April 2020 05:06PM
    Psi4 wall time for execution: 0:02:23.29

*** Psi4 exiting successfully. Buy a developer a beer!
