                               Psi4 1.3.2 release

  ==> Input File <==

--------------------------------------------------------------------------
import numpy as np
set {scf_type pk
basis cc-pvdz
d_convergence 10
gdma_switch   0
gdma_limit    0
gdma_origin   [ 0.0,  0.0,  0.0 ]
}
molecule test {
    units Angstrom
    0 1
    --
    0 1
    C                1.484851989210422     0.359517804704952     2.664665175597254
    C                2.431851989210422     1.561517804704952     2.711665175597254
    C                0.648851989210422     0.190517804704952     3.980665175597254
    H                0.801851989210422     0.475517804704952     1.821665175597254
    H                2.033851989210422    -0.570482195295048     2.526665175597254
    H                2.945851989210422     1.536517804704952     3.674665175597254
    H                0.033851989210422     1.070517804704952     4.151665175597254
    H               -0.001148010789578    -0.679482195295048     3.890665175597254
    H                1.318851989210422     0.043517804704952     4.827665175597254
    H                3.195141989210422     1.469297804704952     1.924969175597254
    H                1.916831989210422     2.530717804704952     2.638091175597254
    C               -0.332148010789578     1.267517804704952    -3.317334824402746
    C                0.267851989210422    -1.168482195295048    -0.447334824402746
    C                0.506851989210422    -0.230482195295048    -1.451334824402746
    C               -1.030148010789578    -1.587482195295048    -0.142334824402746
    C               -0.575148010789578     0.304517804704952    -2.179334824402746
    C               -2.117148010789577    -1.051482195295048    -0.847334824402746
    C               -1.874148010789578    -0.107482195295048    -1.869334824402746
    H                1.101851989210422    -1.580482195295048     0.106665175597254
    H                1.520851989210422     0.071517804704952    -1.674334824402746
    H               -1.211148010789578    -2.331482195295048     0.612665175597254
    H               -3.126148010789577    -1.372482195295048    -0.626334824402746
    H                0.440851989210422     1.948517804704952    -3.016334824402746
    H               -1.239148010789578     1.844517804704952    -3.504334824402746
    H               -2.712148010789578     0.283517804704952    -2.430334824402746
    H               -0.013118010789578     0.759087804704952    -4.239135824402746

}
e, wfn = energy('scf', return_wfn=True)
gdma(wfn)
dmavals = variable('DMA DISTRIBUTED MULTIPOLES')
charges = np.array(dmavals)
print(charges)
np.save('SSI-018ILE-055PHE-1-dimer.npy', np.array(charges))--------------------------------------------------------------------------

*** tstart() called on ds3
*** at Tue Apr 28 11:31:52 2020

   => Loading Basis Set <=

    Name: CC-PVDZ
    Role: ORBITAL
    Keyword: BASIS
    atoms 1-3, 12-18  entry C          line   138 file /theoryfs2/ds/metcalf/miniconda2/envs/tf2gpu/share/psi4/basis/cc-pvdz.gbs
    atoms 4-11, 19-26 entry H          line    22 file /theoryfs2/ds/metcalf/miniconda2/envs/tf2gpu/share/psi4/basis/cc-pvdz.gbs

         ---------------------------------------------------------
                                   SCF
               by Justin Turney, Rob Parrish, Andy Simmonett
                          and Daniel G. A. Smith
                              RHF Reference
                        1 Threads,    500 MiB Core
         ---------------------------------------------------------

  ==> Geometry <==

    Molecular point group: c1
    Full point group: C1

    Geometry (in Angstrom), charge = 0, multiplicity = 1:

       Center              X                  Y                   Z               Mass
    ------------   -----------------  -----------------  -----------------  -----------------
         C            1.484851989210     0.359517804705     2.664665175597    12.000000000000
         C            2.431851989210     1.561517804705     2.711665175597    12.000000000000
         C            0.648851989210     0.190517804705     3.980665175597    12.000000000000
         H            0.801851989210     0.475517804705     1.821665175597     1.007825032230
         H            2.033851989210    -0.570482195295     2.526665175597     1.007825032230
         H            2.945851989210     1.536517804705     3.674665175597     1.007825032230
         H            0.033851989210     1.070517804705     4.151665175597     1.007825032230
         H           -0.001148010790    -0.679482195295     3.890665175597     1.007825032230
         H            1.318851989210     0.043517804705     4.827665175597     1.007825032230
         H            3.195141989210     1.469297804705     1.924969175597     1.007825032230
         H            1.916831989210     2.530717804705     2.638091175597     1.007825032230
         C           -0.332148010790     1.267517804705    -3.317334824403    12.000000000000
         C            0.267851989210    -1.168482195295    -0.447334824403    12.000000000000
         C            0.506851989210    -0.230482195295    -1.451334824403    12.000000000000
         C           -1.030148010790    -1.587482195295    -0.142334824403    12.000000000000
         C           -0.575148010790     0.304517804705    -2.179334824403    12.000000000000
         C           -2.117148010790    -1.051482195295    -0.847334824403    12.000000000000
         C           -1.874148010790    -0.107482195295    -1.869334824403    12.000000000000
         H            1.101851989210    -1.580482195295     0.106665175597     1.007825032230
         H            1.520851989210     0.071517804705    -1.674334824403     1.007825032230
         H           -1.211148010790    -2.331482195295     0.612665175597     1.007825032230
         H           -3.126148010790    -1.372482195295    -0.626334824403     1.007825032230
         H            0.440851989210     1.948517804705    -3.016334824403     1.007825032230
         H           -1.239148010790     1.844517804705    -3.504334824403     1.007825032230
         H           -2.712148010790     0.283517804705    -2.430334824403     1.007825032230
         H           -0.013118010790     0.759087804705    -4.239135824403     1.007825032230

  Running in c1 symmetry.

  Rotational constants: A =      0.06038  B =      0.01743  C =      0.01493 [cm^-1]
  Rotational constants: A =   1810.11078  B =    522.52827  C =    447.68311 [MHz]
  Nuclear repulsion =  477.048021848518488

  Charge       = 0
  Multiplicity = 1
  Electrons    = 76
  Nalpha       = 38
  Nbeta        = 38

  ==> Algorithm <==

  SCF Algorithm Type is PK.
  DIIS enabled.
  MOM disabled.
  Fractional occupation disabled.
  Guess Type is SAD.
  Energy threshold   = 1.00e-06
  Density threshold  = 1.00e-10
  Integral threshold = 0.00e+00

  ==> Primary Basis <==

  Basis Set: CC-PVDZ
    Blend: CC-PVDZ
    Number of shells: 108
    Number of basis function: 220
    Number of Cartesian functions: 230
    Spherical Harmonics?: true
    Max angular momentum: 2

  ==> Pre-Iterations <==

   -------------------------------------------------------
    Irrep   Nso     Nmo     Nalpha   Nbeta   Ndocc  Nsocc
   -------------------------------------------------------
     A        220     220       0       0       0       0
   -------------------------------------------------------
    Total     220     220      38      38      38       0
   -------------------------------------------------------

  ==> Integral Setup <==

  Using integral reordering PK algorithm.
  Sizing the integral batches needed.
  Building batch lookup table.
   Calculation information:
      Number of atoms:                  26
      Number of AO shells:             108
      Number of primitives:            300
      Number of atomic orbitals:       230
      Number of basis functions:       220

      Integral cutoff                 1.00e-12
      Number of threads:                 1

	Batch   1 pq = [       0,    9405] index = [             0,44231715] size =     44231715
	Batch   2 pq = [    9405,   13301] index = [      44231715,88464951] size =     44233236
	Batch   3 pq = [   13301,   16290] index = [      88464951,132690195] size =     44225244
	Batch   4 pq = [   16290,   18810] index = [     132690195,176917455] size =     44227260
	Batch   5 pq = [   18810,   21030] index = [     176917455,221140965] size =     44223510
	Batch   6 pq = [   21030,   23037] index = [     221140965,265363203] size =     44222238
	Batch   7 pq = [   23037,   24310] index = [     265363203,295500205] size =     30137002
  Task number: 27
  Buffer size: 11059200
  Buffer per thread: 2
  We computed 14282333 shell quartets total.
  Whereas there are 17325441 unique shell quartets.

  ==> DiskJK: Disk-Based J/K Matrices <==

    J tasked:                  Yes
    K tasked:                  Yes
    wK tasked:                  No
    Memory [MiB]:              375
    Schwarz Cutoff:          1E-12

    OpenMP threads:              1

  Minimum eigenvalue in the overlap matrix is 3.3058145079E-04.
  Using Symmetric Orthogonalization.

  SCF Guess: Superposition of Atomic Densities via on-the-fly atomic UHF.

  ==> Iterations <==

                        Total Energy        Delta E     RMS |[F,P]|

   @RHF iter SAD:  -386.69981242242045   -3.86700e+02   0.00000e+00
   @RHF iter   1:  -387.77700420803012   -1.07719e+00   2.70736e-03 DIIS
   @RHF iter   2:  -387.99129230720166   -2.14288e-01   1.12149e-03 DIIS
   @RHF iter   3:  -388.02457920953759   -3.32869e-02   2.46151e-04 DIIS
   @RHF iter   4:  -388.02739638700041   -2.81718e-03   4.99179e-05 DIIS
   @RHF iter   5:  -388.02747935360225   -8.29666e-05   1.58960e-05 DIIS
   @RHF iter   6:  -388.02748742247098   -8.06887e-06   4.70173e-06 DIIS
   @RHF iter   7:  -388.02748824843519   -8.25964e-07   1.30974e-06 DIIS
   @RHF iter   8:  -388.02748833880406   -9.03689e-08   4.08465e-07 DIIS
   @RHF iter   9:  -388.02748835934443   -2.05404e-08   1.89381e-07 DIIS
   @RHF iter  10:  -388.02748836507487   -5.73044e-09   9.18643e-08 DIIS
   @RHF iter  11:  -388.02748836638807   -1.31320e-09   3.00040e-08 DIIS
   @RHF iter  12:  -388.02748836650778   -1.19712e-10   1.03743e-08 DIIS
   @RHF iter  13:  -388.02748836651170   -3.92220e-12   4.57378e-09 DIIS
   @RHF iter  14:  -388.02748836651290   -1.19371e-12   1.37281e-09 DIIS
   @RHF iter  15:  -388.02748836651307   -1.70530e-13   5.90980e-10 DIIS
   @RHF iter  16:  -388.02748836651546   -2.38742e-12   3.01475e-10 DIIS
   @RHF iter  17:  -388.02748836651546    0.00000e+00   9.95715e-11 DIIS
  Energy and wave function converged.

  ==> Post-Iterations <==

    Orbital Energies [Eh]
    ---------------------

    Doubly Occupied:

       1A    -11.243898     2A    -11.239686     3A    -11.237152
       4A    -11.233440     5A    -11.232997     6A    -11.232861
       7A    -11.228638     8A    -11.217639     9A    -11.215291
      10A    -11.213666    11A     -1.146864    12A     -1.042942
      13A     -1.041860    14A     -1.008034    15A     -0.931234
      16A     -0.919700    17A     -0.823419    18A     -0.796200
      19A     -0.792826    20A     -0.689044    21A     -0.631814
      22A     -0.628441    23A     -0.618209    24A     -0.588625
      25A     -0.580670    26A     -0.577152    27A     -0.561984
      28A     -0.545146    29A     -0.537876    30A     -0.528581
      31A     -0.487002    32A     -0.485556    33A     -0.479404
      34A     -0.473946    35A     -0.463074    36A     -0.456954
      37A     -0.329663    38A     -0.320606

    Virtual:

      39A      0.131741    40A      0.140238    41A      0.171302
      42A      0.192669    43A      0.200996    44A      0.210651
      45A      0.223337    46A      0.236586    47A      0.250330
      48A      0.251872    49A      0.258145    50A      0.269854
      51A      0.275055    52A      0.284956    53A      0.290498
      54A      0.303513    55A      0.305254    56A      0.320298
      57A      0.360105    58A      0.372884    59A      0.374636
      60A      0.416830    61A      0.451046    62A      0.462556
      63A      0.473576    64A      0.493110    65A      0.560120
      66A      0.578486    67A      0.592905    68A      0.603860
      69A      0.613101    70A      0.628309    71A      0.634317
      72A      0.644118    73A      0.676093    74A      0.687496
      75A      0.707579    76A      0.717476    77A      0.737931
      78A      0.738878    79A      0.745521    80A      0.756111
      81A      0.761065    82A      0.777569    83A      0.789899
      84A      0.805630    85A      0.815302    86A      0.834384
      87A      0.841086    88A      0.862857    89A      0.865069
      90A      0.876986    91A      0.887766    92A      0.892840
      93A      0.894149    94A      0.898954    95A      0.903365
      96A      0.904788    97A      0.908628    98A      0.910857
      99A      0.917734   100A      0.925212   101A      0.935338
     102A      0.945063   103A      0.969036   104A      0.976166
     105A      0.982122   106A      1.004406   107A      1.037129
     108A      1.056455   109A      1.117573   110A      1.123691
     111A      1.132834   112A      1.135850   113A      1.152331
     114A      1.163928   115A      1.184841   116A      1.212632
     117A      1.232084   118A      1.244369   119A      1.251418
     120A      1.257713   121A      1.291983   122A      1.299123
     123A      1.315289   124A      1.320455   125A      1.379743
     126A      1.410793   127A      1.456940   128A      1.481195
     129A      1.506542   130A      1.513530   131A      1.532789
     132A      1.559934   133A      1.599574   134A      1.645201
     135A      1.672112   136A      1.679098   137A      1.694032
     138A      1.697780   139A      1.713375   140A      1.731027
     141A      1.740674   142A      1.759050   143A      1.785581
     144A      1.806052   145A      1.845283   146A      1.854699
     147A      1.874634   148A      1.885919   149A      1.888118
     150A      1.889815   151A      1.905274   152A      1.910152
     153A      1.914255   154A      1.922037   155A      1.925210
     156A      1.939748   157A      1.945788   158A      1.955678
     159A      1.960414   160A      1.968055   161A      1.968270
     162A      1.982709   163A      1.987279   164A      1.993392
     165A      1.996572   166A      2.015605   167A      2.032195
     168A      2.052148   169A      2.059291   170A      2.073831
     171A      2.102619   172A      2.122514   173A      2.135676
     174A      2.150374   175A      2.153862   176A      2.160536
     177A      2.163212   178A      2.181217   179A      2.245262
     180A      2.270877   181A      2.280900   182A      2.286708
     183A      2.295082   184A      2.303897   185A      2.319302
     186A      2.325495   187A      2.330150   188A      2.349341
     189A      2.457674   190A      2.466546   191A      2.477557
     192A      2.500121   193A      2.532044   194A      2.539922
     195A      2.578550   196A      2.602931   197A      2.617954
     198A      2.639581   199A      2.732734   200A      2.748799
     201A      2.753345   202A      2.772085   203A      2.775630
     204A      2.778192   205A      2.789844   206A      2.802038
     207A      2.825209   208A      2.844942   209A      2.882199
     210A      2.906339   211A      2.952309   212A      2.961265
     213A      2.969897   214A      3.001429   215A      3.018679
     216A      3.078709   217A      3.139434   218A      3.186220
     219A      3.276665   220A      3.935555

    Final Occupation by Irrep:
              A
    DOCC [    38 ]

  @RHF Final Energy:  -388.02748836651546

   => Energetics <=

    Nuclear Repulsion Energy =            477.0480218485184878
    One-Electron Energy =               -1468.5868317319404923
    Two-Electron Energy =                 603.5113215169064915
    Total Energy =                       -388.0274883665155130

Computation Completed

Properties will be evaluated at   0.000000,   0.000000,   0.000000 [a0]

Properties computed using the SCF density matrix

  Nuclear Dipole Moment: [e a0]
     X:     6.5688      Y:     5.1550      Z:    10.0165

  Electronic Dipole Moment: [e a0]
     X:    -6.5739      Y:    -5.1151      Z:   -10.1942

  Dipole Moment: [e a0]
     X:    -0.0051      Y:     0.0399      Z:    -0.1777     Total:     0.1822

  Dipole Moment: [D]
     X:    -0.0130      Y:     0.1014      Z:    -0.4518     Total:     0.4632

*** tstop() called on ds3 at Tue Apr 28 11:34:29 2020
Module time:
	user time   =     101.86 seconds =       1.70 minutes
	system time =      43.93 seconds =       0.73 minutes
	total time  =        157 seconds =       2.62 minutes
Total time:
	user time   =     101.86 seconds =       1.70 minutes
	system time =      43.93 seconds =       0.73 minutes
	total time  =        157 seconds =       2.62 minutes
                                     G D M A

                                 by Anthony Stone

                           version 2.2.06, 22 June 2011

               Distributed Multipoles from Gaussian wavefunctions

Starting at 11:34:29 on 28 Apr 2020

Using SCF density matrix from file ./SSI/SSI-018ILE-055PHE-1-dimer.test.22917.fchk

                         Distributed Multipole Analysis

Standard DMA

Positions and radii in angstrom
Multipole moments in atomic units, ea_0^k for rank k

C          x =  1.484852  y =  0.359518  z =  2.664665 angstrom
           Maximum rank =  0   Radius =  0.650 angstrom
                   Q00  =  -0.088546

C          x =  2.431852  y =  1.561518  z =  2.711665 angstrom
           Maximum rank =  0   Radius =  0.650 angstrom
                   Q00  =  -0.244284

C          x =  0.648852  y =  0.190518  z =  3.980665 angstrom
           Maximum rank =  0   Radius =  0.650 angstrom
                   Q00  =  -0.255277

H          x =  0.801852  y =  0.475518  z =  1.821665 angstrom
           Maximum rank =  0   Radius =  0.325 angstrom
                   Q00  =   0.067101

H          x =  2.033852  y = -0.570482  z =  2.526665 angstrom
           Maximum rank =  0   Radius =  0.325 angstrom
                   Q00  =   0.043977

H          x =  2.945852  y =  1.536518  z =  3.674665 angstrom
           Maximum rank =  0   Radius =  0.325 angstrom
                   Q00  =   0.069482

H          x =  0.033852  y =  1.070518  z =  4.151665 angstrom
           Maximum rank =  0   Radius =  0.325 angstrom
                   Q00  =   0.080405

H          x = -0.001148  y = -0.679482  z =  3.890665 angstrom
           Maximum rank =  0   Radius =  0.325 angstrom
                   Q00  =   0.084670

H          x =  1.318852  y =  0.043518  z =  4.827665 angstrom
           Maximum rank =  0   Radius =  0.325 angstrom
                   Q00  =   0.076983

H          x =  3.195142  y =  1.469298  z =  1.924969 angstrom
           Maximum rank =  0   Radius =  0.325 angstrom
                   Q00  =   0.080584

H          x =  1.916832  y =  2.530718  z =  2.638091 angstrom
           Maximum rank =  0   Radius =  0.325 angstrom
                   Q00  =   0.083702

C          x = -0.332148  y =  1.267518  z = -3.317335 angstrom
           Maximum rank =  0   Radius =  0.650 angstrom
                   Q00  =  -0.200684

C          x =  0.267852  y = -1.168482  z = -0.447335 angstrom
           Maximum rank =  0   Radius =  0.650 angstrom
                   Q00  =   0.027283

C          x =  0.506852  y = -0.230482  z = -1.451335 angstrom
           Maximum rank =  0   Radius =  0.650 angstrom
                   Q00  =  -0.096809

C          x = -1.030148  y = -1.587482  z = -0.142335 angstrom
           Maximum rank =  0   Radius =  0.650 angstrom
                   Q00  =  -0.101521

C          x = -0.575148  y =  0.304518  z = -2.179335 angstrom
           Maximum rank =  0   Radius =  0.650 angstrom
                   Q00  =  -0.100565

C          x = -2.117148  y = -1.051482  z = -0.847335 angstrom
           Maximum rank =  0   Radius =  0.650 angstrom
                   Q00  =  -0.073071

C          x = -1.874148  y = -0.107482  z = -1.869335 angstrom
           Maximum rank =  0   Radius =  0.650 angstrom
                   Q00  =  -0.075530

H          x =  1.101852  y = -1.580482  z =  0.106665 angstrom
           Maximum rank =  0   Radius =  0.325 angstrom
                   Q00  =   0.066030

H          x =  1.520852  y =  0.071518  z = -1.674335 angstrom
           Maximum rank =  0   Radius =  0.325 angstrom
                   Q00  =   0.059576

H          x = -1.211148  y = -2.331482  z =  0.612665 angstrom
           Maximum rank =  0   Radius =  0.325 angstrom
                   Q00  =   0.063054

H          x = -3.126148  y = -1.372482  z = -0.626335 angstrom
           Maximum rank =  0   Radius =  0.325 angstrom
                   Q00  =   0.069924

H          x =  0.440852  y =  1.948518  z = -3.016335 angstrom
           Maximum rank =  0   Radius =  0.325 angstrom
                   Q00  =   0.101727

H          x = -1.239148  y =  1.844518  z = -3.504335 angstrom
           Maximum rank =  0   Radius =  0.325 angstrom
                   Q00  =   0.098300

H          x = -2.712148  y =  0.283518  z = -2.430335 angstrom
           Maximum rank =  0   Radius =  0.325 angstrom
                   Q00  =   0.058735

H          x = -0.013118  y =  0.759088  z = -4.239136 angstrom
           Maximum rank =  0   Radius =  0.325 angstrom
                   Q00  =   0.104752

Total multipoles referred to origin at
           x =   0.000000,  y =    0.000000,  z =    0.000000 angstrom
                   Q00  =  -0.000000

Finished at 11:34:29 on 28 Apr 2020

  DMA results are available in the Python driver through the
	  variable('DMA DISTRIBUTED MULTIPOLES')
  and
	  variable('DMA TOTAL MULTIPOLES')
  commands.

    Psi4 stopped on: Tuesday, 28 April 2020 11:34AM
    Psi4 wall time for execution: 0:02:37.67

*** Psi4 exiting successfully. Buy a developer a beer!
