                               Psi4 1.3.2 release

  ==> Input File <==

--------------------------------------------------------------------------
import numpy as np
set {scf_type pk
basis cc-pvdz
d_convergence 10
gdma_switch   0
gdma_limit    0
gdma_origin   [ 0.0,  0.0,  0.0 ]
}
molecule test {
    units Angstrom
    0 1
    --
    0 1
    C               -2.249657023530390     1.601240515195283    -3.954018790218440
    C               -1.324657023530389     0.476240515195283     0.100981209781560
    C               -1.259657023530389     1.807240515195283    -0.288018790218440
    C               -1.686657023530389    -0.506759484804717    -0.804018790218440
    C               -1.551657023530389     2.159240515195283    -1.605018790218440
    C               -1.973657023530389    -0.148759484804717    -2.127018790218441
    C               -1.922657023530389     1.189240515195283    -2.539018790218440
    O               -1.033657023530389     0.133240515195283     1.386981209781560
    H               -0.825657023530389     0.904240515195283     1.927981209781559
    H               -0.968657023530389     2.569240515195283     0.422981209781560
    H               -1.738657023530390    -1.537759484804717    -0.483018790218440
    H               -1.474657023530390     3.193240515195283    -1.905018790218441
    H               -2.263657023530389    -0.916759484804717    -2.831018790218441
    H               -1.874657023530389     2.614240515195283    -4.082018790218441
    H               -1.602657023530390     0.984240515195283    -4.600018790218440
    H               -3.327824023530389     1.636510515195283    -4.169218790218441
    C                3.301342976469611    -2.658759484804717     3.032981209781559
    C                3.003342976469611    -1.472759484804717     2.124981209781560
    O                3.801342976469611    -0.520759484804717     2.016981209781560
    N                1.789342976469610    -1.485759484804717     1.533981209781560
    H                1.545342976469610    -0.706759484804717     0.937981209781560
    H                1.130342976469610    -2.227759484804717     1.713981209781560
    H                2.562342976469611    -3.444759484804717     2.873981209781560
    H                3.177342976469611    -2.323759484804717     4.063981209781559
    H                4.313352976469611    -3.076349484804717     2.925981209781559

}
e, wfn = energy('scf', return_wfn=True)
gdma(wfn)
dmavals = variable('DMA DISTRIBUTED MULTIPOLES')
charges = np.array(dmavals)
print(charges)
np.save('SSI-003TYR-030GLN-1-dimer.npy', np.array(charges))--------------------------------------------------------------------------

*** tstart() called on ds3
*** at Mon Apr 27 11:14:17 2020

   => Loading Basis Set <=

    Name: CC-PVDZ
    Role: ORBITAL
    Keyword: BASIS
    atoms 1-7, 17-18  entry C          line   138 file /theoryfs2/ds/metcalf/miniconda2/envs/tf2gpu/share/psi4/basis/cc-pvdz.gbs
    atoms 8, 19       entry O          line   198 file /theoryfs2/ds/metcalf/miniconda2/envs/tf2gpu/share/psi4/basis/cc-pvdz.gbs
    atoms 9-16, 21-25 entry H          line    22 file /theoryfs2/ds/metcalf/miniconda2/envs/tf2gpu/share/psi4/basis/cc-pvdz.gbs
    atoms 20          entry N          line   168 file /theoryfs2/ds/metcalf/miniconda2/envs/tf2gpu/share/psi4/basis/cc-pvdz.gbs

         ---------------------------------------------------------
                                   SCF
               by Justin Turney, Rob Parrish, Andy Simmonett
                          and Daniel G. A. Smith
                              RHF Reference
                        1 Threads,    500 MiB Core
         ---------------------------------------------------------

  ==> Geometry <==

    Molecular point group: c1
    Full point group: C1

    Geometry (in Angstrom), charge = 0, multiplicity = 1:

       Center              X                  Y                   Z               Mass
    ------------   -----------------  -----------------  -----------------  -----------------
         C           -2.249657023530     1.601240515195    -3.954018790218    12.000000000000
         C           -1.324657023530     0.476240515195     0.100981209782    12.000000000000
         C           -1.259657023530     1.807240515195    -0.288018790218    12.000000000000
         C           -1.686657023530    -0.506759484805    -0.804018790218    12.000000000000
         C           -1.551657023530     2.159240515195    -1.605018790218    12.000000000000
         C           -1.973657023530    -0.148759484805    -2.127018790218    12.000000000000
         C           -1.922657023530     1.189240515195    -2.539018790218    12.000000000000
         O           -1.033657023530     0.133240515195     1.386981209782    15.994914619570
         H           -0.825657023530     0.904240515195     1.927981209782     1.007825032230
         H           -0.968657023530     2.569240515195     0.422981209782     1.007825032230
         H           -1.738657023530    -1.537759484805    -0.483018790218     1.007825032230
         H           -1.474657023530     3.193240515195    -1.905018790218     1.007825032230
         H           -2.263657023530    -0.916759484805    -2.831018790218     1.007825032230
         H           -1.874657023530     2.614240515195    -4.082018790218     1.007825032230
         H           -1.602657023530     0.984240515195    -4.600018790218     1.007825032230
         H           -3.327824023530     1.636510515195    -4.169218790218     1.007825032230
         C            3.301342976470    -2.658759484805     3.032981209782    12.000000000000
         C            3.003342976470    -1.472759484805     2.124981209782    12.000000000000
         O            3.801342976470    -0.520759484805     2.016981209782    15.994914619570
         N            1.789342976470    -1.485759484805     1.533981209782    14.003074004430
         H            1.545342976470    -0.706759484805     0.937981209782     1.007825032230
         H            1.130342976470    -2.227759484805     1.713981209782     1.007825032230
         H            2.562342976470    -3.444759484805     2.873981209782     1.007825032230
         H            3.177342976470    -2.323759484805     4.063981209782     1.007825032230
         H            4.313352976470    -3.076349484805     2.925981209782     1.007825032230

  Running in c1 symmetry.

  Rotational constants: A =      0.06502  B =      0.00915  C =      0.00911 [cm^-1]
  Rotational constants: A =   1949.23875  B =    274.35611  C =    272.98098 [MHz]
  Nuclear repulsion =  627.803167602311305

  Charge       = 0
  Multiplicity = 1
  Electrons    = 90
  Nalpha       = 45
  Nbeta        = 45

  ==> Algorithm <==

  SCF Algorithm Type is PK.
  DIIS enabled.
  MOM disabled.
  Fractional occupation disabled.
  Guess Type is SAD.
  Energy threshold   = 1.00e-06
  Density threshold  = 1.00e-10
  Integral threshold = 0.00e+00

  ==> Primary Basis <==

  Basis Set: CC-PVDZ
    Blend: CC-PVDZ
    Number of shells: 111
    Number of basis function: 233
    Number of Cartesian functions: 245
    Spherical Harmonics?: true
    Max angular momentum: 2

  ==> Pre-Iterations <==

   -------------------------------------------------------
    Irrep   Nso     Nmo     Nalpha   Nbeta   Ndocc  Nsocc
   -------------------------------------------------------
     A        233     233       0       0       0       0
   -------------------------------------------------------
    Total     233     233      45      45      45       0
   -------------------------------------------------------

  ==> Integral Setup <==

  Using integral reordering PK algorithm.
  Sizing the integral batches needed.
  Building batch lookup table.
   Calculation information:
      Number of atoms:                  25
      Number of AO shells:             111
      Number of primitives:            329
      Number of atomic orbitals:       245
      Number of basis functions:       233

      Integral cutoff                 1.00e-12
      Number of threads:                 1

	Batch   1 pq = [       0,    9405] index = [             0,44231715] size =     44231715
	Batch   2 pq = [    9405,   13301] index = [      44231715,88464951] size =     44233236
	Batch   3 pq = [   13301,   16290] index = [      88464951,132690195] size =     44225244
	Batch   4 pq = [   16290,   18810] index = [     132690195,176917455] size =     44227260
	Batch   5 pq = [   18810,   21030] index = [     176917455,221140965] size =     44223510
	Batch   6 pq = [   21030,   23037] index = [     221140965,265363203] size =     44222238
	Batch   7 pq = [   23037,   24883] index = [     265363203,309594286] size =     44231083
	Batch   8 pq = [   24883,   26601] index = [     309594286,353819901] size =     44225615
	Batch   9 pq = [   26601,   27261] index = [     353819901,371594691] size =     17774790
  Task number: 34
  Buffer size: 11059200
  Buffer per thread: 2
  We computed 13470811 shell quartets total.
  Whereas there are 19322436 unique shell quartets.

  ==> DiskJK: Disk-Based J/K Matrices <==

    J tasked:                  Yes
    K tasked:                  Yes
    wK tasked:                  No
    Memory [MiB]:              375
    Schwarz Cutoff:          1E-12

    OpenMP threads:              1

  Minimum eigenvalue in the overlap matrix is 3.2135284494E-04.
  Using Symmetric Orthogonalization.

  SCF Guess: Superposition of Atomic Densities via on-the-fly atomic UHF.

  ==> Iterations <==

                        Total Energy        Delta E     RMS |[F,P]|

   @RHF iter SAD:  -551.14010520287263   -5.51140e+02   0.00000e+00
   @RHF iter   1:  -552.29086780977377   -1.15076e+00   3.22532e-03 DIIS
   @RHF iter   2:  -552.54488926078159   -2.54021e-01   1.72474e-03 DIIS
   @RHF iter   3:  -552.60784256118791   -6.29533e-02   4.01299e-04 DIIS
   @RHF iter   4:  -552.61278081891408   -4.93826e-03   1.57561e-04 DIIS
   @RHF iter   5:  -552.61359313135688   -8.12312e-04   2.45254e-05 DIIS
   @RHF iter   6:  -552.61363158993731   -3.84586e-05   1.19230e-05 DIIS
   @RHF iter   7:  -552.61363879482587   -7.20489e-06   4.27628e-06 DIIS
   @RHF iter   8:  -552.61364030721882   -1.51239e-06   1.70216e-06 DIIS
   @RHF iter   9:  -552.61364051130749   -2.04089e-07   6.82899e-07 DIIS
   @RHF iter  10:  -552.61364054401361   -3.27061e-08   2.34733e-07 DIIS
   @RHF iter  11:  -552.61364054834053   -4.32692e-09   7.44824e-08 DIIS
   @RHF iter  12:  -552.61364054881108   -4.70550e-10   3.44004e-08 DIIS
   @RHF iter  13:  -552.61364054891476   -1.03682e-10   1.45638e-08 DIIS
   @RHF iter  14:  -552.61364054894216   -2.73985e-11   7.00460e-09 DIIS
   @RHF iter  15:  -552.61364054894989   -7.73070e-12   2.64450e-09 DIIS
   @RHF iter  16:  -552.61364054894921    6.82121e-13   9.87650e-10 DIIS
   @RHF iter  17:  -552.61364054895091   -1.70530e-12   3.48320e-10 DIIS
   @RHF iter  18:  -552.61364054894864    2.27374e-12   9.39374e-11 DIIS
  Energy and wave function converged.

  ==> Post-Iterations <==

    Orbital Energies [Eh]
    ---------------------

    Doubly Occupied:

       1A    -20.593549     2A    -20.498995     3A    -15.580504
       4A    -11.347457     5A    -11.305612     6A    -11.246742
       7A    -11.244798     8A    -11.240340     9A    -11.239828
      10A    -11.239260    11A    -11.239137    12A    -11.234019
      13A     -1.410372    14A     -1.347375    15A     -1.201249
      16A     -1.156557    17A     -1.044689    18A     -1.023715
      19A     -0.993217    20A     -0.931941    21A     -0.851875
      22A     -0.808378    23A     -0.787494    24A     -0.739588
      25A     -0.715965    26A     -0.674291    27A     -0.648505
      28A     -0.644733    29A     -0.611761    30A     -0.600442
      31A     -0.598064    32A     -0.593447    33A     -0.585692
      34A     -0.572845    35A     -0.562054    36A     -0.552838
      37A     -0.526904    38A     -0.509050    39A     -0.498637
      40A     -0.491961    41A     -0.474845    42A     -0.403372
      43A     -0.393499    44A     -0.344634    45A     -0.310228

    Virtual:

      46A      0.121982    47A      0.150541    48A      0.163725
      49A      0.181518    50A      0.183235    51A      0.198642
      52A      0.206745    53A      0.215513    54A      0.228944
      55A      0.244717    56A      0.253184    57A      0.261575
      58A      0.267501    59A      0.284071    60A      0.291762
      61A      0.296677    62A      0.363049    63A      0.364975
      64A      0.381676    65A      0.425072    66A      0.442150
      67A      0.461956    68A      0.471899    69A      0.490245
      70A      0.507955    71A      0.568245    72A      0.602748
      73A      0.624792    74A      0.638464    75A      0.644679
      76A      0.654836    77A      0.667757    78A      0.677580
      79A      0.692088    80A      0.694560    81A      0.702640
      82A      0.723369    83A      0.723956    84A      0.728225
      85A      0.735692    86A      0.740714    87A      0.752962
      88A      0.756467    89A      0.774417    90A      0.780284
      91A      0.814440    92A      0.821992    93A      0.836608
      94A      0.845921    95A      0.859470    96A      0.862263
      97A      0.874294    98A      0.879843    99A      0.888335
     100A      0.891465   101A      0.897238   102A      0.910451
     103A      0.916821   104A      0.924199   105A      0.937588
     106A      0.941153   107A      0.955925   108A      0.996837
     109A      0.999315   110A      1.018616   111A      1.034066
     112A      1.055962   113A      1.063957   114A      1.108428
     115A      1.123187   116A      1.134971   117A      1.138808
     118A      1.146646   119A      1.165102   120A      1.198401
     121A      1.229423   122A      1.237424   123A      1.254428
     124A      1.290613   125A      1.296081   126A      1.300327
     127A      1.313678   128A      1.342400   129A      1.350822
     130A      1.355675   131A      1.367446   132A      1.381499
     133A      1.386037   134A      1.415987   135A      1.420089
     136A      1.433933   137A      1.474317   138A      1.478422
     139A      1.488016   140A      1.538051   141A      1.544205
     142A      1.602554   143A      1.618501   144A      1.634223
     145A      1.665773   146A      1.667604   147A      1.683367
     148A      1.715853   149A      1.722062   150A      1.734234
     151A      1.774198   152A      1.792784   153A      1.807295
     154A      1.836000   155A      1.860687   156A      1.867144
     157A      1.875206   158A      1.878442   159A      1.883690
     160A      1.891974   161A      1.901689   162A      1.905324
     163A      1.914080   164A      1.922111   165A      1.939183
     166A      1.942040   167A      1.955389   168A      1.963995
     169A      1.991842   170A      2.001497   171A      2.018040
     172A      2.041738   173A      2.051906   174A      2.054752
     175A      2.059759   176A      2.064673   177A      2.074548
     178A      2.109003   179A      2.138993   180A      2.150335
     181A      2.167626   182A      2.194506   183A      2.218410
     184A      2.222922   185A      2.252073   186A      2.264158
     187A      2.282465   188A      2.295757   189A      2.311957
     190A      2.375276   191A      2.416052   192A      2.423427
     193A      2.439172   194A      2.443830   195A      2.455716
     196A      2.464491   197A      2.479290   198A      2.500595
     199A      2.533822   200A      2.552256   201A      2.579775
     202A      2.609681   203A      2.640082   204A      2.643493
     205A      2.731263   206A      2.740679   207A      2.763806
     208A      2.769956   209A      2.794467   210A      2.796829
     211A      2.806960   212A      2.815878   213A      2.842225
     214A      2.902926   215A      2.950719   216A      2.956495
     217A      2.997746   218A      3.078707   219A      3.080791
     220A      3.092036   221A      3.124664   222A      3.238724
     223A      3.265504   224A      3.297467   225A      3.335997
     226A      3.473735   227A      3.531969   228A      3.570279
     229A      3.666085   230A      3.828536   231A      3.879081
     232A      3.961683   233A      4.181692

    Final Occupation by Irrep:
              A
    DOCC [    45 ]

  @RHF Final Energy:  -552.61364054894864

   => Energetics <=

    Nuclear Repulsion Energy =            627.8031676023113050
    One-Electron Energy =               -1997.5926983327610742
    Two-Electron Energy =                 817.1758901815011313
    Total Energy =                       -552.6136405489486378

Computation Completed

Properties will be evaluated at   0.000000,   0.000000,   0.000000 [a0]

Properties computed using the SCF density matrix

  Nuclear Dipole Moment: [e a0]
     X:    -1.2553      Y:    -2.1839      Z:    -2.9912

  Electronic Dipole Moment: [e a0]
     X:    -0.1135      Y:     1.7552      Z:     2.8645

  Dipole Moment: [e a0]
     X:    -1.3688      Y:    -0.4287      Z:    -0.1267     Total:     1.4400

  Dipole Moment: [D]
     X:    -3.4792      Y:    -1.0896      Z:    -0.3221     Total:     3.6600

*** tstop() called on ds3 at Mon Apr 27 11:31:40 2020
Module time:
	user time   =     109.95 seconds =       1.83 minutes
	system time =      61.82 seconds =       1.03 minutes
	total time  =       1043 seconds =      17.38 minutes
Total time:
	user time   =     109.95 seconds =       1.83 minutes
	system time =      61.82 seconds =       1.03 minutes
	total time  =       1043 seconds =      17.38 minutes
                                     G D M A

                                 by Anthony Stone

                           version 2.2.06, 22 June 2011

               Distributed Multipoles from Gaussian wavefunctions

Starting at 11:31:40 on 27 Apr 2020

Using SCF density matrix from file ./SSI/SSI-003TYR-030GLN-1-dimer.test.2892.fchk

                         Distributed Multipole Analysis

Standard DMA

Positions and radii in angstrom
Multipole moments in atomic units, ea_0^k for rank k

C          x = -2.249657  y =  1.601241  z = -3.954019 angstrom
           Maximum rank =  0   Radius =  0.650 angstrom
                   Q00  =  -0.166275

C          x = -1.324657  y =  0.476241  z =  0.100981 angstrom
           Maximum rank =  0   Radius =  0.650 angstrom
                   Q00  =   0.369374

C          x = -1.259657  y =  1.807241  z = -0.288019 angstrom
           Maximum rank =  0   Radius =  0.650 angstrom
                   Q00  =  -0.176921

C          x = -1.686657  y = -0.506759  z = -0.804019 angstrom
           Maximum rank =  0   Radius =  0.650 angstrom
                   Q00  =  -0.115575

C          x = -1.551657  y =  2.159241  z = -1.605019 angstrom
           Maximum rank =  0   Radius =  0.650 angstrom
                   Q00  =  -0.054646

C          x = -1.973657  y = -0.148759  z = -2.127019 angstrom
           Maximum rank =  0   Radius =  0.650 angstrom
                   Q00  =  -0.010566

C          x = -1.922657  y =  1.189241  z = -2.539019 angstrom
           Maximum rank =  0   Radius =  0.650 angstrom
                   Q00  =  -0.142470

O          x = -1.033657  y =  0.133241  z =  1.386981 angstrom
           Maximum rank =  0   Radius =  0.650 angstrom
                   Q00  =  -0.681671

H          x = -0.825657  y =  0.904241  z =  1.927981 angstrom
           Maximum rank =  0   Radius =  0.325 angstrom
                   Q00  =   0.413262

H          x = -0.968657  y =  2.569241  z =  0.422981 angstrom
           Maximum rank =  0   Radius =  0.325 angstrom
                   Q00  =   0.075210

H          x = -1.738657  y = -1.537759  z = -0.483019 angstrom
           Maximum rank =  0   Radius =  0.325 angstrom
                   Q00  =   0.077268

H          x = -1.474657  y =  3.193241  z = -1.905019 angstrom
           Maximum rank =  0   Radius =  0.325 angstrom
                   Q00  =   0.072695

H          x = -2.263657  y = -0.916759  z = -2.831019 angstrom
           Maximum rank =  0   Radius =  0.325 angstrom
                   Q00  =   0.066209

H          x = -1.874657  y =  2.614241  z = -4.082019 angstrom
           Maximum rank =  0   Radius =  0.325 angstrom
                   Q00  =   0.092948

H          x = -1.602657  y =  0.984241  z = -4.600019 angstrom
           Maximum rank =  0   Radius =  0.325 angstrom
                   Q00  =   0.086329

H          x = -3.327824  y =  1.636511  z = -4.169219 angstrom
           Maximum rank =  0   Radius =  0.325 angstrom
                   Q00  =   0.097343

C          x =  3.301343  y = -2.658759  z =  3.032981 angstrom
           Maximum rank =  0   Radius =  0.650 angstrom
                   Q00  =  -0.264368

C          x =  3.003343  y = -1.472759  z =  2.124981 angstrom
           Maximum rank =  0   Radius =  0.650 angstrom
                   Q00  =   0.807296

O          x =  3.801343  y = -0.520759  z =  2.016981 angstrom
           Maximum rank =  0   Radius =  0.650 angstrom
                   Q00  =  -0.788573

N          x =  1.789343  y = -1.485759  z =  1.533981 angstrom
           Maximum rank =  0   Radius =  0.650 angstrom
                   Q00  =  -0.536112

H          x =  1.545343  y = -0.706759  z =  0.937981 angstrom
           Maximum rank =  0   Radius =  0.325 angstrom
                   Q00  =   0.230349

H          x =  1.130343  y = -2.227759  z =  1.713981 angstrom
           Maximum rank =  0   Radius =  0.325 angstrom
                   Q00  =   0.212503

H          x =  2.562343  y = -3.444759  z =  2.873981 angstrom
           Maximum rank =  0   Radius =  0.325 angstrom
                   Q00  =   0.073340

H          x =  3.177343  y = -2.323759  z =  4.063981 angstrom
           Maximum rank =  0   Radius =  0.325 angstrom
                   Q00  =   0.130416

H          x =  4.313353  y = -3.076349  z =  2.925981 angstrom
           Maximum rank =  0   Radius =  0.325 angstrom
                   Q00  =   0.132635

Total multipoles referred to origin at
           x =   0.000000,  y =    0.000000,  z =    0.000000 angstrom
                   Q00  =  -0.000000

Finished at 11:31:40 on 27 Apr 2020

  DMA results are available in the Python driver through the
	  variable('DMA DISTRIBUTED MULTIPOLES')
  and
	  variable('DMA TOTAL MULTIPOLES')
  commands.

    Psi4 stopped on: Monday, 27 April 2020 11:31AM
    Psi4 wall time for execution: 0:17:23.05

*** Psi4 exiting successfully. Buy a developer a beer!
