                               Psi4 1.3.2 release

  ==> Input File <==

--------------------------------------------------------------------------
import numpy as np
set {scf_type pk
basis cc-pvdz
d_convergence 10
gdma_switch   0
gdma_limit    0
gdma_origin   [ 0.0,  0.0,  0.0 ]
}
molecule test {
    units Angstrom
    0 1
    --
    0 1
    C               -1.315587908658873    -2.286036724412906     0.584736951402504
    C               -2.631587908658873    -2.711036724412907    -0.041263048597496
    C               -1.442587908658873    -2.208036724412907     2.107736951402505
    H               -0.521587908658873    -2.982036724412907     0.326736951402504
    H               -1.028587908658873    -1.302036724412907     0.211736951402504
    H               -3.448587908658873    -2.203036724412907     0.469736951402504
    H               -1.927587908658873    -3.110036724412907     2.474736951402505
    H               -2.807807908658873    -3.793631724412907     0.042016951402504
    H               -2.693667908658873    -2.363090724412907    -1.082933048597496
    H               -0.427577908658873    -2.173641724412907     2.530306951402504
    H               -2.034857908658873    -1.330765724412907     2.407096951402504
    C                3.066412091341127     0.390963275587093     0.387736951402504
    C               -0.173587908658873     0.639963275587093    -1.678263048597495
    C                1.093412091341127     0.194963275587093    -1.165263048597496
    C               -0.807587908658873     1.728963275587093    -1.055263048597495
    C                1.718412091341127     0.851963275587093    -0.100263048597496
    C               -0.188587908658873     2.384963275587094     0.031736951402504
    C                1.073412091341127     1.950963275587093     0.490736951402504
    H               -0.643587908658873     0.129963275587093    -2.508263048597495
    H                1.564412091341127    -0.663036724412907    -1.621263048597495
    H               -1.767587908658873     2.086963275587093    -1.385263048597495
    H               -0.684587908658873     3.195963275587093     0.537736951402504
    H                2.948412091341127    -0.572036724412907     0.885736951402504
    H                3.451412091341127     1.099963275587094     1.117736951402505
    H                1.552412091341127     2.529963275587094     1.229736951402504
    H                3.800462091341128     0.286301275587093    -0.424803048597496

}
e, wfn = energy('scf', return_wfn=True)
gdma(wfn)
dmavals = variable('DMA DISTRIBUTED MULTIPOLES')
charges = np.array(dmavals)
print(charges)
np.save('SSI-176LEU-214PHE-1-dimer.npy', np.array(charges))--------------------------------------------------------------------------

*** tstart() called on ds3
*** at Mon Apr 27 06:50:01 2020

   => Loading Basis Set <=

    Name: CC-PVDZ
    Role: ORBITAL
    Keyword: BASIS
    atoms 1-3, 12-18  entry C          line   138 file /theoryfs2/ds/metcalf/miniconda2/envs/tf2gpu/share/psi4/basis/cc-pvdz.gbs
    atoms 4-11, 19-26 entry H          line    22 file /theoryfs2/ds/metcalf/miniconda2/envs/tf2gpu/share/psi4/basis/cc-pvdz.gbs

         ---------------------------------------------------------
                                   SCF
               by Justin Turney, Rob Parrish, Andy Simmonett
                          and Daniel G. A. Smith
                              RHF Reference
                        1 Threads,    500 MiB Core
         ---------------------------------------------------------

  ==> Geometry <==

    Molecular point group: c1
    Full point group: C1

    Geometry (in Angstrom), charge = 0, multiplicity = 1:

       Center              X                  Y                   Z               Mass
    ------------   -----------------  -----------------  -----------------  -----------------
         C           -1.315587908659    -2.286036724413     0.584736951403    12.000000000000
         C           -2.631587908659    -2.711036724413    -0.041263048597    12.000000000000
         C           -1.442587908659    -2.208036724413     2.107736951403    12.000000000000
         H           -0.521587908659    -2.982036724413     0.326736951403     1.007825032230
         H           -1.028587908659    -1.302036724413     0.211736951403     1.007825032230
         H           -3.448587908659    -2.203036724413     0.469736951403     1.007825032230
         H           -1.927587908659    -3.110036724413     2.474736951403     1.007825032230
         H           -2.807807908659    -3.793631724413     0.042016951403     1.007825032230
         H           -2.693667908659    -2.363090724413    -1.082933048597     1.007825032230
         H           -0.427577908659    -2.173641724413     2.530306951403     1.007825032230
         H           -2.034857908659    -1.330765724413     2.407096951403     1.007825032230
         C            3.066412091341     0.390963275587     0.387736951403    12.000000000000
         C           -0.173587908659     0.639963275587    -1.678263048597    12.000000000000
         C            1.093412091341     0.194963275587    -1.165263048597    12.000000000000
         C           -0.807587908659     1.728963275587    -1.055263048597    12.000000000000
         C            1.718412091341     0.851963275587    -0.100263048597    12.000000000000
         C           -0.188587908659     2.384963275587     0.031736951403    12.000000000000
         C            1.073412091341     1.950963275587     0.490736951403    12.000000000000
         H           -0.643587908659     0.129963275587    -2.508263048597     1.007825032230
         H            1.564412091341    -0.663036724413    -1.621263048597     1.007825032230
         H           -1.767587908659     2.086963275587    -1.385263048597     1.007825032230
         H           -0.684587908659     3.195963275587     0.537736951403     1.007825032230
         H            2.948412091341    -0.572036724413     0.885736951403     1.007825032230
         H            3.451412091341     1.099963275587     1.117736951403     1.007825032230
         H            1.552412091341     2.529963275587     1.229736951403     1.007825032230
         H            3.800462091341     0.286301275587    -0.424803048597     1.007825032230

  Running in c1 symmetry.

  Rotational constants: A =      0.05134  B =      0.02139  C =      0.01882 [cm^-1]
  Rotational constants: A =   1539.18575  B =    641.40077  C =    564.33175 [MHz]
  Nuclear repulsion =  487.809261402163941

  Charge       = 0
  Multiplicity = 1
  Electrons    = 76
  Nalpha       = 38
  Nbeta        = 38

  ==> Algorithm <==

  SCF Algorithm Type is PK.
  DIIS enabled.
  MOM disabled.
  Fractional occupation disabled.
  Guess Type is SAD.
  Energy threshold   = 1.00e-06
  Density threshold  = 1.00e-10
  Integral threshold = 0.00e+00

  ==> Primary Basis <==

  Basis Set: CC-PVDZ
    Blend: CC-PVDZ
    Number of shells: 108
    Number of basis function: 220
    Number of Cartesian functions: 230
    Spherical Harmonics?: true
    Max angular momentum: 2

  ==> Pre-Iterations <==

   -------------------------------------------------------
    Irrep   Nso     Nmo     Nalpha   Nbeta   Ndocc  Nsocc
   -------------------------------------------------------
     A        220     220       0       0       0       0
   -------------------------------------------------------
    Total     220     220      38      38      38       0
   -------------------------------------------------------

  ==> Integral Setup <==

  Using integral reordering PK algorithm.
  Sizing the integral batches needed.
  Building batch lookup table.
   Calculation information:
      Number of atoms:                  26
      Number of AO shells:             108
      Number of primitives:            300
      Number of atomic orbitals:       230
      Number of basis functions:       220

      Integral cutoff                 1.00e-12
      Number of threads:                 1

	Batch   1 pq = [       0,    9405] index = [             0,44231715] size =     44231715
	Batch   2 pq = [    9405,   13301] index = [      44231715,88464951] size =     44233236
	Batch   3 pq = [   13301,   16290] index = [      88464951,132690195] size =     44225244
	Batch   4 pq = [   16290,   18810] index = [     132690195,176917455] size =     44227260
	Batch   5 pq = [   18810,   21030] index = [     176917455,221140965] size =     44223510
	Batch   6 pq = [   21030,   23037] index = [     221140965,265363203] size =     44222238
	Batch   7 pq = [   23037,   24310] index = [     265363203,295500205] size =     30137002
  Task number: 27
  Buffer size: 11059200
  Buffer per thread: 2
  We computed 15829265 shell quartets total.
  Whereas there are 17325441 unique shell quartets.

  ==> DiskJK: Disk-Based J/K Matrices <==

    J tasked:                  Yes
    K tasked:                  Yes
    wK tasked:                  No
    Memory [MiB]:              375
    Schwarz Cutoff:          1E-12

    OpenMP threads:              1

  Minimum eigenvalue in the overlap matrix is 3.5274611372E-04.
  Using Symmetric Orthogonalization.

  SCF Guess: Superposition of Atomic Densities via on-the-fly atomic UHF.

  ==> Iterations <==

                        Total Energy        Delta E     RMS |[F,P]|

   @RHF iter SAD:  -386.70143592612737   -3.86701e+02   0.00000e+00
   @RHF iter   1:  -387.77058069102031   -1.06914e+00   2.71771e-03 DIIS
   @RHF iter   2:  -387.98525522653046   -2.14675e-01   1.13948e-03 DIIS
   @RHF iter   3:  -388.01950010496529   -3.42449e-02   2.49699e-04 DIIS
   @RHF iter   4:  -388.02236446663596   -2.86436e-03   5.59715e-05 DIIS
   @RHF iter   5:  -388.02246319661413   -9.87300e-05   1.82470e-05 DIIS
   @RHF iter   6:  -388.02247360147430   -1.04049e-05   5.10037e-06 DIIS
   @RHF iter   7:  -388.02247455634955   -9.54875e-07   1.19764e-06 DIIS
   @RHF iter   8:  -388.02247463659410   -8.02445e-08   3.88445e-07 DIIS
   @RHF iter   9:  -388.02247465364582   -1.70517e-08   1.96534e-07 DIIS
   @RHF iter  10:  -388.02247465849109   -4.84528e-09   9.64492e-08 DIIS
   @RHF iter  11:  -388.02247466000711   -1.51601e-09   3.36867e-08 DIIS
   @RHF iter  12:  -388.02247466015922   -1.52113e-10   1.51367e-08 DIIS
   @RHF iter  13:  -388.02247466017548   -1.62572e-11   4.86493e-09 DIIS
   @RHF iter  14:  -388.02247466017815   -2.67164e-12   1.43409e-09 DIIS
   @RHF iter  15:  -388.02247466017570    2.44427e-12   6.80634e-10 DIIS
   @RHF iter  16:  -388.02247466017815   -2.44427e-12   3.05085e-10 DIIS
   @RHF iter  17:  -388.02247466017843   -2.84217e-13   1.19606e-10 DIIS
   @RHF iter  18:  -388.02247466017832    1.13687e-13   4.52873e-11 DIIS
  Energy and wave function converged.

  ==> Post-Iterations <==

    Orbital Energies [Eh]
    ---------------------

    Doubly Occupied:

       1A    -11.245141     2A    -11.245037     3A    -11.240539
       4A    -11.237482     5A    -11.237347     6A    -11.233255
       7A    -11.231073     8A    -11.210298     9A    -11.209779
      10A    -11.208179    11A     -1.143433    12A     -1.048375
      13A     -1.042541    14A     -1.004541    15A     -0.930982
      16A     -0.915534    17A     -0.826414    18A     -0.793887
      19A     -0.789994    20A     -0.688954    21A     -0.638379
      22A     -0.625636    23A     -0.619852    24A     -0.587969
      25A     -0.581228    26A     -0.576629    27A     -0.564245
      28A     -0.540368    29A     -0.536647    30A     -0.528280
      31A     -0.491955    32A     -0.482534    33A     -0.480227
      34A     -0.467794    35A     -0.458403    36A     -0.454280
      37A     -0.326117    38A     -0.322243

    Virtual:

      39A      0.126792    40A      0.138350    41A      0.171786
      42A      0.192879    43A      0.197672    44A      0.211974
      45A      0.229787    46A      0.237126    47A      0.246891
      48A      0.249575    49A      0.259690    50A      0.263305
      51A      0.277030    52A      0.287623    53A      0.291758
      54A      0.297173    55A      0.302581    56A      0.330856
      57A      0.357398    58A      0.372803    59A      0.387026
      60A      0.427427    61A      0.441885    62A      0.453603
      63A      0.468483    64A      0.495375    65A      0.566245
      66A      0.591655    67A      0.599696    68A      0.602791
      69A      0.614542    70A      0.623128    71A      0.629871
      72A      0.645192    73A      0.668112    74A      0.690765
      75A      0.707761    76A      0.723317    77A      0.736402
      78A      0.736947    79A      0.742697    80A      0.753781
      81A      0.760336    82A      0.780796    83A      0.785872
      84A      0.815842    85A      0.823600    86A      0.837914
      87A      0.851633    88A      0.856130    89A      0.873033
      90A      0.877008    91A      0.883007    92A      0.889206
      93A      0.893404    94A      0.895174    95A      0.900665
      96A      0.907489    97A      0.917518    98A      0.918385
      99A      0.925223   100A      0.927610   101A      0.935093
     102A      0.941951   103A      0.963388   104A      0.977746
     105A      0.981602   106A      0.997137   107A      1.042332
     108A      1.080666   109A      1.109668   110A      1.121248
     111A      1.127143   112A      1.129713   113A      1.146724
     114A      1.160961   115A      1.191464   116A      1.213344
     117A      1.225339   118A      1.237487   119A      1.251567
     120A      1.282080   121A      1.290569   122A      1.293031
     123A      1.306968   124A      1.327601   125A      1.407118
     126A      1.421279   127A      1.440002   128A      1.481891
     129A      1.506034   130A      1.520408   131A      1.552117
     132A      1.565270   133A      1.597531   134A      1.656435
     135A      1.668112   136A      1.676330   137A      1.688551
     138A      1.698240   139A      1.725354   140A      1.726273
     141A      1.737397   142A      1.750909   143A      1.787766
     144A      1.811180   145A      1.841025   146A      1.849291
     147A      1.865180   148A      1.873447   149A      1.877206
     150A      1.890818   151A      1.897074   152A      1.907037
     153A      1.918080   154A      1.921187   155A      1.928966
     156A      1.935976   157A      1.942690   158A      1.956852
     159A      1.967926   160A      1.970495   161A      1.982375
     162A      1.992183   163A      1.993098   164A      1.998982
     165A      2.011842   166A      2.014519   167A      2.029858
     168A      2.052037   169A      2.056446   170A      2.073727
     171A      2.099916   172A      2.119617   173A      2.132848
     174A      2.147662   175A      2.158049   176A      2.168552
     177A      2.185482   178A      2.197245   179A      2.249550
     180A      2.262119   181A      2.272001   182A      2.273217
     183A      2.294971   184A      2.301706   185A      2.314511
     186A      2.320910   187A      2.353386   188A      2.374353
     189A      2.427436   190A      2.467522   191A      2.487183
     192A      2.500964   193A      2.517252   194A      2.532820
     195A      2.574287   196A      2.621767   197A      2.626694
     198A      2.663054   199A      2.714372   200A      2.741622
     201A      2.760817   202A      2.765364   203A      2.773115
     204A      2.776274   205A      2.789611   206A      2.819767
     207A      2.836665   208A      2.843535   209A      2.857486
     210A      2.908101   211A      2.947867   212A      2.950598
     213A      2.978658   214A      2.986826   215A      3.017716
     216A      3.093737   217A      3.144580   218A      3.180406
     219A      3.269989   220A      3.903803

    Final Occupation by Irrep:
              A
    DOCC [    38 ]

  @RHF Final Energy:  -388.02247466017832

   => Energetics <=

    Nuclear Repulsion Energy =            487.8092614021639406
    One-Electron Energy =               -1490.1323326775559508
    Two-Electron Energy =                 614.3005966152137489
    Total Energy =                       -388.0224746601783181

Computation Completed

Properties will be evaluated at   0.000000,   0.000000,   0.000000 [a0]

Properties computed using the SCF density matrix

  Nuclear Dipole Moment: [e a0]
     X:    -4.3770      Y:   -10.4661      Z:     4.8850

  Electronic Dipole Moment: [e a0]
     X:     4.5673      Y:    10.5268      Z:    -4.8751

  Dipole Moment: [e a0]
     X:     0.1903      Y:     0.0606      Z:     0.0099     Total:     0.2000

  Dipole Moment: [D]
     X:     0.4837      Y:     0.1541      Z:     0.0251     Total:     0.5083

*** tstop() called on ds3 at Mon Apr 27 06:52:40 2020
Module time:
	user time   =     115.12 seconds =       1.92 minutes
	system time =      49.91 seconds =       0.83 minutes
	total time  =        159 seconds =       2.65 minutes
Total time:
	user time   =     115.12 seconds =       1.92 minutes
	system time =      49.91 seconds =       0.83 minutes
	total time  =        159 seconds =       2.65 minutes
                                     G D M A

                                 by Anthony Stone

                           version 2.2.06, 22 June 2011

               Distributed Multipoles from Gaussian wavefunctions

Starting at 6:52:40 on 27 Apr 2020

Using SCF density matrix from file ./SSI/SSI-176LEU-214PHE-1-dimer.test.31757.fchk

                         Distributed Multipole Analysis

Standard DMA

Positions and radii in angstrom
Multipole moments in atomic units, ea_0^k for rank k

C          x = -1.315588  y = -2.286037  z =  0.584737 angstrom
           Maximum rank =  0   Radius =  0.650 angstrom
                   Q00  =  -0.084276

C          x = -2.631588  y = -2.711037  z = -0.041263 angstrom
           Maximum rank =  0   Radius =  0.650 angstrom
                   Q00  =  -0.232986

C          x = -1.442588  y = -2.208037  z =  2.107737 angstrom
           Maximum rank =  0   Radius =  0.650 angstrom
                   Q00  =  -0.244641

H          x = -0.521588  y = -2.982037  z =  0.326737 angstrom
           Maximum rank =  0   Radius =  0.325 angstrom
                   Q00  =   0.041440

H          x = -1.028588  y = -1.302037  z =  0.211737 angstrom
           Maximum rank =  0   Radius =  0.325 angstrom
                   Q00  =   0.070201

H          x = -3.448588  y = -2.203037  z =  0.469737 angstrom
           Maximum rank =  0   Radius =  0.325 angstrom
                   Q00  =   0.069079

H          x = -1.927588  y = -3.110037  z =  2.474737 angstrom
           Maximum rank =  0   Radius =  0.325 angstrom
                   Q00  =   0.068354

H          x = -2.807808  y = -3.793632  z =  0.042017 angstrom
           Maximum rank =  0   Radius =  0.325 angstrom
                   Q00  =   0.078889

H          x = -2.693668  y = -2.363091  z = -1.082933 angstrom
           Maximum rank =  0   Radius =  0.325 angstrom
                   Q00  =   0.074026

H          x = -0.427578  y = -2.173642  z =  2.530307 angstrom
           Maximum rank =  0   Radius =  0.325 angstrom
                   Q00  =   0.076454

H          x = -2.034858  y = -1.330766  z =  2.407097 angstrom
           Maximum rank =  0   Radius =  0.325 angstrom
                   Q00  =   0.080030

C          x =  3.066412  y =  0.390963  z =  0.387737 angstrom
           Maximum rank =  0   Radius =  0.650 angstrom
                   Q00  =  -0.208049

C          x = -0.173588  y =  0.639963  z = -1.678263 angstrom
           Maximum rank =  0   Radius =  0.650 angstrom
                   Q00  =  -0.084083

C          x =  1.093412  y =  0.194963  z = -1.165263 angstrom
           Maximum rank =  0   Radius =  0.650 angstrom
                   Q00  =  -0.023675

C          x = -0.807588  y =  1.728963  z = -1.055263 angstrom
           Maximum rank =  0   Radius =  0.650 angstrom
                   Q00  =  -0.088008

C          x =  1.718412  y =  0.851963  z = -0.100263 angstrom
           Maximum rank =  0   Radius =  0.650 angstrom
                   Q00  =  -0.096730

C          x = -0.188588  y =  2.384963  z =  0.031737 angstrom
           Maximum rank =  0   Radius =  0.650 angstrom
                   Q00  =  -0.079971

C          x =  1.073412  y =  1.950963  z =  0.490737 angstrom
           Maximum rank =  0   Radius =  0.650 angstrom
                   Q00  =  -0.054105

H          x = -0.643588  y =  0.129963  z = -2.508263 angstrom
           Maximum rank =  0   Radius =  0.325 angstrom
                   Q00  =   0.073195

H          x =  1.564412  y = -0.663037  z = -1.621263 angstrom
           Maximum rank =  0   Radius =  0.325 angstrom
                   Q00  =   0.060732

H          x = -1.767588  y =  2.086963  z = -1.385263 angstrom
           Maximum rank =  0   Radius =  0.325 angstrom
                   Q00  =   0.064736

H          x = -0.684588  y =  3.195963  z =  0.537737 angstrom
           Maximum rank =  0   Radius =  0.325 angstrom
                   Q00  =   0.070768

H          x =  2.948412  y = -0.572037  z =  0.885737 angstrom
           Maximum rank =  0   Radius =  0.325 angstrom
                   Q00  =   0.104498

H          x =  3.451412  y =  1.099963  z =  1.117737 angstrom
           Maximum rank =  0   Radius =  0.325 angstrom
                   Q00  =   0.098859

H          x =  1.552412  y =  2.529963  z =  1.229737 angstrom
           Maximum rank =  0   Radius =  0.325 angstrom
                   Q00  =   0.062664

H          x =  3.800462  y =  0.286301  z = -0.424803 angstrom
           Maximum rank =  0   Radius =  0.325 angstrom
                   Q00  =   0.102600

Total multipoles referred to origin at
           x =   0.000000,  y =    0.000000,  z =    0.000000 angstrom
                   Q00  =  -0.000000

Finished at 6:52:40 on 27 Apr 2020

  DMA results are available in the Python driver through the
	  variable('DMA DISTRIBUTED MULTIPOLES')
  and
	  variable('DMA TOTAL MULTIPOLES')
  commands.

    Psi4 stopped on: Monday, 27 April 2020 06:52AM
    Psi4 wall time for execution: 0:02:38.72

*** Psi4 exiting successfully. Buy a developer a beer!
