                               Psi4 1.3.2 release

  ==> Input File <==

--------------------------------------------------------------------------
import numpy as np
set {scf_type pk
basis cc-pvdz
d_convergence 10
gdma_switch   0
gdma_limit    0
gdma_origin   [ 0.0,  0.0,  0.0 ]
}
molecule test {
    units Angstrom
    -1 1
    --
    -1 1
    C                0.896031151042153    -4.197474002004349    -0.877929438368511
    C                0.973031151042154    -0.376474002004349    -0.798929438368511
    C                2.074031151042153    -0.147474002004349    -0.018929438368511
    C                0.589031151042154    -1.676474002004349    -1.052929438368511
    C                1.321031151042154    -2.758474002004349    -0.550929438368511
    C                2.809031151042154    -1.181474002004349     0.482070561631489
    C                2.439031151042153    -2.490474002004349     0.223070561631489
    O                2.508031151042153     1.102525997995651     0.249070561631489
    H                0.435031151042153     0.452525997995651    -1.226929438368511
    H               -0.280968848957847    -1.868474002004349    -1.661929438368511
    H                3.687031151042153    -0.986474002004349     1.079070561631489
    H                3.287031151042153     1.110525997995651     0.809070561631489
    H                1.674031151042153    -4.900474002004350    -0.580929438368511
    H                0.771031151042153    -4.256474002004349    -1.957929438368510
    H                3.030031151042153    -3.302474002004349     0.609070561631489
    H               -0.055620848957847    -4.460743002004349    -0.393112438368511
    C               -2.442968848957846     1.167525997995651    -0.079929438368511
    C               -3.085968848957847     1.566525997995651    -1.407929438368510
    C               -2.397968848957847     2.303525997995651     0.921070561631489
    O               -2.031968848957847     2.071525997995650     2.062070561631490
    O               -2.748968848957847     3.433525997995651     0.588070561631489
    H               -3.058968848957847     0.380525997995651     0.362070561631489
    H               -1.454968848957847     0.738525997995651    -0.220929438368511
    H               -3.950968848957847     2.203525997995651    -1.216929438368511
    H               -3.433418848957847     0.665995997995651    -1.935490438368511
    H               -2.372578848957847     2.119435997995651    -2.036705438368510

}
e, wfn = energy('scf', return_wfn=True)
gdma(wfn)
dmavals = variable('DMA DISTRIBUTED MULTIPOLES')
charges = np.array(dmavals)
print(charges)
np.save('SSI-084TYR-089ASP-1-dimer.npy', np.array(charges))--------------------------------------------------------------------------

*** tstart() called on ds3
*** at Mon Apr 27 07:35:17 2020

   => Loading Basis Set <=

    Name: CC-PVDZ
    Role: ORBITAL
    Keyword: BASIS
    atoms 1-7, 17-19  entry C          line   138 file /theoryfs2/ds/metcalf/miniconda2/envs/tf2gpu/share/psi4/basis/cc-pvdz.gbs
    atoms 8, 20-21    entry O          line   198 file /theoryfs2/ds/metcalf/miniconda2/envs/tf2gpu/share/psi4/basis/cc-pvdz.gbs
    atoms 9-16, 22-26 entry H          line    22 file /theoryfs2/ds/metcalf/miniconda2/envs/tf2gpu/share/psi4/basis/cc-pvdz.gbs

         ---------------------------------------------------------
                                   SCF
               by Justin Turney, Rob Parrish, Andy Simmonett
                          and Daniel G. A. Smith
                              RHF Reference
                        1 Threads,    500 MiB Core
         ---------------------------------------------------------

  ==> Geometry <==

    Molecular point group: c1
    Full point group: C1

    Geometry (in Angstrom), charge = -1, multiplicity = 1:

       Center              X                  Y                   Z               Mass
    ------------   -----------------  -----------------  -----------------  -----------------
         C            0.896031151042    -4.197474002004    -0.877929438369    12.000000000000
         C            0.973031151042    -0.376474002004    -0.798929438369    12.000000000000
         C            2.074031151042    -0.147474002004    -0.018929438369    12.000000000000
         C            0.589031151042    -1.676474002004    -1.052929438369    12.000000000000
         C            1.321031151042    -2.758474002004    -0.550929438369    12.000000000000
         C            2.809031151042    -1.181474002004     0.482070561631    12.000000000000
         C            2.439031151042    -2.490474002004     0.223070561631    12.000000000000
         O            2.508031151042     1.102525997996     0.249070561631    15.994914619570
         H            0.435031151042     0.452525997996    -1.226929438369     1.007825032230
         H           -0.280968848958    -1.868474002004    -1.661929438369     1.007825032230
         H            3.687031151042    -0.986474002004     1.079070561631     1.007825032230
         H            3.287031151042     1.110525997996     0.809070561631     1.007825032230
         H            1.674031151042    -4.900474002004    -0.580929438369     1.007825032230
         H            0.771031151042    -4.256474002004    -1.957929438369     1.007825032230
         H            3.030031151042    -3.302474002004     0.609070561631     1.007825032230
         H           -0.055620848958    -4.460743002004    -0.393112438369     1.007825032230
         C           -2.442968848958     1.167525997996    -0.079929438369    12.000000000000
         C           -3.085968848958     1.566525997996    -1.407929438369    12.000000000000
         C           -2.397968848958     2.303525997996     0.921070561631    12.000000000000
         O           -2.031968848958     2.071525997996     2.062070561631    15.994914619570
         O           -2.748968848958     3.433525997996     0.588070561631    15.994914619570
         H           -3.058968848958     0.380525997996     0.362070561631     1.007825032230
         H           -1.454968848958     0.738525997996    -0.220929438369     1.007825032230
         H           -3.950968848958     2.203525997996    -1.216929438369     1.007825032230
         H           -3.433418848958     0.665995997996    -1.935490438369     1.007825032230
         H           -2.372578848958     2.119435997996    -2.036705438369     1.007825032230

  Running in c1 symmetry.

  Rotational constants: A =      0.03740  B =      0.01045  C =      0.00907 [cm^-1]
  Rotational constants: A =   1121.25810  B =    313.36828  C =    272.01604 [MHz]
  Nuclear repulsion =  722.468814689021087

  Charge       = -1
  Multiplicity = 1
  Electrons    = 98
  Nalpha       = 49
  Nbeta        = 49

  ==> Algorithm <==

  SCF Algorithm Type is PK.
  DIIS enabled.
  MOM disabled.
  Fractional occupation disabled.
  Guess Type is SAD.
  Energy threshold   = 1.00e-06
  Density threshold  = 1.00e-10
  Integral threshold = 0.00e+00

  ==> Primary Basis <==

  Basis Set: CC-PVDZ
    Blend: CC-PVDZ
    Number of shells: 117
    Number of basis function: 247
    Number of Cartesian functions: 260
    Spherical Harmonics?: true
    Max angular momentum: 2

  ==> Pre-Iterations <==

   -------------------------------------------------------
    Irrep   Nso     Nmo     Nalpha   Nbeta   Ndocc  Nsocc
   -------------------------------------------------------
     A        247     247       0       0       0       0
   -------------------------------------------------------
    Total     247     247      49      49      49       0
   -------------------------------------------------------

  ==> Integral Setup <==

  Using integral reordering PK algorithm.
  Sizing the integral batches needed.
  Building batch lookup table.
   Calculation information:
      Number of atoms:                  26
      Number of AO shells:             117
      Number of primitives:            351
      Number of atomic orbitals:       260
      Number of basis functions:       247

      Integral cutoff                 1.00e-12
      Number of threads:                 1

	Batch   1 pq = [       0,    9405] index = [             0,44231715] size =     44231715
	Batch   2 pq = [    9405,   13301] index = [      44231715,88464951] size =     44233236
	Batch   3 pq = [   13301,   16290] index = [      88464951,132690195] size =     44225244
	Batch   4 pq = [   16290,   18810] index = [     132690195,176917455] size =     44227260
	Batch   5 pq = [   18810,   21030] index = [     176917455,221140965] size =     44223510
	Batch   6 pq = [   21030,   23037] index = [     221140965,265363203] size =     44222238
	Batch   7 pq = [   23037,   24883] index = [     265363203,309594286] size =     44231083
	Batch   8 pq = [   24883,   26601] index = [     309594286,353819901] size =     44225615
	Batch   9 pq = [   26601,   28214] index = [     353819901,398029005] size =     44209104
	Batch  10 pq = [   28214,   29740] index = [     398029005,442248670] size =     44219665
	Batch  11 pq = [   29740,   30628] index = [     442248670,469052506] size =     26803836
  Task number: 43
  Buffer size: 11059200
  Buffer per thread: 2
  We computed 19154882 shell quartets total.
  Whereas there are 23829156 unique shell quartets.

  ==> DiskJK: Disk-Based J/K Matrices <==

    J tasked:                  Yes
    K tasked:                  Yes
    wK tasked:                  No
    Memory [MiB]:              375
    Schwarz Cutoff:          1E-12

    OpenMP threads:              1

  Minimum eigenvalue in the overlap matrix is 2.9853838200E-04.
  Using Symmetric Orthogonalization.

  SCF Guess: Superposition of Atomic Densities via on-the-fly atomic UHF.

  ==> Iterations <==

                        Total Energy        Delta E     RMS |[F,P]|

   @RHF iter SAD:  -609.47147914790446   -6.09471e+02   0.00000e+00
   @RHF iter   1:  -610.50125769674446   -1.02978e+00   3.43711e-03 DIIS
   @RHF iter   2:  -610.81491861502207   -3.13661e-01   1.74198e-03 DIIS
   @RHF iter   3:  -610.88581794073912   -7.08993e-02   3.06919e-04 DIIS
   @RHF iter   4:  -610.88979498389540   -3.97704e-03   1.18540e-04 DIIS
   @RHF iter   5:  -610.89031888377610   -5.23900e-04   1.95133e-05 DIIS
   @RHF iter   6:  -610.89034095031946   -2.20665e-05   6.95391e-06 DIIS
   @RHF iter   7:  -610.89034341330444   -2.46298e-06   2.70515e-06 DIIS
   @RHF iter   8:  -610.89034388229356   -4.68989e-07   9.05800e-07 DIIS
   @RHF iter   9:  -610.89034397485943   -9.25659e-08   3.85450e-07 DIIS
   @RHF iter  10:  -610.89034399845241   -2.35930e-08   1.66601e-07 DIIS
   @RHF iter  11:  -610.89034400423236   -5.77995e-09   6.73452e-08 DIIS
   @RHF iter  12:  -610.89034400497974   -7.47377e-10   3.14555e-08 DIIS
   @RHF iter  13:  -610.89034400508376   -1.04023e-10   8.11711e-09 DIIS
   @RHF iter  14:  -610.89034400509024   -6.48015e-12   2.99048e-09 DIIS
   @RHF iter  15:  -610.89034400509615   -5.91172e-12   1.01148e-09 DIIS
   @RHF iter  16:  -610.89034400508990    6.25278e-12   4.84963e-10 DIIS
   @RHF iter  17:  -610.89034400508888    1.02318e-12   2.31700e-10 DIIS
   @RHF iter  18:  -610.89034400508797    9.09495e-13   9.54026e-11 DIIS
  Energy and wave function converged.

  ==> Post-Iterations <==

    Orbital Energies [Eh]
    ---------------------

    Doubly Occupied:

       1A    -20.491401     2A    -20.244652     3A    -20.239132
       4A    -11.207143     5A    -11.159806     6A    -11.156099
       7A    -11.153724     8A    -11.152398     9A    -11.144488
      10A    -11.139088    11A    -11.095236    12A    -11.066417
      13A    -11.045139    14A     -1.317229    15A     -1.156840
      16A     -1.073890    17A     -1.032032    18A     -0.957293
      19A     -0.939258    20A     -0.864992    21A     -0.850565
      22A     -0.765771    23A     -0.722509    24A     -0.696719
      25A     -0.651720    26A     -0.589157    27A     -0.559688
      28A     -0.526134    29A     -0.507983    30A     -0.507089
      31A     -0.497117    32A     -0.493154    33A     -0.485380
      34A     -0.453420    35A     -0.451465    36A     -0.426499
      37A     -0.415198    38A     -0.402054    39A     -0.387858
      40A     -0.383777    41A     -0.357565    42A     -0.350231
      43A     -0.323165    44A     -0.296368    45A     -0.256502
      46A     -0.220241    47A     -0.174766    48A     -0.155654
      49A     -0.149414

    Virtual:

      50A      0.215586    51A      0.242439    52A      0.256373
      53A      0.260173    54A      0.293418    55A      0.293799
      56A      0.329637    57A      0.338533    58A      0.347039
      59A      0.363330    60A      0.365177    61A      0.393754
      62A      0.418536    63A      0.430977    64A      0.435541
      65A      0.447915    66A      0.475907    67A      0.511411
      68A      0.523666    69A      0.535225    70A      0.559722
      71A      0.563561    72A      0.582293    73A      0.596613
      74A      0.628566    75A      0.693447    76A      0.703263
      77A      0.706746    78A      0.725212    79A      0.733780
      80A      0.750965    81A      0.765814    82A      0.771676
      83A      0.777186    84A      0.786522    85A      0.800334
      86A      0.819376    87A      0.819915    88A      0.845377
      89A      0.851476    90A      0.866013    91A      0.870723
      92A      0.878621    93A      0.897502    94A      0.916915
      95A      0.935580    96A      0.939080    97A      0.951544
      98A      0.961961    99A      0.964835   100A      0.972323
     101A      0.978362   102A      0.984058   103A      1.003633
     104A      1.007195   105A      1.018189   106A      1.025384
     107A      1.033959   108A      1.047816   109A      1.049820
     110A      1.055380   111A      1.071571   112A      1.078230
     113A      1.098590   114A      1.102874   115A      1.117490
     116A      1.137078   117A      1.174426   118A      1.183084
     119A      1.220340   120A      1.228152   121A      1.232374
     122A      1.264924   123A      1.279936   124A      1.301379
     125A      1.315179   126A      1.324411   127A      1.326691
     128A      1.347277   129A      1.362330   130A      1.380077
     131A      1.388101   132A      1.404705   133A      1.408492
     134A      1.416487   135A      1.453786   136A      1.459105
     137A      1.470453   138A      1.481479   139A      1.504767
     140A      1.539720   141A      1.573680   142A      1.589808
     143A      1.611953   144A      1.625580   145A      1.627486
     146A      1.633474   147A      1.668724   148A      1.673496
     149A      1.696883   150A      1.715726   151A      1.750130
     152A      1.758333   153A      1.760873   154A      1.818895
     155A      1.831210   156A      1.838533   157A      1.847661
     158A      1.864510   159A      1.875873   160A      1.892605
     161A      1.895894   162A      1.941766   163A      1.949096
     164A      1.973919   165A      1.978211   166A      1.994288
     167A      2.004549   168A      2.007265   169A      2.013292
     170A      2.032018   171A      2.040124   172A      2.052955
     173A      2.057590   174A      2.066419   175A      2.082071
     176A      2.102896   177A      2.122819   178A      2.134197
     179A      2.140725   180A      2.155356   181A      2.164068
     182A      2.172897   183A      2.179284   184A      2.183430
     185A      2.210057   186A      2.219709   187A      2.245500
     188A      2.254105   189A      2.262949   190A      2.279436
     191A      2.284717   192A      2.316847   193A      2.332851
     194A      2.353202   195A      2.363223   196A      2.391342
     197A      2.406520   198A      2.431711   199A      2.461923
     200A      2.471066   201A      2.498492   202A      2.502816
     203A      2.537197   204A      2.550173   205A      2.557896
     206A      2.589751   207A      2.600584   208A      2.631794
     209A      2.649660   210A      2.665269   211A      2.691279
     212A      2.738302   213A      2.768666   214A      2.783304
     215A      2.834409   216A      2.847615   217A      2.866215
     218A      2.877960   219A      2.900786   220A      2.908754
     221A      2.926606   222A      2.979356   223A      2.991865
     224A      3.026061   225A      3.058842   226A      3.077283
     227A      3.102080   228A      3.163382   229A      3.193855
     230A      3.202013   231A      3.254938   232A      3.311415
     233A      3.320127   234A      3.350071   235A      3.389855
     236A      3.395278   237A      3.449387   238A      3.684606
     239A      3.694969   240A      3.775408   241A      3.823336
     242A      3.862646   243A      4.106462   244A      4.117896
     245A      4.125204   246A      4.280447   247A      4.296102

    Final Occupation by Irrep:
              A
    DOCC [    49 ]

  @RHF Final Energy:  -610.89034400508797

   => Energetics <=

    Nuclear Repulsion Energy =            722.4688146890210874
    One-Electron Energy =               -2281.3314732057192487
    Two-Electron Energy =                 947.9723145116100795
    Total Energy =                       -610.8903440050879681

Computation Completed

Properties will be evaluated at   0.000000,   0.000000,   0.000000 [a0]

Properties computed using the SCF density matrix

  Nuclear Dipole Moment: [e a0]
     X:    -1.6265      Y:   -11.3154      Z:    -7.8342

  Electronic Dipole Moment: [e a0]
     X:     6.3330      Y:     6.0425      Z:     5.6878

  Dipole Moment: [e a0]
     X:     4.7065      Y:    -5.2730      Z:    -2.1464     Total:     7.3866

  Dipole Moment: [D]
     X:    11.9627      Y:   -13.4026      Z:    -5.4555     Total:    18.7749

*** tstop() called on ds3 at Mon Apr 27 07:40:42 2020
Module time:
	user time   =     159.34 seconds =       2.66 minutes
	system time =      70.70 seconds =       1.18 minutes
	total time  =        325 seconds =       5.42 minutes
Total time:
	user time   =     159.34 seconds =       2.66 minutes
	system time =      70.70 seconds =       1.18 minutes
	total time  =        325 seconds =       5.42 minutes
                                     G D M A

                                 by Anthony Stone

                           version 2.2.06, 22 June 2011

               Distributed Multipoles from Gaussian wavefunctions

Starting at 7:40:42 on 27 Apr 2020

Using SCF density matrix from file ./SSI/SSI-084TYR-089ASP-1-dimer.test.26982.fchk

                         Distributed Multipole Analysis

Standard DMA

Positions and radii in angstrom
Multipole moments in atomic units, ea_0^k for rank k

C          x =  0.896031  y = -4.197474  z = -0.877929 angstrom
           Maximum rank =  0   Radius =  0.650 angstrom
                   Q00  =  -0.204737

C          x =  0.973031  y = -0.376474  z = -0.798929 angstrom
           Maximum rank =  0   Radius =  0.650 angstrom
                   Q00  =  -0.107278

C          x =  2.074031  y = -0.147474  z = -0.018929 angstrom
           Maximum rank =  0   Radius =  0.650 angstrom
                   Q00  =   0.394199

C          x =  0.589031  y = -1.676474  z = -1.052929 angstrom
           Maximum rank =  0   Radius =  0.650 angstrom
                   Q00  =   0.005571

C          x =  1.321031  y = -2.758474  z = -0.550929 angstrom
           Maximum rank =  0   Radius =  0.650 angstrom
                   Q00  =  -0.153724

C          x =  2.809031  y = -1.181474  z =  0.482071 angstrom
           Maximum rank =  0   Radius =  0.650 angstrom
                   Q00  =  -0.195662

C          x =  2.439031  y = -2.490474  z =  0.223071 angstrom
           Maximum rank =  0   Radius =  0.650 angstrom
                   Q00  =  -0.042223

O          x =  2.508031  y =  1.102526  z =  0.249071 angstrom
           Maximum rank =  0   Radius =  0.650 angstrom
                   Q00  =  -0.631158

H          x =  0.435031  y =  0.452526  z = -1.226929 angstrom
           Maximum rank =  0   Radius =  0.325 angstrom
                   Q00  =   0.100372

H          x = -0.280969  y = -1.868474  z = -1.661929 angstrom
           Maximum rank =  0   Radius =  0.325 angstrom
                   Q00  =   0.059960

H          x =  3.687031  y = -0.986474  z =  1.079071 angstrom
           Maximum rank =  0   Radius =  0.325 angstrom
                   Q00  =   0.052005

H          x =  3.287031  y =  1.110526  z =  0.809071 angstrom
           Maximum rank =  0   Radius =  0.325 angstrom
                   Q00  =   0.396989

H          x =  1.674031  y = -4.900474  z = -0.580929 angstrom
           Maximum rank =  0   Radius =  0.325 angstrom
                   Q00  =   0.087747

H          x =  0.771031  y = -4.256474  z = -1.957929 angstrom
           Maximum rank =  0   Radius =  0.325 angstrom
                   Q00  =   0.089300

H          x =  3.030031  y = -3.302474  z =  0.609071 angstrom
           Maximum rank =  0   Radius =  0.325 angstrom
                   Q00  =   0.051669

H          x = -0.055621  y = -4.460743  z = -0.393112 angstrom
           Maximum rank =  0   Radius =  0.325 angstrom
                   Q00  =   0.100531

C          x = -2.442969  y =  1.167526  z = -0.079929 angstrom
           Maximum rank =  0   Radius =  0.650 angstrom
                   Q00  =  -0.165725

C          x = -3.085969  y =  1.566526  z = -1.407929 angstrom
           Maximum rank =  0   Radius =  0.650 angstrom
                   Q00  =  -0.224148

C          x = -2.397969  y =  2.303526  z =  0.921071 angstrom
           Maximum rank =  0   Radius =  0.650 angstrom
                   Q00  =   1.063121

O          x = -2.031969  y =  2.071526  z =  2.062071 angstrom
           Maximum rank =  0   Radius =  0.650 angstrom
                   Q00  =  -0.949076

O          x = -2.748969  y =  3.433526  z =  0.588071 angstrom
           Maximum rank =  0   Radius =  0.650 angstrom
                   Q00  =  -0.979860

H          x = -3.058969  y =  0.380526  z =  0.362071 angstrom
           Maximum rank =  0   Radius =  0.325 angstrom
                   Q00  =   0.038611

H          x = -1.454969  y =  0.738526  z = -0.220929 angstrom
           Maximum rank =  0   Radius =  0.325 angstrom
                   Q00  =   0.047259

H          x = -3.950969  y =  2.203526  z = -1.216929 angstrom
           Maximum rank =  0   Radius =  0.325 angstrom
                   Q00  =   0.099051

H          x = -3.433419  y =  0.665996  z = -1.935490 angstrom
           Maximum rank =  0   Radius =  0.325 angstrom
                   Q00  =   0.005535

H          x = -2.372579  y =  2.119436  z = -2.036705 angstrom
           Maximum rank =  0   Radius =  0.325 angstrom
                   Q00  =   0.061668

Total multipoles referred to origin at
           x =   0.000000,  y =    0.000000,  z =    0.000000 angstrom
                   Q00  =  -1.000000

Finished at 7:40:42 on 27 Apr 2020

  DMA results are available in the Python driver through the
	  variable('DMA DISTRIBUTED MULTIPOLES')
  and
	  variable('DMA TOTAL MULTIPOLES')
  commands.

    Psi4 stopped on: Monday, 27 April 2020 07:40AM
    Psi4 wall time for execution: 0:05:25.20

*** Psi4 exiting successfully. Buy a developer a beer!
