                               Psi4 1.3.2 release

  ==> Input File <==

--------------------------------------------------------------------------
import numpy as np
set {scf_type pk
basis cc-pvdz
d_convergence 10
gdma_switch   0
gdma_limit    0
gdma_origin   [ 0.0,  0.0,  0.0 ]
}
molecule test {
    units Angstrom
    0 1
    --
    0 1
    C                1.353068553915181     3.724417926657379    -2.572553335193015
    C                1.473068553915181     1.419417926657379    -1.567553335193015
    C                1.483068553915181     2.801417926657379    -1.392553335193015
    C                1.630068553915181     0.562417926657379    -0.475553335193015
    C                1.650068553915181     3.319417926657378    -0.104553335193015
    C                1.803068553915181     1.089417926657379     0.804446664806985
    C                1.811068553915181     2.471417926657379     0.993446664806985
    O                1.975068553915181     0.255417926657379     1.869446664806985
    H                1.347068553915181     1.012417926657379    -2.554553335193015
    H                1.591068553915181    -0.506582073342621    -0.598553335193015
    H                0.664068553915181     4.516417926657378    -2.296553335193015
    H                0.937068553915181     3.188417926657379    -3.426553335193015
    H                1.658068553915181     4.392417926657378     0.044446664806985
    H                1.944068553915181     2.885417926657379     1.982446664806985
    H                2.090068553915181     0.741417926657379     2.692446664806985
    H                2.309708553915181     4.192987926657379    -2.846913335193015
    C               -1.981931446084819     0.641417926657379    -0.499553335193015
    C               -3.482931446084819     0.852417926657379    -0.700553335193015
    C               -1.593931446084819    -0.745582073342621    -0.048553335193015
    C               -1.565931446084819    -1.805582073342621    -0.957553335193015
    C               -1.225931446084819    -0.982582073342621     1.278446664806985
    C               -1.176931446084819    -3.079582073342621    -0.551553335193015
    C               -0.832931446084819    -2.257582073342621     1.694446664806985
    C               -0.807931446084819    -3.305582073342622     0.775446664806985
    O               -0.421931446084819    -4.552582073342622     1.167446664806985
    H               -1.461931446084819     0.858417926657379    -1.432553335193015
    H               -1.624931446084819     1.369417926657379     0.231446664806985
    H               -3.621931446084819     1.881417926657379    -1.022553335193015
    H               -1.836931446084819    -1.644582073342621    -1.990553335193015
    H               -1.220931446084819    -0.167582073342621     1.991446664806985
    H               -1.162931446084819    -3.875582073342621    -1.273553335193015
    H               -0.534931446084819    -2.434582073342621     2.717446664806985
    H               -0.378931446084819    -5.169582073342622     0.437446664806985
    H               -4.036271446084819     0.717867926657379     0.240566664806985
    H               -3.867711446084819     0.216157926657379    -1.511183335193015

}
e, wfn = energy('scf', return_wfn=True)
gdma(wfn)
dmavals = variable('DMA DISTRIBUTED MULTIPOLES')
charges = np.array(dmavals)
print(charges)
np.save('SSI-005TYR-166TYR-1-dimer.npy', np.array(charges))--------------------------------------------------------------------------

*** tstart() called on ds3
*** at Mon Apr 27 23:36:26 2020

   => Loading Basis Set <=

    Name: CC-PVDZ
    Role: ORBITAL
    Keyword: BASIS
    atoms 1-7, 17-24  entry C          line   138 file /theoryfs2/ds/metcalf/miniconda2/envs/tf2gpu/share/psi4/basis/cc-pvdz.gbs
    atoms 8, 25       entry O          line   198 file /theoryfs2/ds/metcalf/miniconda2/envs/tf2gpu/share/psi4/basis/cc-pvdz.gbs
    atoms 9-16, 26-35 entry H          line    22 file /theoryfs2/ds/metcalf/miniconda2/envs/tf2gpu/share/psi4/basis/cc-pvdz.gbs

         ---------------------------------------------------------
                                   SCF
               by Justin Turney, Rob Parrish, Andy Simmonett
                          and Daniel G. A. Smith
                              RHF Reference
                        1 Threads,    500 MiB Core
         ---------------------------------------------------------

  ==> Geometry <==

    Molecular point group: c1
    Full point group: C1

    Geometry (in Angstrom), charge = 0, multiplicity = 1:

       Center              X                  Y                   Z               Mass
    ------------   -----------------  -----------------  -----------------  -----------------
         C            1.353068553915     3.724417926657    -2.572553335193    12.000000000000
         C            1.473068553915     1.419417926657    -1.567553335193    12.000000000000
         C            1.483068553915     2.801417926657    -1.392553335193    12.000000000000
         C            1.630068553915     0.562417926657    -0.475553335193    12.000000000000
         C            1.650068553915     3.319417926657    -0.104553335193    12.000000000000
         C            1.803068553915     1.089417926657     0.804446664807    12.000000000000
         C            1.811068553915     2.471417926657     0.993446664807    12.000000000000
         O            1.975068553915     0.255417926657     1.869446664807    15.994914619570
         H            1.347068553915     1.012417926657    -2.554553335193     1.007825032230
         H            1.591068553915    -0.506582073343    -0.598553335193     1.007825032230
         H            0.664068553915     4.516417926657    -2.296553335193     1.007825032230
         H            0.937068553915     3.188417926657    -3.426553335193     1.007825032230
         H            1.658068553915     4.392417926657     0.044446664807     1.007825032230
         H            1.944068553915     2.885417926657     1.982446664807     1.007825032230
         H            2.090068553915     0.741417926657     2.692446664807     1.007825032230
         H            2.309708553915     4.192987926657    -2.846913335193     1.007825032230
         C           -1.981931446085     0.641417926657    -0.499553335193    12.000000000000
         C           -3.482931446085     0.852417926657    -0.700553335193    12.000000000000
         C           -1.593931446085    -0.745582073343    -0.048553335193    12.000000000000
         C           -1.565931446085    -1.805582073343    -0.957553335193    12.000000000000
         C           -1.225931446085    -0.982582073343     1.278446664807    12.000000000000
         C           -1.176931446085    -3.079582073343    -0.551553335193    12.000000000000
         C           -0.832931446085    -2.257582073343     1.694446664807    12.000000000000
         C           -0.807931446085    -3.305582073343     0.775446664807    12.000000000000
         O           -0.421931446085    -4.552582073343     1.167446664807    15.994914619570
         H           -1.461931446085     0.858417926657    -1.432553335193     1.007825032230
         H           -1.624931446085     1.369417926657     0.231446664807     1.007825032230
         H           -3.621931446085     1.881417926657    -1.022553335193     1.007825032230
         H           -1.836931446085    -1.644582073343    -1.990553335193     1.007825032230
         H           -1.220931446085    -0.167582073343     1.991446664807     1.007825032230
         H           -1.162931446085    -3.875582073343    -1.273553335193     1.007825032230
         H           -0.534931446085    -2.434582073343     2.717446664807     1.007825032230
         H           -0.378931446085    -5.169582073343     0.437446664807     1.007825032230
         H           -4.036271446085     0.717867926657     0.240566664807     1.007825032230
         H           -3.867711446085     0.216157926657    -1.511183335193     1.007825032230

  Running in c1 symmetry.

  Rotational constants: A =      0.02254  B =      0.00905  C =      0.00769 [cm^-1]
  Rotational constants: A =    675.66297  B =    271.33320  C =    230.48564 [MHz]
  Nuclear repulsion = 1144.898780877005947

  Charge       = 0
  Multiplicity = 1
  Electrons    = 124
  Nalpha       = 62
  Nbeta        = 62

  ==> Algorithm <==

  SCF Algorithm Type is PK.
  DIIS enabled.
  MOM disabled.
  Fractional occupation disabled.
  Guess Type is SAD.
  Energy threshold   = 1.00e-06
  Density threshold  = 1.00e-10
  Integral threshold = 0.00e+00

  ==> Primary Basis <==

  Basis Set: CC-PVDZ
    Blend: CC-PVDZ
    Number of shells: 156
    Number of basis function: 328
    Number of Cartesian functions: 345
    Spherical Harmonics?: true
    Max angular momentum: 2

  ==> Pre-Iterations <==

   -------------------------------------------------------
    Irrep   Nso     Nmo     Nalpha   Nbeta   Ndocc  Nsocc
   -------------------------------------------------------
     A        328     328       0       0       0       0
   -------------------------------------------------------
    Total     328     328      62      62      62       0
   -------------------------------------------------------

  ==> Integral Setup <==

  Using integral reordering PK algorithm.
  Sizing the integral batches needed.
  Building batch lookup table.
   Calculation information:
      Number of atoms:                  35
      Number of AO shells:             156
      Number of primitives:            464
      Number of atomic orbitals:       345
      Number of basis functions:       328

      Integral cutoff                 1.00e-12
      Number of threads:                 1

	Batch   1 pq = [       0,    9405] index = [             0,44231715] size =     44231715
	Batch   2 pq = [    9405,   13301] index = [      44231715,88464951] size =     44233236
	Batch   3 pq = [   13301,   16290] index = [      88464951,132690195] size =     44225244
	Batch   4 pq = [   16290,   18810] index = [     132690195,176917455] size =     44227260
	Batch   5 pq = [   18810,   21030] index = [     176917455,221140965] size =     44223510
	Batch   6 pq = [   21030,   23037] index = [     221140965,265363203] size =     44222238
	Batch   7 pq = [   23037,   24883] index = [     265363203,309594286] size =     44231083
	Batch   8 pq = [   24883,   26601] index = [     309594286,353819901] size =     44225615
	Batch   9 pq = [   26601,   28214] index = [     353819901,398029005] size =     44209104
	Batch  10 pq = [   28214,   29740] index = [     398029005,442248670] size =     44219665
	Batch  11 pq = [   29740,   31191] index = [     442248670,486454836] size =     44206166
	Batch  12 pq = [   31191,   32578] index = [     486454836,530679331] size =     44224495
	Batch  13 pq = [   32578,   33908] index = [     530679331,574893186] size =     44213855
	Batch  14 pq = [   33908,   35188] index = [     574893186,619115266] size =     44222080
	Batch  15 pq = [   35188,   36423] index = [     619115266,663335676] size =     44220410
	Batch  16 pq = [   36423,   37617] index = [     663335676,707538153] size =     44202477
	Batch  17 pq = [   37617,   38775] index = [     707538153,751769700] size =     44231547
	Batch  18 pq = [   38775,   39899] index = [     751769700,795985050] size =     44215350
	Batch  19 pq = [   39899,   40992] index = [     795985050,840192528] size =     44207478
	Batch  20 pq = [   40992,   42057] index = [     840192528,884416653] size =     44224125
	Batch  21 pq = [   42057,   43095] index = [     884416653,928611060] size =     44194407
	Batch  22 pq = [   43095,   44109] index = [     928611060,972823995] size =     44212935
	Batch  23 pq = [   44109,   45100] index = [     972823995,1017027550] size =     44203555
	Batch  24 pq = [   45100,   46070] index = [    1017027550,1061245485] size =     44217935
	Batch  25 pq = [   46070,   47020] index = [    1061245485,1105463710] size =     44218225
	Batch  26 pq = [   47020,   47951] index = [    1105463710,1149673176] size =     44209466
	Batch  27 pq = [   47951,   48864] index = [    1149673176,1193869680] size =     44196504
	Batch  28 pq = [   48864,   49761] index = [    1193869680,1238103441] size =     44233761
	Batch  29 pq = [   49761,   50642] index = [    1238103441,1282331403] size =     44227962
	Batch  30 pq = [   50642,   51508] index = [    1282331403,1326562786] size =     44231383
	Batch  31 pq = [   51508,   52359] index = [    1326562786,1370758620] size =     44195834
	Batch  32 pq = [   52359,   53197] index = [    1370758620,1414987003] size =     44228383
	Batch  33 pq = [   53197,   53956] index = [    1414987003,1455651946] size =     40664943
  Task number: 132
  Buffer size: 11059200
  Buffer per thread: 2
  We computed 84560244 shell quartets total.
  Whereas there are 74988381 unique shell quartets.
    12.76 percent of shell quartets recomputed by reordering.

  ==> DiskJK: Disk-Based J/K Matrices <==

    J tasked:                  Yes
    K tasked:                  Yes
    wK tasked:                  No
    Memory [MiB]:              375
    Schwarz Cutoff:          1E-12

    OpenMP threads:              1

  Minimum eigenvalue in the overlap matrix is 3.2164627713E-04.
  Using Symmetric Orthogonalization.

  SCF Guess: Superposition of Atomic Densities via on-the-fly atomic UHF.

  ==> Iterations <==

                        Total Energy        Delta E     RMS |[F,P]|

   @RHF iter SAD:  -726.97750067987340   -7.26978e+02   0.00000e+00
   @RHF iter   1:  -727.90136535681154   -9.23865e-01   2.33662e-03 DIIS
   @RHF iter   2:  -728.22448647280282   -3.23121e-01   9.95425e-04 DIIS
   @RHF iter   3:  -728.27650194073692   -5.20155e-02   2.41772e-04 DIIS
   @RHF iter   4:  -728.28102520742902   -4.52327e-03   1.06318e-04 DIIS
   @RHF iter   5:  -728.28174333703487   -7.18130e-04   1.61734e-05 DIIS
   @RHF iter   6:  -728.28177099914228   -2.76621e-05   5.93317e-06 DIIS
   @RHF iter   7:  -728.28177409651062   -3.09737e-06   1.98868e-06 DIIS
   @RHF iter   8:  -728.28177454452953   -4.48019e-07   6.39126e-07 DIIS
   @RHF iter   9:  -728.28177459374740   -4.92179e-08   2.09612e-07 DIIS
   @RHF iter  10:  -728.28177459900132   -5.25392e-09   7.15385e-08 DIIS
   @RHF iter  11:  -728.28177459991309   -9.11768e-10   3.32981e-08 DIIS
   @RHF iter  12:  -728.28177460018128   -2.68187e-10   1.80018e-08 DIIS
   @RHF iter  13:  -728.28177460026632   -8.50378e-11   7.18929e-09 DIIS
   @RHF iter  14:  -728.28177460028439   -1.80762e-11   2.77906e-09 DIIS
   @RHF iter  15:  -728.28177460029099   -6.59384e-12   7.94953e-10 DIIS
   @RHF iter  16:  -728.28177460028576    5.22959e-12   3.57900e-10 DIIS
   @RHF iter  17:  -728.28177460028303    2.72848e-12   1.14880e-10 DIIS
   @RHF iter  18:  -728.28177460028394   -9.09495e-13   5.54157e-11 DIIS
  Energy and wave function converged.

  ==> Post-Iterations <==

    Orbital Energies [Eh]
    ---------------------

    Doubly Occupied:

       1A    -20.580642     2A    -20.576575     3A    -11.296849
       4A    -11.294007     5A    -11.238056     6A    -11.234984
       7A    -11.233448     8A    -11.232441     9A    -11.231636
      10A    -11.231239    11A    -11.227218    12A    -11.226981
      13A    -11.226520    14A    -11.223748    15A    -11.223084
      16A    -11.218310    17A    -11.215770    18A     -1.396705
      19A     -1.394784    20A     -1.147470    21A     -1.143211
      22A     -1.049453    23A     -1.035956    24A     -1.014370
      25A     -1.010532    26A     -0.969860    27A     -0.924834
      28A     -0.853806    29A     -0.842380    30A     -0.836289
      31A     -0.799137    32A     -0.784269    33A     -0.729737
      34A     -0.727228    35A     -0.664875    36A     -0.663528
      37A     -0.639696    38A     -0.638733    39A     -0.606889
      40A     -0.605850    41A     -0.589376    42A     -0.586011
      43A     -0.583647    44A     -0.579900    45A     -0.577032
      46A     -0.568666    47A     -0.566100    48A     -0.562139
      49A     -0.538079    50A     -0.526478    51A     -0.514178
      52A     -0.497164    53A     -0.490994    54A     -0.482545
      55A     -0.471198    56A     -0.466419    57A     -0.461203
      58A     -0.454856    59A     -0.335811    60A     -0.330675
      61A     -0.301627    62A     -0.290430

    Virtual:

      63A      0.127647    64A      0.137300    65A      0.158420
      66A      0.159492    67A      0.175702    68A      0.181240
      69A      0.185035    70A      0.195874    71A      0.215811
      72A      0.218487    73A      0.226876    74A      0.229957
      75A      0.252575    76A      0.260023    77A      0.262693
      78A      0.263891    79A      0.268680    80A      0.283026
      81A      0.294274    82A      0.302101    83A      0.305072
      84A      0.311829    85A      0.358549    86A      0.370395
      87A      0.376141    88A      0.390083    89A      0.415655
      90A      0.428259    91A      0.434041    92A      0.454943
      93A      0.474937    94A      0.485304    95A      0.492906
      96A      0.498423    97A      0.502657    98A      0.509363
      99A      0.518734   100A      0.581694   101A      0.606424
     102A      0.611401   103A      0.613377   104A      0.638319
     105A      0.648799   106A      0.653856   107A      0.655452
     108A      0.658722   109A      0.680687   110A      0.683611
     111A      0.701253   112A      0.708555   113A      0.713779
     114A      0.716811   115A      0.724525   116A      0.728040
     117A      0.737951   118A      0.741418   119A      0.748342
     120A      0.756211   121A      0.760530   122A      0.770920
     123A      0.776992   124A      0.791875   125A      0.796808
     126A      0.803250   127A      0.806592   128A      0.817620
     129A      0.828457   130A      0.840020   131A      0.858609
     132A      0.860959   133A      0.873500   134A      0.877540
     135A      0.878550   136A      0.884173   137A      0.891181
     138A      0.896339   139A      0.902619   140A      0.903931
     141A      0.908532   142A      0.913448   143A      0.925742
     144A      0.927805   145A      0.932703   146A      0.940150
     147A      0.943576   148A      0.949747   149A      0.959183
     150A      0.970840   151A      0.984382   152A      0.991462
     153A      1.003118   154A      1.007599   155A      1.023074
     156A      1.036516   157A      1.046477   158A      1.063926
     159A      1.068820   160A      1.087204   161A      1.117219
     162A      1.136819   163A      1.142521   164A      1.148553
     165A      1.154053   166A      1.166038   167A      1.178834
     168A      1.179746   169A      1.206067   170A      1.209139
     171A      1.237046   172A      1.245855   173A      1.254284
     174A      1.257358   175A      1.270508   176A      1.280808
     177A      1.286018   178A      1.290949   179A      1.299002
     180A      1.303814   181A      1.308005   182A      1.314098
     183A      1.317312   184A      1.325285   185A      1.359718
     186A      1.363642   187A      1.367586   188A      1.378258
     189A      1.389598   190A      1.415581   191A      1.434726
     192A      1.464414   193A      1.484940   194A      1.499404
     195A      1.508006   196A      1.527987   197A      1.535414
     198A      1.550815   199A      1.566759   200A      1.595970
     201A      1.620622   202A      1.623190   203A      1.628014
     204A      1.637101   205A      1.683225   206A      1.693458
     207A      1.698405   208A      1.708726   209A      1.725509
     210A      1.740308   211A      1.741666   212A      1.760421
     213A      1.780062   214A      1.791462   215A      1.804105
     216A      1.813777   217A      1.821717   218A      1.845805
     219A      1.864273   220A      1.871165   221A      1.885578
     222A      1.890752   223A      1.897420   224A      1.901081
     225A      1.905849   226A      1.908650   227A      1.913788
     228A      1.918791   229A      1.924552   230A      1.930140
     231A      1.933407   232A      1.936036   233A      1.950783
     234A      1.951509   235A      1.960959   236A      1.968920
     237A      1.975151   238A      1.985712   239A      1.990129
     240A      2.008145   241A      2.017673   242A      2.025924
     243A      2.030078   244A      2.033338   245A      2.054465
     246A      2.057417   247A      2.064290   248A      2.070668
     249A      2.078220   250A      2.081959   251A      2.095551
     252A      2.101604   253A      2.115159   254A      2.135711
     255A      2.143375   256A      2.144715   257A      2.154035
     258A      2.168579   259A      2.174672   260A      2.202148
     261A      2.209788   262A      2.224603   263A      2.241817
     264A      2.260068   265A      2.265435   266A      2.277284
     267A      2.277733   268A      2.302973   269A      2.322287
     270A      2.335626   271A      2.352642   272A      2.366785
     273A      2.372236   274A      2.412886   275A      2.419361
     276A      2.451810   277A      2.461794   278A      2.469003
     279A      2.470686   280A      2.479946   281A      2.493327
     282A      2.502398   283A      2.526035   284A      2.538839
     285A      2.544500   286A      2.547576   287A      2.570987
     288A      2.591917   289A      2.608311   290A      2.642602
     291A      2.650012   292A      2.651845   293A      2.748116
     294A      2.766254   295A      2.775177   296A      2.778984
     297A      2.790208   298A      2.796335   299A      2.815702
     300A      2.825526   301A      2.848006   302A      2.878771
     303A      2.884130   304A      2.907505   305A      2.933001
     306A      2.960351   307A      2.972919   308A      2.992134
     309A      3.010266   310A      3.040521   311A      3.088406
     312A      3.101320   313A      3.121937   314A      3.179201
     315A      3.254114   316A      3.255930   317A      3.287375
     318A      3.291369   319A      3.349569   320A      3.357713
     321A      3.576450   322A      3.582011   323A      3.675451
     324A      3.678578   325A      3.975041   326A      3.984828
     327A      4.193880   328A      4.202356

    Final Occupation by Irrep:
              A
    DOCC [    62 ]

  @RHF Final Energy:  -728.28177460028394

   => Energetics <=

    Nuclear Repulsion Energy =           1144.8987808770059473
    One-Electron Energy =               -3264.4298524229297982
    Two-Electron Energy =                1391.2492969456395713
    Total Energy =                       -728.2817746002840522

Computation Completed

Properties will be evaluated at   0.000000,   0.000000,   0.000000 [a0]

Properties computed using the SCF density matrix

  Nuclear Dipole Moment: [e a0]
     X:    -6.7482      Y:    11.3924      Z:    -8.0625

  Electronic Dipole Moment: [e a0]
     X:     6.7948      Y:   -10.8384      Z:     7.7356

  Dipole Moment: [e a0]
     X:     0.0467      Y:     0.5539      Z:    -0.3269     Total:     0.6449

  Dipole Moment: [D]
     X:     0.1186      Y:     1.4079      Z:    -0.8309     Total:     1.6391

*** tstop() called on ds3 at Tue Apr 28 00:44:40 2020
Module time:
	user time   =     837.07 seconds =      13.95 minutes
	system time =     307.85 seconds =       5.13 minutes
	total time  =       4094 seconds =      68.23 minutes
Total time:
	user time   =     837.07 seconds =      13.95 minutes
	system time =     307.85 seconds =       5.13 minutes
	total time  =       4094 seconds =      68.23 minutes
                                     G D M A

                                 by Anthony Stone

                           version 2.2.06, 22 June 2011

               Distributed Multipoles from Gaussian wavefunctions

Starting at 0:44:40 on 28 Apr 2020

Using SCF density matrix from file ./SSI/SSI-005TYR-166TYR-1-dimer.test.3425.fchk

                         Distributed Multipole Analysis

Standard DMA

Positions and radii in angstrom
Multipole moments in atomic units, ea_0^k for rank k

C          x =  1.353069  y =  3.724418  z = -2.572553 angstrom
           Maximum rank =  0   Radius =  0.650 angstrom
                   Q00  =  -0.188461

C          x =  1.473069  y =  1.419418  z = -1.567553 angstrom
           Maximum rank =  0   Radius =  0.650 angstrom
                   Q00  =  -0.017451

C          x =  1.483069  y =  2.801418  z = -1.392553 angstrom
           Maximum rank =  0   Radius =  0.650 angstrom
                   Q00  =  -0.135779

C          x =  1.630069  y =  0.562418  z = -0.475553 angstrom
           Maximum rank =  0   Radius =  0.650 angstrom
                   Q00  =  -0.108094

C          x =  1.650069  y =  3.319418  z = -0.104553 angstrom
           Maximum rank =  0   Radius =  0.650 angstrom
                   Q00  =   0.011704

C          x =  1.803069  y =  1.089418  z =  0.804447 angstrom
           Maximum rank =  0   Radius =  0.650 angstrom
                   Q00  =   0.304814

C          x =  1.811069  y =  2.471418  z =  0.993447 angstrom
           Maximum rank =  0   Radius =  0.650 angstrom
                   Q00  =  -0.178884

O          x =  1.975069  y =  0.255418  z =  1.869447 angstrom
           Maximum rank =  0   Radius =  0.650 angstrom
                   Q00  =  -0.668860

H          x =  1.347069  y =  1.012418  z = -2.554553 angstrom
           Maximum rank =  0   Radius =  0.325 angstrom
                   Q00  =   0.061247

H          x =  1.591069  y = -0.506582  z = -0.598553 angstrom
           Maximum rank =  0   Radius =  0.325 angstrom
                   Q00  =   0.090632

H          x =  0.664069  y =  4.516418  z = -2.296553 angstrom
           Maximum rank =  0   Radius =  0.325 angstrom
                   Q00  =   0.093966

H          x =  0.937069  y =  3.188418  z = -3.426553 angstrom
           Maximum rank =  0   Radius =  0.325 angstrom
                   Q00  =   0.096125

H          x =  1.658069  y =  4.392418  z =  0.044447 angstrom
           Maximum rank =  0   Radius =  0.325 angstrom
                   Q00  =   0.066174

H          x =  1.944069  y =  2.885418  z =  1.982447 angstrom
           Maximum rank =  0   Radius =  0.325 angstrom
                   Q00  =   0.071075

H          x =  2.090069  y =  0.741418  z =  2.692447 angstrom
           Maximum rank =  0   Radius =  0.325 angstrom
                   Q00  =   0.403057

H          x =  2.309709  y =  4.192988  z = -2.846913 angstrom
           Maximum rank =  0   Radius =  0.325 angstrom
                   Q00  =   0.098762

C          x = -1.981931  y =  0.641418  z = -0.499553 angstrom
           Maximum rank =  0   Radius =  0.650 angstrom
                   Q00  =  -0.000189

C          x = -3.482931  y =  0.852418  z = -0.700553 angstrom
           Maximum rank =  0   Radius =  0.650 angstrom
                   Q00  =  -0.250832

C          x = -1.593931  y = -0.745582  z = -0.048553 angstrom
           Maximum rank =  0   Radius =  0.650 angstrom
                   Q00  =  -0.146598

C          x = -1.565931  y = -1.805582  z = -0.957553 angstrom
           Maximum rank =  0   Radius =  0.650 angstrom
                   Q00  =  -0.029409

C          x = -1.225931  y = -0.982582  z =  1.278447 angstrom
           Maximum rank =  0   Radius =  0.650 angstrom
                   Q00  =   0.048247

C          x = -1.176931  y = -3.079582  z = -0.551553 angstrom
           Maximum rank =  0   Radius =  0.650 angstrom
                   Q00  =  -0.190846

C          x = -0.832931  y = -2.257582  z =  1.694447 angstrom
           Maximum rank =  0   Radius =  0.650 angstrom
                   Q00  =  -0.117432

C          x = -0.807931  y = -3.305582  z =  0.775447 angstrom
           Maximum rank =  0   Radius =  0.650 angstrom
                   Q00  =   0.312624

O          x = -0.421931  y = -4.552582  z =  1.167447 angstrom
           Maximum rank =  0   Radius =  0.650 angstrom
                   Q00  =  -0.672574

H          x = -1.461931  y =  0.858418  z = -1.432553 angstrom
           Maximum rank =  0   Radius =  0.325 angstrom
                   Q00  =   0.065085

H          x = -1.624931  y =  1.369418  z =  0.231447 angstrom
           Maximum rank =  0   Radius =  0.325 angstrom
                   Q00  =   0.067010

H          x = -3.621931  y =  1.881418  z = -1.022553 angstrom
           Maximum rank =  0   Radius =  0.325 angstrom
                   Q00  =   0.076228

H          x = -1.836931  y = -1.644582  z = -1.990553 angstrom
           Maximum rank =  0   Radius =  0.325 angstrom
                   Q00  =   0.064366

H          x = -1.220931  y = -0.167582  z =  1.991447 angstrom
           Maximum rank =  0   Radius =  0.325 angstrom
                   Q00  =   0.060443

H          x = -1.162931  y = -3.875582  z = -1.273553 angstrom
           Maximum rank =  0   Radius =  0.325 angstrom
                   Q00  =   0.069043

H          x = -0.534931  y = -2.434582  z =  2.717447 angstrom
           Maximum rank =  0   Radius =  0.325 angstrom
                   Q00  =   0.079670

H          x = -0.378931  y = -5.169582  z =  0.437447 angstrom
           Maximum rank =  0   Radius =  0.325 angstrom
                   Q00  =   0.403357

H          x = -4.036271  y =  0.717868  z =  0.240567 angstrom
           Maximum rank =  0   Radius =  0.325 angstrom
                   Q00  =   0.083210

H          x = -3.867711  y =  0.216158  z = -1.511183 angstrom
           Maximum rank =  0   Radius =  0.325 angstrom
                   Q00  =   0.078570

Total multipoles referred to origin at
           x =   0.000000,  y =    0.000000,  z =    0.000000 angstrom
                   Q00  =  -0.000000

Finished at 0:44:40 on 28 Apr 2020

  DMA results are available in the Python driver through the
	  variable('DMA DISTRIBUTED MULTIPOLES')
  and
	  variable('DMA TOTAL MULTIPOLES')
  commands.

    Psi4 stopped on: Tuesday, 28 April 2020 12:44AM
    Psi4 wall time for execution: 1:08:14.01

*** Psi4 exiting successfully. Buy a developer a beer!
