                               Psi4 1.3.2 release

  ==> Input File <==

--------------------------------------------------------------------------
import numpy as np
set {scf_type pk
basis cc-pvdz
d_convergence 10
gdma_switch   0
gdma_limit    0
gdma_origin   [ 0.0,  0.0,  0.0 ]
}
molecule test {
    units Angstrom
    1 1
    --
    1 1
    C               -1.453241008714387     1.542168966766008     0.949657600469533
    C               -1.954241008714387     2.970168966766008     1.152657600469533
    H               -0.570241008714387     1.351168966766008     1.561657600469533
    H               -2.238241008714387     0.834168966766008     1.220657600469532
    H               -1.204241008714387     1.375168966766008    -0.099342399530467
    H               -2.692241008714388     3.163168966766008     0.371657600469533
    H               -1.141911008714387     3.704828966766008     1.050759600469533
    H               -2.462251008714388     3.093448966766009     2.120502900469533
    C                0.563758991285612    -1.270831033233992    -0.516342399530467
    C                1.491758991285613    -0.457831033233992    -1.431342399530467
    N                1.235758991285613    -2.531831033233992    -0.157342399530467
    H                0.315758991285613    -0.684831033233992     0.375657600469533
    H               -0.365241008714387    -1.483831033233992    -1.056342399530467
    H                0.904758991285612     0.350168966766008    -1.872342399530467
    H                1.858758991285613    -1.087831033233992    -2.245342399530467
    H                2.088758991285613    -2.381831033233992     0.366657600469533
    H                0.631758991285613    -3.109831033233992     0.416657600469533
    H                1.464758991285612    -3.077831033233992    -0.979342399530467
    H                2.337348991285613    -0.012741033233992    -0.886483399530467

}
e, wfn = energy('scf', return_wfn=True)
gdma(wfn)
dmavals = variable('DMA DISTRIBUTED MULTIPOLES')
charges = np.array(dmavals)
print(charges)
np.save('SSI-068ILE-072LYS-1-dimer.npy', np.array(charges))--------------------------------------------------------------------------

*** tstart() called on ds3
*** at Mon Apr 27 20:43:28 2020

   => Loading Basis Set <=

    Name: CC-PVDZ
    Role: ORBITAL
    Keyword: BASIS
    atoms 1-2, 9-10  entry C          line   138 file /theoryfs2/ds/metcalf/miniconda2/envs/tf2gpu/share/psi4/basis/cc-pvdz.gbs
    atoms 3-8, 12-19 entry H          line    22 file /theoryfs2/ds/metcalf/miniconda2/envs/tf2gpu/share/psi4/basis/cc-pvdz.gbs
    atoms 11         entry N          line   168 file /theoryfs2/ds/metcalf/miniconda2/envs/tf2gpu/share/psi4/basis/cc-pvdz.gbs

         ---------------------------------------------------------
                                   SCF
               by Justin Turney, Rob Parrish, Andy Simmonett
                          and Daniel G. A. Smith
                              RHF Reference
                        1 Threads,    500 MiB Core
         ---------------------------------------------------------

  ==> Geometry <==

    Molecular point group: c1
    Full point group: C1

    Geometry (in Angstrom), charge = 1, multiplicity = 1:

       Center              X                  Y                   Z               Mass
    ------------   -----------------  -----------------  -----------------  -----------------
         C           -1.453241008714     1.542168966766     0.949657600470    12.000000000000
         C           -1.954241008714     2.970168966766     1.152657600470    12.000000000000
         H           -0.570241008714     1.351168966766     1.561657600470     1.007825032230
         H           -2.238241008714     0.834168966766     1.220657600470     1.007825032230
         H           -1.204241008714     1.375168966766    -0.099342399530     1.007825032230
         H           -2.692241008714     3.163168966766     0.371657600470     1.007825032230
         H           -1.141911008714     3.704828966766     1.050759600470     1.007825032230
         H           -2.462251008714     3.093448966766     2.120502900470     1.007825032230
         C            0.563758991286    -1.270831033234    -0.516342399530    12.000000000000
         C            1.491758991286    -0.457831033234    -1.431342399530    12.000000000000
         N            1.235758991286    -2.531831033234    -0.157342399530    14.003074004430
         H            0.315758991286    -0.684831033234     0.375657600470     1.007825032230
         H           -0.365241008714    -1.483831033234    -1.056342399530     1.007825032230
         H            0.904758991286     0.350168966766    -1.872342399530     1.007825032230
         H            1.858758991286    -1.087831033234    -2.245342399530     1.007825032230
         H            2.088758991286    -2.381831033234     0.366657600470     1.007825032230
         H            0.631758991286    -3.109831033234     0.416657600470     1.007825032230
         H            1.464758991286    -3.077831033234    -0.979342399530     1.007825032230
         H            2.337348991286    -0.012741033234    -0.886483399530     1.007825032230

  Running in c1 symmetry.

  Rotational constants: A =      0.27702  B =      0.03373  C =      0.03110 [cm^-1]
  Rotational constants: A =   8304.96935  B =   1011.24405  C =    932.32420 [MHz]
  Nuclear repulsion =  185.076951501550980

  Charge       = 1
  Multiplicity = 1
  Electrons    = 44
  Nalpha       = 22
  Nbeta        = 22

  ==> Algorithm <==

  SCF Algorithm Type is PK.
  DIIS enabled.
  MOM disabled.
  Fractional occupation disabled.
  Guess Type is SAD.
  Energy threshold   = 1.00e-06
  Density threshold  = 1.00e-10
  Integral threshold = 0.00e+00

  ==> Primary Basis <==

  Basis Set: CC-PVDZ
    Blend: CC-PVDZ
    Number of shells: 72
    Number of basis function: 140
    Number of Cartesian functions: 145
    Spherical Harmonics?: true
    Max angular momentum: 2

  ==> Pre-Iterations <==

   -------------------------------------------------------
    Irrep   Nso     Nmo     Nalpha   Nbeta   Ndocc  Nsocc
   -------------------------------------------------------
     A        140     140       0       0       0       0
   -------------------------------------------------------
    Total     140     140      22      22      22       0
   -------------------------------------------------------

  ==> Integral Setup <==

  Using integral reordering PK algorithm.
  Sizing the integral batches needed.
  Building batch lookup table.
   Calculation information:
      Number of atoms:                  19
      Number of AO shells:              72
      Number of primitives:            180
      Number of atomic orbitals:       145
      Number of basis functions:       140

      Integral cutoff                 1.00e-12
      Number of threads:                 1

	Batch   1 pq = [       0,    9405] index = [             0,44231715] size =     44231715
	Batch   2 pq = [    9405,    9870] index = [      44231715,48713385] size =      4481670
  Task number: 5
  Buffer size: 11059200
  Buffer per thread: 2
  We computed 2684921 shell quartets total.
  Whereas there are 3454506 unique shell quartets.

  ==> DiskJK: Disk-Based J/K Matrices <==

    J tasked:                  Yes
    K tasked:                  Yes
    wK tasked:                  No
    Memory [MiB]:              375
    Schwarz Cutoff:          1E-12

    OpenMP threads:              1

  Minimum eigenvalue in the overlap matrix is 5.1578239285E-03.
  Using Symmetric Orthogonalization.

  SCF Guess: Superposition of Atomic Densities via on-the-fly atomic UHF.

  ==> Iterations <==

                        Total Energy        Delta E     RMS |[F,P]|

   @RHF iter SAD:  -213.19289862713927   -2.13193e+02   0.00000e+00
   @RHF iter   1:  -213.69170591243721   -4.98807e-01   3.55928e-03 DIIS
   @RHF iter   2:  -213.84163661051173   -1.49931e-01   1.35542e-03 DIIS
   @RHF iter   3:  -213.86181026098620   -2.01737e-02   3.42838e-04 DIIS
   @RHF iter   4:  -213.86395516591051   -2.14490e-03   4.63861e-05 DIIS
   @RHF iter   5:  -213.86399954084692   -4.43749e-05   1.15531e-05 DIIS
   @RHF iter   6:  -213.86400200618573   -2.46534e-06   3.22078e-06 DIIS
   @RHF iter   7:  -213.86400218640409   -1.80218e-07   8.52012e-07 DIIS
   @RHF iter   8:  -213.86400220249251   -1.60884e-08   1.89963e-07 DIIS
   @RHF iter   9:  -213.86400220328244   -7.89925e-10   4.55220e-08 DIIS
   @RHF iter  10:  -213.86400220331433   -3.18892e-11   1.35215e-08 DIIS
   @RHF iter  11:  -213.86400220331788   -3.55271e-12   2.36202e-09 DIIS
   @RHF iter  12:  -213.86400220331763    2.55795e-13   4.25269e-10 DIIS
   @RHF iter  13:  -213.86400220331808   -4.54747e-13   1.32382e-10 DIIS
   @RHF iter  14:  -213.86400220331745    6.25278e-13   3.24610e-11 DIIS
  Energy and wave function converged.

  ==> Post-Iterations <==

    Orbital Energies [Eh]
    ---------------------

    Doubly Occupied:

       1A    -15.907850     2A    -11.482624     3A    -11.407772
       4A    -11.326946     5A    -11.310485     6A     -1.532343
       7A     -1.220246     8A     -1.118852     9A     -1.061650
      10A     -0.987479    11A     -0.970923    12A     -0.937931
      13A     -0.867934    14A     -0.797676    15A     -0.717597
      16A     -0.706492    17A     -0.699210    18A     -0.696896
      19A     -0.690756    20A     -0.603545    21A     -0.585037
      22A     -0.581477

    Virtual:

      23A     -0.050837    24A      0.013465    25A      0.015942
      26A      0.027939    27A      0.075649    28A      0.081207
      29A      0.094681    30A      0.118062    31A      0.120829
      32A      0.147887    33A      0.157479    34A      0.181374
      35A      0.183937    36A      0.196496    37A      0.202177
      38A      0.230546    39A      0.303088    40A      0.378385
      41A      0.389727    42A      0.421816    43A      0.430693
      44A      0.448515    45A      0.497323    46A      0.502222
      47A      0.566576    48A      0.579317    49A      0.584349
      50A      0.609137    51A      0.636298    52A      0.644135
      53A      0.663480    54A      0.684743    55A      0.712150
      56A      0.713510    57A      0.751447    58A      0.762782
      59A      0.774008    60A      0.783341    61A      0.786627
      62A      0.803392    63A      0.804314    64A      0.809895
      65A      0.828601    66A      0.834899    67A      0.850993
      68A      0.885457    69A      0.917745    70A      0.936595
      71A      1.013053    72A      1.025718    73A      1.059938
      74A      1.132494    75A      1.210365    76A      1.255780
      77A      1.282367    78A      1.363677    79A      1.380945
      80A      1.396914    81A      1.461815    82A      1.469786
      83A      1.490002    84A      1.505804    85A      1.577521
      86A      1.600622    87A      1.608554    88A      1.669167
      89A      1.676300    90A      1.698631    91A      1.720896
      92A      1.739300    93A      1.754137    94A      1.768272
      95A      1.771815    96A      1.782250    97A      1.790582
      98A      1.823698    99A      1.837759   100A      1.846550
     101A      1.853794   102A      1.867770   103A      1.872079
     104A      1.902487   105A      1.910511   106A      1.951123
     107A      1.973495   108A      1.986440   109A      2.005157
     110A      2.034400   111A      2.037477   112A      2.124237
     113A      2.161118   114A      2.171211   115A      2.200859
     116A      2.235738   117A      2.277338   118A      2.330982
     119A      2.339088   120A      2.359020   121A      2.371862
     122A      2.430227   123A      2.464425   124A      2.479816
     125A      2.504637   126A      2.526285   127A      2.591189
     128A      2.631737   129A      2.662128   130A      2.675222
     131A      2.685217   132A      2.734471   133A      2.745985
     134A      2.761644   135A      2.785248   136A      2.837167
     137A      2.850545   138A      2.869483   139A      3.100010
     140A      3.127865

    Final Occupation by Irrep:
              A
    DOCC [    22 ]

  @RHF Final Energy:  -213.86400220331745

   => Energetics <=

    Nuclear Repulsion Energy =            185.0769515015509796
    One-Electron Energy =                -645.4584620297916899
    Two-Electron Energy =                 246.5175083249232557
    Total Energy =                       -213.8640022033174546

Computation Completed

Properties will be evaluated at   0.000000,   0.000000,   0.000000 [a0]

Properties computed using the SCF density matrix

  Nuclear Dipole Moment: [e a0]
     X:    -1.0090      Y:     1.9136      Z:     0.3239

  Electronic Dipole Moment: [e a0]
     X:     3.0431      Y:    -5.8816      Z:    -0.8142

  Dipole Moment: [e a0]
     X:     2.0341      Y:    -3.9680      Z:    -0.4903     Total:     4.4858

  Dipole Moment: [D]
     X:     5.1703      Y:   -10.0855      Z:    -1.2462     Total:    11.4019

*** tstop() called on ds3 at Mon Apr 27 20:43:49 2020
Module time:
	user time   =      14.31 seconds =       0.24 minutes
	system time =       6.71 seconds =       0.11 minutes
	total time  =         21 seconds =       0.35 minutes
Total time:
	user time   =      14.31 seconds =       0.24 minutes
	system time =       6.71 seconds =       0.11 minutes
	total time  =         21 seconds =       0.35 minutes
                                     G D M A

                                 by Anthony Stone

                           version 2.2.06, 22 June 2011

               Distributed Multipoles from Gaussian wavefunctions

Starting at 20:43:49 on 27 Apr 2020

Using SCF density matrix from file ./SSI/SSI-068ILE-072LYS-1-dimer.test.16518.fchk

                         Distributed Multipole Analysis

Standard DMA

Positions and radii in angstrom
Multipole moments in atomic units, ea_0^k for rank k

C          x = -1.453241  y =  1.542169  z =  0.949658 angstrom
           Maximum rank =  0   Radius =  0.650 angstrom
                   Q00  =  -0.276235

C          x = -1.954241  y =  2.970169  z =  1.152658 angstrom
           Maximum rank =  0   Radius =  0.650 angstrom
                   Q00  =  -0.214986

H          x = -0.570241  y =  1.351169  z =  1.561658 angstrom
           Maximum rank =  0   Radius =  0.325 angstrom
                   Q00  =   0.065341

H          x = -2.238241  y =  0.834169  z =  1.220658 angstrom
           Maximum rank =  0   Radius =  0.325 angstrom
                   Q00  =   0.089651

H          x = -1.204241  y =  1.375169  z = -0.099342 angstrom
           Maximum rank =  0   Radius =  0.325 angstrom
                   Q00  =   0.058883

H          x = -2.692241  y =  3.163169  z =  0.371658 angstrom
           Maximum rank =  0   Radius =  0.325 angstrom
                   Q00  =   0.089564

H          x = -1.141911  y =  3.704829  z =  1.050760 angstrom
           Maximum rank =  0   Radius =  0.325 angstrom
                   Q00  =   0.089451

H          x = -2.462251  y =  3.093449  z =  2.120503 angstrom
           Maximum rank =  0   Radius =  0.325 angstrom
                   Q00  =   0.098746

C          x =  0.563759  y = -1.270831  z = -0.516342 angstrom
           Maximum rank =  0   Radius =  0.650 angstrom
                   Q00  =  -0.033671

C          x =  1.491759  y = -0.457831  z = -1.431342 angstrom
           Maximum rank =  0   Radius =  0.650 angstrom
                   Q00  =  -0.245395

N          x =  1.235759  y = -2.531831  z = -0.157342 angstrom
           Maximum rank =  0   Radius =  0.650 angstrom
                   Q00  =  -0.135711

H          x =  0.315759  y = -0.684831  z =  0.375658 angstrom
           Maximum rank =  0   Radius =  0.325 angstrom
                   Q00  =   0.144634

H          x = -0.365241  y = -1.483831  z = -1.056342 angstrom
           Maximum rank =  0   Radius =  0.325 angstrom
                   Q00  =   0.131024

H          x =  0.904759  y =  0.350169  z = -1.872342 angstrom
           Maximum rank =  0   Radius =  0.325 angstrom
                   Q00  =   0.152347

H          x =  1.858759  y = -1.087831  z = -2.245342 angstrom
           Maximum rank =  0   Radius =  0.325 angstrom
                   Q00  =   0.097797

H          x =  2.088759  y = -2.381831  z =  0.366658 angstrom
           Maximum rank =  0   Radius =  0.325 angstrom
                   Q00  =   0.259904

H          x =  0.631759  y = -3.109831  z =  0.416658 angstrom
           Maximum rank =  0   Radius =  0.325 angstrom
                   Q00  =   0.252693

H          x =  1.464759  y = -3.077831  z = -0.979342 angstrom
           Maximum rank =  0   Radius =  0.325 angstrom
                   Q00  =   0.257444

H          x =  2.337349  y = -0.012741  z = -0.886483 angstrom
           Maximum rank =  0   Radius =  0.325 angstrom
                   Q00  =   0.118519

Total multipoles referred to origin at
           x =   0.000000,  y =    0.000000,  z =    0.000000 angstrom
                   Q00  =   1.000000

Finished at 20:43:49 on 27 Apr 2020

  DMA results are available in the Python driver through the
	  variable('DMA DISTRIBUTED MULTIPOLES')
  and
	  variable('DMA TOTAL MULTIPOLES')
  commands.

    Psi4 stopped on: Monday, 27 April 2020 08:43PM
    Psi4 wall time for execution: 0:00:20.85

*** Psi4 exiting successfully. Buy a developer a beer!
