                               Psi4 1.3.2 release

  ==> Input File <==

--------------------------------------------------------------------------
import numpy as np
set {scf_type pk
basis cc-pvdz
d_convergence 10
gdma_switch   0
gdma_limit    0
gdma_origin   [ 0.0,  0.0,  0.0 ]
}
molecule test {
    units Angstrom
    0 1
    --
    0 1
    C                0.671595938960615     1.504925115930745    -0.081505733505280
    C                0.185595938960615     2.481925115930745     0.983494266494720
    C                1.698595938960615     2.099925115930745    -1.030505733505280
    O                2.336595938960615     3.117925115930745    -0.677505733505280
    O                1.866595938960615     1.533925115930745    -2.136505733505280
    H                1.076595938960615     0.613925115930745     0.402494266494720
    H               -0.200404061039385     1.264925115930745    -0.683505733505280
    H               -0.059404061039385     3.443925115930745     0.531494266494720
    H                0.994595938960615     2.631925115930745     1.699494266494720
    H               -0.697564061039385     2.098195115930745     1.515264266494720
    C               -2.801404061039385    -3.131074884069255     1.476494266494720
    C               -0.984404061039385    -1.873074884069255     0.362494266494720
    N               -2.240404061039384    -2.288074884069255     0.420494266494720
    N               -0.107404061039385    -2.226074884069255     1.278494266494720
    N               -0.602404061039385    -1.117074884069255    -0.638505733505280
    H               -2.859404061039385    -1.994074884069255    -0.322505733505280
    H               -0.382404061039385    -2.832074884069255     2.031494266494720
    H                0.853595938960615    -1.929074884069255     1.210494266494720
    H               -1.253404061039385    -0.855074884069255    -1.363505733505280
    H                0.372595938960615    -0.898074884069255    -0.766505733505280
    H               -3.037404061039385    -2.527074884069255     2.335494266494720
    H               -2.110404061039385    -3.922074884069255     1.778494266494720
    H               -3.767774061039385    -3.572039884069255     1.190694266494720

}
e, wfn = energy('scf', return_wfn=True)
gdma(wfn)
dmavals = variable('DMA DISTRIBUTED MULTIPOLES')
charges = np.array(dmavals)
print(charges)
np.save('SSI-074GLU-096ARG-1-dimer.npy', np.array(charges))--------------------------------------------------------------------------

*** tstart() called on ds3
*** at Sun Apr 26 21:29:43 2020

   => Loading Basis Set <=

    Name: CC-PVDZ
    Role: ORBITAL
    Keyword: BASIS
    atoms 1-3, 11-12  entry C          line   138 file /theoryfs2/ds/metcalf/miniconda2/envs/tf2gpu/share/psi4/basis/cc-pvdz.gbs
    atoms 4-5         entry O          line   198 file /theoryfs2/ds/metcalf/miniconda2/envs/tf2gpu/share/psi4/basis/cc-pvdz.gbs
    atoms 6-10, 16-23 entry H          line    22 file /theoryfs2/ds/metcalf/miniconda2/envs/tf2gpu/share/psi4/basis/cc-pvdz.gbs
    atoms 13-15       entry N          line   168 file /theoryfs2/ds/metcalf/miniconda2/envs/tf2gpu/share/psi4/basis/cc-pvdz.gbs

         ---------------------------------------------------------
                                   SCF
               by Justin Turney, Rob Parrish, Andy Simmonett
                          and Daniel G. A. Smith
                              RHF Reference
                        1 Threads,    500 MiB Core
         ---------------------------------------------------------

  ==> Geometry <==

    Molecular point group: c1
    Full point group: C1

    Geometry (in Angstrom), charge = 0, multiplicity = 1:

       Center              X                  Y                   Z               Mass
    ------------   -----------------  -----------------  -----------------  -----------------
         C            0.671595938961     1.504925115931    -0.081505733505    12.000000000000
         C            0.185595938961     2.481925115931     0.983494266495    12.000000000000
         C            1.698595938961     2.099925115931    -1.030505733505    12.000000000000
         O            2.336595938961     3.117925115931    -0.677505733505    15.994914619570
         O            1.866595938961     1.533925115931    -2.136505733505    15.994914619570
         H            1.076595938961     0.613925115931     0.402494266495     1.007825032230
         H           -0.200404061039     1.264925115931    -0.683505733505     1.007825032230
         H           -0.059404061039     3.443925115931     0.531494266495     1.007825032230
         H            0.994595938961     2.631925115931     1.699494266495     1.007825032230
         H           -0.697564061039     2.098195115931     1.515264266495     1.007825032230
         C           -2.801404061039    -3.131074884069     1.476494266495    12.000000000000
         C           -0.984404061039    -1.873074884069     0.362494266495    12.000000000000
         N           -2.240404061039    -2.288074884069     0.420494266495    14.003074004430
         N           -0.107404061039    -2.226074884069     1.278494266495    14.003074004430
         N           -0.602404061039    -1.117074884069    -0.638505733505    14.003074004430
         H           -2.859404061039    -1.994074884069    -0.322505733505     1.007825032230
         H           -0.382404061039    -2.832074884069     2.031494266495     1.007825032230
         H            0.853595938961    -1.929074884069     1.210494266495     1.007825032230
         H           -1.253404061039    -0.855074884069    -1.363505733505     1.007825032230
         H            0.372595938961    -0.898074884069    -0.766505733505     1.007825032230
         H           -3.037404061039    -2.527074884069     2.335494266495     1.007825032230
         H           -2.110404061039    -3.922074884069     1.778494266495     1.007825032230
         H           -3.767774061039    -3.572039884069     1.190694266495     1.007825032230

  Running in c1 symmetry.

  Rotational constants: A =      0.09115  B =      0.01392  C =      0.01314 [cm^-1]
  Rotational constants: A =   2732.52677  B =    417.38660  C =    394.04766 [MHz]
  Nuclear repulsion =  530.512831017259145

  Charge       = 0
  Multiplicity = 1
  Electrons    = 80
  Nalpha       = 40
  Nbeta        = 40

  ==> Algorithm <==

  SCF Algorithm Type is PK.
  DIIS enabled.
  MOM disabled.
  Fractional occupation disabled.
  Guess Type is SAD.
  Energy threshold   = 1.00e-06
  Density threshold  = 1.00e-10
  Integral threshold = 0.00e+00

  ==> Primary Basis <==

  Basis Set: CC-PVDZ
    Blend: CC-PVDZ
    Number of shells: 99
    Number of basis function: 205
    Number of Cartesian functions: 215
    Spherical Harmonics?: true
    Max angular momentum: 2

  ==> Pre-Iterations <==

   -------------------------------------------------------
    Irrep   Nso     Nmo     Nalpha   Nbeta   Ndocc  Nsocc
   -------------------------------------------------------
     A        205     205       0       0       0       0
   -------------------------------------------------------
    Total     205     205      40      40      40       0
   -------------------------------------------------------

  ==> Integral Setup <==

  Using integral reordering PK algorithm.
  Sizing the integral batches needed.
  Building batch lookup table.
   Calculation information:
      Number of atoms:                  23
      Number of AO shells:              99
      Number of primitives:            285
      Number of atomic orbitals:       215
      Number of basis functions:       205

      Integral cutoff                 1.00e-12
      Number of threads:                 1

	Batch   1 pq = [       0,    9405] index = [             0,44231715] size =     44231715
	Batch   2 pq = [    9405,   13301] index = [      44231715,88464951] size =     44233236
	Batch   3 pq = [   13301,   16290] index = [      88464951,132690195] size =     44225244
	Batch   4 pq = [   16290,   18810] index = [     132690195,176917455] size =     44227260
	Batch   5 pq = [   18810,   21115] index = [     176917455,222932170] size =     46014715
  Task number: 21
  Buffer size: 11059200
  Buffer per thread: 2
  We computed 9507635 shell quartets total.
  Whereas there are 12253725 unique shell quartets.

  ==> DiskJK: Disk-Based J/K Matrices <==

    J tasked:                  Yes
    K tasked:                  Yes
    wK tasked:                  No
    Memory [MiB]:              375
    Schwarz Cutoff:          1E-12

    OpenMP threads:              1

  Minimum eigenvalue in the overlap matrix is 3.2991843713E-03.
  Using Symmetric Orthogonalization.

  SCF Guess: Superposition of Atomic Densities via on-the-fly atomic UHF.

  ==> Iterations <==

                        Total Energy        Delta E     RMS |[F,P]|

   @RHF iter SAD:  -508.75084010271189   -5.08751e+02   0.00000e+00
   @RHF iter   1:  -509.60810968229612   -8.57270e-01   3.98537e-03 DIIS
   @RHF iter   2:  -509.87485654232967   -2.66747e-01   2.11749e-03 DIIS
   @RHF iter   3:  -509.94415331583798   -6.92968e-02   3.84780e-04 DIIS
   @RHF iter   4:  -509.94814462177010   -3.99131e-03   1.41747e-04 DIIS
   @RHF iter   5:  -509.94865794706300   -5.13325e-04   2.52648e-05 DIIS
   @RHF iter   6:  -509.94868318459191   -2.52375e-05   9.75554e-06 DIIS
   @RHF iter   7:  -509.94868568335880   -2.49877e-06   3.13096e-06 DIIS
   @RHF iter   8:  -509.94868604643989   -3.63081e-07   1.12622e-06 DIIS
   @RHF iter   9:  -509.94868608927015   -4.28303e-08   3.33001e-07 DIIS
   @RHF iter  10:  -509.94868609497479   -5.70463e-09   1.02588e-07 DIIS
   @RHF iter  11:  -509.94868609560410   -6.29313e-10   3.67535e-08 DIIS
   @RHF iter  12:  -509.94868609568346   -7.93534e-11   1.58466e-08 DIIS
   @RHF iter  13:  -509.94868609569971   -1.62572e-11   5.04974e-09 DIIS
   @RHF iter  14:  -509.94868609569937    3.41061e-13   1.79101e-09 DIIS
   @RHF iter  15:  -509.94868609570040   -1.02318e-12   6.55651e-10 DIIS
   @RHF iter  16:  -509.94868609569596    4.43379e-12   2.12526e-10 DIIS
   @RHF iter  17:  -509.94868609569886   -2.89901e-12   9.50081e-11 DIIS
  Energy and wave function converged.

  ==> Post-Iterations <==

    Orbital Energies [Eh]
    ---------------------

    Doubly Occupied:

       1A    -20.362769     2A    -20.361497     3A    -15.698220
       4A    -15.695164     5A    -15.674453     6A    -11.491148
       7A    -11.365667     8A    -11.218333     9A    -11.175741
      10A    -11.174063    11A     -1.452451    12A     -1.312941
      13A     -1.291920    14A     -1.250532    15A     -1.137183
      16A     -1.060784    17A     -0.986801    18A     -0.948037
      19A     -0.884581    20A     -0.843987    21A     -0.813014
      22A     -0.768771    23A     -0.755547    24A     -0.737353
      25A     -0.711848    26A     -0.661822    27A     -0.646184
      28A     -0.617456    29A     -0.579702    30A     -0.535505
      31A     -0.518842    32A     -0.497888    33A     -0.491478
      34A     -0.467064    35A     -0.465289    36A     -0.427506
      37A     -0.408458    38A     -0.285134    39A     -0.273294
      40A     -0.259939

    Virtual:

      41A      0.082197    42A      0.107881    43A      0.121531
      44A      0.131506    45A      0.154720    46A      0.186895
      47A      0.195176    48A      0.203453    49A      0.219388
      50A      0.236694    51A      0.275166    52A      0.281968
      53A      0.300486    54A      0.311836    55A      0.323528
      56A      0.374603    57A      0.387179    58A      0.417212
      59A      0.429462    60A      0.453954    61A      0.473022
      62A      0.524496    63A      0.559903    64A      0.593871
      65A      0.600404    66A      0.603663    67A      0.615997
      68A      0.623573    69A      0.641244    70A      0.650513
      71A      0.670863    72A      0.692295    73A      0.725430
      74A      0.762648    75A      0.784588    76A      0.787008
      77A      0.790717    78A      0.795437    79A      0.818859
      80A      0.835193    81A      0.847466    82A      0.869122
      83A      0.877815    84A      0.892595    85A      0.907072
      86A      0.921637    87A      0.929085    88A      0.939075
      89A      0.942663    90A      0.946971    91A      0.955633
      92A      0.973954    93A      0.994161    94A      0.999931
      95A      1.023135    96A      1.024012    97A      1.060509
      98A      1.060878    99A      1.112466   100A      1.137997
     101A      1.168548   102A      1.185722   103A      1.193707
     104A      1.214747   105A      1.249054   106A      1.261108
     107A      1.287196   108A      1.297537   109A      1.302406
     110A      1.361174   111A      1.380077   112A      1.398278
     113A      1.423451   114A      1.435097   115A      1.468485
     116A      1.508915   117A      1.523804   118A      1.542175
     119A      1.556374   120A      1.563131   121A      1.589179
     122A      1.607450   123A      1.620610   124A      1.631061
     125A      1.639069   126A      1.706394   127A      1.715433
     128A      1.731762   129A      1.753784   130A      1.789615
     131A      1.795029   132A      1.814349   133A      1.825632
     134A      1.834655   135A      1.848205   136A      1.852664
     137A      1.872209   138A      1.892152   139A      1.923496
     140A      1.936511   141A      1.941645   142A      1.963509
     143A      1.971430   144A      1.986693   145A      2.013330
     146A      2.039554   147A      2.058800   148A      2.089016
     149A      2.098428   150A      2.107891   151A      2.130338
     152A      2.147275   153A      2.154406   154A      2.170915
     155A      2.195685   156A      2.230846   157A      2.241095
     158A      2.254023   159A      2.285795   160A      2.320754
     161A      2.360970   162A      2.378891   163A      2.388806
     164A      2.408018   165A      2.428713   166A      2.438923
     167A      2.447052   168A      2.469337   169A      2.484771
     170A      2.535534   171A      2.557575   172A      2.576215
     173A      2.615222   174A      2.627022   175A      2.657150
     176A      2.671736   177A      2.721481   178A      2.724004
     179A      2.729276   180A      2.806226   181A      2.816571
     182A      2.854981   183A      2.873132   184A      2.884693
     185A      2.895272   186A      2.929451   187A      2.955271
     188A      2.973720   189A      3.004486   190A      3.020957
     191A      3.145312   192A      3.159762   193A      3.188304
     194A      3.203251   195A      3.217036   196A      3.226628
     197A      3.264172   198A      3.534164   199A      3.676781
     200A      3.678669   201A      3.726250   202A      3.763909
     203A      3.947385   204A      3.980777   205A      4.102397

    Final Occupation by Irrep:
              A
    DOCC [    40 ]

  @RHF Final Energy:  -509.94868609569886

   => Energetics <=

    Nuclear Repulsion Energy =            530.5128310172591455
    One-Electron Energy =               -1748.3063012606664870
    Two-Electron Energy =                 707.8447841477084239
    Total Energy =                       -509.9486860956988039

Computation Completed

Properties will be evaluated at   0.000000,   0.000000,   0.000000 [a0]

Properties computed using the SCF density matrix

  Nuclear Dipole Moment: [e a0]
     X:   -10.3498      Y:    -7.9079      Z:     8.9450

  Electronic Dipole Moment: [e a0]
     X:     4.6544      Y:     0.3169      Z:    -5.6982

  Dipole Moment: [e a0]
     X:    -5.6954      Y:    -7.5910      Z:     3.2468     Total:    10.0301

  Dipole Moment: [D]
     X:   -14.4762      Y:   -19.2944      Z:     8.2527     Total:    25.4939

*** tstop() called on ds3 at Sun Apr 26 21:32:05 2020
Module time:
	user time   =      71.27 seconds =       1.19 minutes
	system time =      34.29 seconds =       0.57 minutes
	total time  =        142 seconds =       2.37 minutes
Total time:
	user time   =      71.27 seconds =       1.19 minutes
	system time =      34.29 seconds =       0.57 minutes
	total time  =        142 seconds =       2.37 minutes
                                     G D M A

                                 by Anthony Stone

                           version 2.2.06, 22 June 2011

               Distributed Multipoles from Gaussian wavefunctions

Starting at 21:32:6 on 26 Apr 2020

Using SCF density matrix from file ./SSI/SSI-074GLU-096ARG-1-dimer.test.18285.fchk

                         Distributed Multipole Analysis

Standard DMA

Positions and radii in angstrom
Multipole moments in atomic units, ea_0^k for rank k

C          x =  0.671596  y =  1.504925  z = -0.081506 angstrom
           Maximum rank =  0   Radius =  0.650 angstrom
                   Q00  =  -0.150812

C          x =  0.185596  y =  2.481925  z =  0.983494 angstrom
           Maximum rank =  0   Radius =  0.650 angstrom
                   Q00  =  -0.211702

C          x =  1.698596  y =  2.099925  z = -1.030506 angstrom
           Maximum rank =  0   Radius =  0.650 angstrom
                   Q00  =   1.059485

O          x =  2.336596  y =  3.117925  z = -0.677506 angstrom
           Maximum rank =  0   Radius =  0.650 angstrom
                   Q00  =  -0.943631

O          x =  1.866596  y =  1.533925  z = -2.136506 angstrom
           Maximum rank =  0   Radius =  0.650 angstrom
                   Q00  =  -0.954090

H          x =  1.076596  y =  0.613925  z =  0.402494 angstrom
           Maximum rank =  0   Radius =  0.325 angstrom
                   Q00  =  -0.009120

H          x = -0.200404  y =  1.264925  z = -0.683506 angstrom
           Maximum rank =  0   Radius =  0.325 angstrom
                   Q00  =   0.000037

H          x = -0.059404  y =  3.443925  z =  0.531494 angstrom
           Maximum rank =  0   Radius =  0.325 angstrom
                   Q00  =   0.111553

H          x =  0.994596  y =  2.631925  z =  1.699494 angstrom
           Maximum rank =  0   Radius =  0.325 angstrom
                   Q00  =   0.092493

H          x = -0.697564  y =  2.098195  z =  1.515264 angstrom
           Maximum rank =  0   Radius =  0.325 angstrom
                   Q00  =   0.004872

C          x = -2.801404  y = -3.131075  z =  1.476494 angstrom
           Maximum rank =  0   Radius =  0.650 angstrom
                   Q00  =  -0.119228

C          x = -0.984404  y = -1.873075  z =  0.362494 angstrom
           Maximum rank =  0   Radius =  0.650 angstrom
                   Q00  =   1.076440

N          x = -2.240404  y = -2.288075  z =  0.420494 angstrom
           Maximum rank =  0   Radius =  0.650 angstrom
                   Q00  =  -0.498746

N          x = -0.107404  y = -2.226075  z =  1.278494 angstrom
           Maximum rank =  0   Radius =  0.650 angstrom
                   Q00  =  -0.582101

N          x = -0.602404  y = -1.117075  z = -0.638506 angstrom
           Maximum rank =  0   Radius =  0.650 angstrom
                   Q00  =  -0.549598

H          x = -2.859404  y = -1.994075  z = -0.322506 angstrom
           Maximum rank =  0   Radius =  0.325 angstrom
                   Q00  =   0.229068

H          x = -0.382404  y = -2.832075  z =  2.031494 angstrom
           Maximum rank =  0   Radius =  0.325 angstrom
                   Q00  =   0.253837

H          x =  0.853596  y = -1.929075  z =  1.210494 angstrom
           Maximum rank =  0   Radius =  0.325 angstrom
                   Q00  =   0.276586

H          x = -1.253404  y = -0.855075  z = -1.363506 angstrom
           Maximum rank =  0   Radius =  0.325 angstrom
                   Q00  =   0.264497

H          x =  0.372596  y = -0.898075  z = -0.766506 angstrom
           Maximum rank =  0   Radius =  0.325 angstrom
                   Q00  =   0.276066

H          x = -3.037404  y = -2.527075  z =  2.335494 angstrom
           Maximum rank =  0   Radius =  0.325 angstrom
                   Q00  =   0.117499

H          x = -2.110404  y = -3.922075  z =  1.778494 angstrom
           Maximum rank =  0   Radius =  0.325 angstrom
                   Q00  =   0.105056

H          x = -3.767774  y = -3.572040  z =  1.190694 angstrom
           Maximum rank =  0   Radius =  0.325 angstrom
                   Q00  =   0.151538

Total multipoles referred to origin at
           x =   0.000000,  y =    0.000000,  z =    0.000000 angstrom
                   Q00  =  -0.000000

Finished at 21:32:6 on 26 Apr 2020

  DMA results are available in the Python driver through the
	  variable('DMA DISTRIBUTED MULTIPOLES')
  and
	  variable('DMA TOTAL MULTIPOLES')
  commands.

    Psi4 stopped on: Sunday, 26 April 2020 09:32PM
    Psi4 wall time for execution: 0:02:22.26

*** Psi4 exiting successfully. Buy a developer a beer!
