                               Psi4 1.3.2 release

  ==> Input File <==

--------------------------------------------------------------------------
import numpy as np
set {scf_type pk
basis cc-pvdz
d_convergence 10
gdma_switch   0
gdma_limit    0
gdma_origin   [ 0.0,  0.0,  0.0 ]
}
molecule test {
    units Angstrom
    0 1
    --
    0 1
    C                2.006551145438672     0.307759448168654     1.639617735641173
    C                2.394551145438672    -0.866240551831346     0.755617735641173
    H                2.274551145438672     1.249759448168654     1.160617735641173
    H                0.931551145438672     0.308759448168654     1.806617735641173
    H                2.508551145438672     0.231759448168654     2.605617735641173
    H                1.997551145438672    -0.687240551831346    -0.241382264358827
    H                3.487151145438672    -0.977160551831346     0.692956735641173
    H                1.942931145438672    -1.794840551831346     1.134743735641173
    C               -1.029448854561328     0.131759448168654    -0.511382264358827
    C               -2.335448854561328    -0.582240551831346    -0.163382264358827
    C               -1.103448854561328     1.020759448168654    -1.754382264358827
    H               -0.734448854561328     0.749759448168654     0.336617735641173
    H               -0.260448854561328    -0.623240551831346    -0.673382264358827
    H               -2.694448854561328    -1.137240551831346    -1.030382264358827
    H               -1.873448854561328     1.775759448168654    -1.624382264358827
    H               -3.103188854561327     0.141009448168654     0.148842735641173
    H               -2.162158854561328    -1.331710551831346     0.622913735641173
    H               -0.144968854561328     1.539759448168654    -1.902563264358827
    H               -1.368508854561328     0.414399448168654    -2.633059264358827

}
e, wfn = energy('scf', return_wfn=True)
gdma(wfn)
dmavals = variable('DMA DISTRIBUTED MULTIPOLES')
charges = np.array(dmavals)
print(charges)
np.save('SSI-004LEU-179LEU-1-dimer.npy', np.array(charges))--------------------------------------------------------------------------

*** tstart() called on ds3
*** at Sun Apr 26 20:06:25 2020

   => Loading Basis Set <=

    Name: CC-PVDZ
    Role: ORBITAL
    Keyword: BASIS
    atoms 1-2, 9-11  entry C          line   138 file /theoryfs2/ds/metcalf/miniconda2/envs/tf2gpu/share/psi4/basis/cc-pvdz.gbs
    atoms 3-8, 12-19 entry H          line    22 file /theoryfs2/ds/metcalf/miniconda2/envs/tf2gpu/share/psi4/basis/cc-pvdz.gbs

         ---------------------------------------------------------
                                   SCF
               by Justin Turney, Rob Parrish, Andy Simmonett
                          and Daniel G. A. Smith
                              RHF Reference
                        1 Threads,    500 MiB Core
         ---------------------------------------------------------

  ==> Geometry <==

    Molecular point group: c1
    Full point group: C1

    Geometry (in Angstrom), charge = 0, multiplicity = 1:

       Center              X                  Y                   Z               Mass
    ------------   -----------------  -----------------  -----------------  -----------------
         C            2.006551145439     0.307759448169     1.639617735641    12.000000000000
         C            2.394551145439    -0.866240551831     0.755617735641    12.000000000000
         H            2.274551145439     1.249759448169     1.160617735641     1.007825032230
         H            0.931551145439     0.308759448169     1.806617735641     1.007825032230
         H            2.508551145439     0.231759448169     2.605617735641     1.007825032230
         H            1.997551145439    -0.687240551831    -0.241382264359     1.007825032230
         H            3.487151145439    -0.977160551831     0.692956735641     1.007825032230
         H            1.942931145439    -1.794840551831     1.134743735641     1.007825032230
         C           -1.029448854561     0.131759448169    -0.511382264359    12.000000000000
         C           -2.335448854561    -0.582240551831    -0.163382264359    12.000000000000
         C           -1.103448854561     1.020759448169    -1.754382264359    12.000000000000
         H           -0.734448854561     0.749759448169     0.336617735641     1.007825032230
         H           -0.260448854561    -0.623240551831    -0.673382264359     1.007825032230
         H           -2.694448854561    -1.137240551831    -1.030382264359     1.007825032230
         H           -1.873448854561     1.775759448169    -1.624382264359     1.007825032230
         H           -3.103188854561     0.141009448169     0.148842735641     1.007825032230
         H           -2.162158854561    -1.331710551831     0.622913735641     1.007825032230
         H           -0.144968854561     1.539759448169    -1.902563264359     1.007825032230
         H           -1.368508854561     0.414399448169    -2.633059264359     1.007825032230

  Running in c1 symmetry.

  Rotational constants: A =      0.19683  B =      0.04653  C =      0.04267 [cm^-1]
  Rotational constants: A =   5900.93752  B =   1394.84412  C =   1279.14052 [MHz]
  Nuclear repulsion =  181.201055780042935

  Charge       = 0
  Multiplicity = 1
  Electrons    = 44
  Nalpha       = 22
  Nbeta        = 22

  ==> Algorithm <==

  SCF Algorithm Type is PK.
  DIIS enabled.
  MOM disabled.
  Fractional occupation disabled.
  Guess Type is SAD.
  Energy threshold   = 1.00e-06
  Density threshold  = 1.00e-10
  Integral threshold = 0.00e+00

  ==> Primary Basis <==

  Basis Set: CC-PVDZ
    Blend: CC-PVDZ
    Number of shells: 72
    Number of basis function: 140
    Number of Cartesian functions: 145
    Spherical Harmonics?: true
    Max angular momentum: 2

  ==> Pre-Iterations <==

   -------------------------------------------------------
    Irrep   Nso     Nmo     Nalpha   Nbeta   Ndocc  Nsocc
   -------------------------------------------------------
     A        140     140       0       0       0       0
   -------------------------------------------------------
    Total     140     140      22      22      22       0
   -------------------------------------------------------

  ==> Integral Setup <==

  Using integral reordering PK algorithm.
  Sizing the integral batches needed.
  Building batch lookup table.
   Calculation information:
      Number of atoms:                  19
      Number of AO shells:              72
      Number of primitives:            180
      Number of atomic orbitals:       145
      Number of basis functions:       140

      Integral cutoff                 1.00e-12
      Number of threads:                 1

	Batch   1 pq = [       0,    9405] index = [             0,44231715] size =     44231715
	Batch   2 pq = [    9405,    9870] index = [      44231715,48713385] size =      4481670
  Task number: 5
  Buffer size: 11059200
  Buffer per thread: 2
  We computed 3051931 shell quartets total.
  Whereas there are 3454506 unique shell quartets.

  ==> DiskJK: Disk-Based J/K Matrices <==

    J tasked:                  Yes
    K tasked:                  Yes
    wK tasked:                  No
    Memory [MiB]:              375
    Schwarz Cutoff:          1E-12

    OpenMP threads:              1

  Minimum eigenvalue in the overlap matrix is 5.4122410688E-03.
  Using Symmetric Orthogonalization.

  SCF Guess: Superposition of Atomic Densities via on-the-fly atomic UHF.

  ==> Iterations <==

                        Total Energy        Delta E     RMS |[F,P]|

   @RHF iter SAD:  -196.37905982660490   -1.96379e+02   0.00000e+00
   @RHF iter   1:  -197.31093759012867   -9.31878e-01   3.80529e-03 DIIS
   @RHF iter   2:  -197.47146413162369   -1.60527e-01   1.63839e-03 DIIS
   @RHF iter   3:  -197.49985810985115   -2.83940e-02   3.26016e-04 DIIS
   @RHF iter   4:  -197.50208650138936   -2.22839e-03   4.89426e-05 DIIS
   @RHF iter   5:  -197.50212512714552   -3.86258e-05   1.50764e-05 DIIS
   @RHF iter   6:  -197.50212856845346   -3.44131e-06   2.24989e-06 DIIS
   @RHF iter   7:  -197.50212866306518   -9.46117e-08   4.39185e-07 DIIS
   @RHF iter   8:  -197.50212866679522   -3.73004e-09   1.18227e-07 DIIS
   @RHF iter   9:  -197.50212866705425   -2.59035e-10   3.47483e-08 DIIS
   @RHF iter  10:  -197.50212866708321   -2.89617e-11   7.90098e-09 DIIS
   @RHF iter  11:  -197.50212866708443   -1.22213e-12   1.56870e-09 DIIS
   @RHF iter  12:  -197.50212866708515   -7.10543e-13   3.02729e-10 DIIS
   @RHF iter  13:  -197.50212866708515    0.00000e+00   4.80677e-11 DIIS
  Energy and wave function converged.

  ==> Post-Iterations <==

    Orbital Energies [Eh]
    ---------------------

    Doubly Occupied:

       1A    -11.219292     2A    -11.217895     3A    -11.217784
       4A    -11.217540     5A    -11.215378     6A     -1.052853
       7A     -1.019927     8A     -0.925075     9A     -0.836215
      10A     -0.796502    11A     -0.627069    12A     -0.603344
      13A     -0.597813    14A     -0.589321    15A     -0.549275
      16A     -0.532660    17A     -0.502999    18A     -0.488745
      19A     -0.484647    20A     -0.472986    21A     -0.465604
      22A     -0.464381

    Virtual:

      23A      0.168856    24A      0.198504    25A      0.209391
      26A      0.221255    27A      0.241987    28A      0.249441
      29A      0.262763    30A      0.267252    31A      0.277023
      32A      0.284810    33A      0.294729    34A      0.301129
      35A      0.338488    36A      0.341344    37A      0.367892
      38A      0.400768    39A      0.435597    40A      0.567298
      41A      0.575977    42A      0.591933    43A      0.605385
      44A      0.606447    45A      0.616713    46A      0.636841
      47A      0.662225    48A      0.717529    49A      0.779750
      50A      0.788751    51A      0.812560    52A      0.846443
      53A      0.853324    54A      0.878005    55A      0.887167
      56A      0.889448    57A      0.891174    58A      0.895545
      59A      0.905226    60A      0.908585    61A      0.920772
      62A      0.926938    63A      0.929019    64A      0.961933
      65A      0.966424    66A      0.973101    67A      0.992662
      68A      1.005785    69A      1.120706    70A      1.124758
      71A      1.143012    72A      1.153715    73A      1.209454
      74A      1.249252    75A      1.377625    76A      1.464363
      77A      1.473099    78A      1.479517    79A      1.486703
      80A      1.536777    81A      1.582942    82A      1.624847
      83A      1.666938    84A      1.684889    85A      1.691393
      86A      1.702628    87A      1.714633    88A      1.856715
      89A      1.861877    90A      1.874783    91A      1.886439
      92A      1.892402    93A      1.906516    94A      1.915872
      95A      1.925839    96A      1.941988    97A      1.947338
      98A      1.951768    99A      1.956809   100A      1.967887
     101A      1.970257   102A      1.972230   103A      1.991767
     104A      1.995246   105A      2.000341   106A      2.018672
     107A      2.038145   108A      2.114939   109A      2.128650
     110A      2.139646   111A      2.155480   112A      2.280598
     113A      2.294816   114A      2.305918   115A      2.317219
     116A      2.336922   117A      2.346227   118A      2.448230
     119A      2.460273   120A      2.498798   121A      2.527889
     122A      2.574347   123A      2.584695   124A      2.590567
     125A      2.612410   126A      2.624045   127A      2.750975
     128A      2.754026   129A      2.767361   130A      2.782545
     131A      2.794501   132A      2.806066   133A      2.855669
     134A      2.864702   135A      2.915189   136A      2.959525
     137A      2.961622   138A      2.968702   139A      2.976813
     140A      3.089952

    Final Occupation by Irrep:
              A
    DOCC [    22 ]

  @RHF Final Energy:  -197.50212866708515

   => Energetics <=

    Nuclear Repulsion Energy =            181.2010557800429353
    One-Electron Energy =                -623.2117634740626499
    Two-Electron Energy =                 244.5085790269345978
    Total Energy =                       -197.5021286670851453

Computation Completed

Properties will be evaluated at   0.000000,   0.000000,   0.000000 [a0]

Properties computed using the SCF density matrix

  Nuclear Dipole Moment: [e a0]
     X:     0.7506      Y:    -0.1317      Z:     0.3785

  Electronic Dipole Moment: [e a0]
     X:    -0.7410      Y:     0.1319      Z:    -0.3677

  Dipole Moment: [e a0]
     X:     0.0096      Y:     0.0002      Z:     0.0108     Total:     0.0144

  Dipole Moment: [D]
     X:     0.0244      Y:     0.0006      Z:     0.0274     Total:     0.0367

*** tstop() called on ds3 at Sun Apr 26 20:06:47 2020
Module time:
	user time   =      15.97 seconds =       0.27 minutes
	system time =       6.12 seconds =       0.10 minutes
	total time  =         22 seconds =       0.37 minutes
Total time:
	user time   =      15.97 seconds =       0.27 minutes
	system time =       6.12 seconds =       0.10 minutes
	total time  =         22 seconds =       0.37 minutes
                                     G D M A

                                 by Anthony Stone

                           version 2.2.06, 22 June 2011

               Distributed Multipoles from Gaussian wavefunctions

Starting at 20:6:47 on 26 Apr 2020

Using SCF density matrix from file ./SSI/SSI-004LEU-179LEU-1-dimer.test.11797.fchk

                         Distributed Multipole Analysis

Standard DMA

Positions and radii in angstrom
Multipole moments in atomic units, ea_0^k for rank k

C          x =  2.006551  y =  0.307759  z =  1.639618 angstrom
           Maximum rank =  0   Radius =  0.650 angstrom
                   Q00  =  -0.235599

C          x =  2.394551  y = -0.866241  z =  0.755618 angstrom
           Maximum rank =  0   Radius =  0.650 angstrom
                   Q00  =  -0.234626

H          x =  2.274551  y =  1.249759  z =  1.160618 angstrom
           Maximum rank =  0   Radius =  0.325 angstrom
                   Q00  =   0.077174

H          x =  0.931551  y =  0.308759  z =  1.806618 angstrom
           Maximum rank =  0   Radius =  0.325 angstrom
                   Q00  =   0.081630

H          x =  2.508551  y =  0.231759  z =  2.605618 angstrom
           Maximum rank =  0   Radius =  0.325 angstrom
                   Q00  =   0.077121

H          x =  1.997551  y = -0.687241  z = -0.241382 angstrom
           Maximum rank =  0   Radius =  0.325 angstrom
                   Q00  =   0.078340

H          x =  3.487151  y = -0.977161  z =  0.692957 angstrom
           Maximum rank =  0   Radius =  0.325 angstrom
                   Q00  =   0.079183

H          x =  1.942931  y = -1.794841  z =  1.134744 angstrom
           Maximum rank =  0   Radius =  0.325 angstrom
                   Q00  =   0.076714

C          x = -1.029449  y =  0.131759  z = -0.511382 angstrom
           Maximum rank =  0   Radius =  0.650 angstrom
                   Q00  =  -0.073517

C          x = -2.335449  y = -0.582241  z = -0.163382 angstrom
           Maximum rank =  0   Radius =  0.650 angstrom
                   Q00  =  -0.247461

C          x = -1.103449  y =  1.020759  z = -1.754382 angstrom
           Maximum rank =  0   Radius =  0.650 angstrom
                   Q00  =  -0.244841

H          x = -0.734449  y =  0.749759  z =  0.336618 angstrom
           Maximum rank =  0   Radius =  0.325 angstrom
                   Q00  =   0.046187

H          x = -0.260449  y = -0.623241  z = -0.673382 angstrom
           Maximum rank =  0   Radius =  0.325 angstrom
                   Q00  =   0.045541

H          x = -2.694449  y = -1.137241  z = -1.030382 angstrom
           Maximum rank =  0   Radius =  0.325 angstrom
                   Q00  =   0.075747

H          x = -1.873449  y =  1.775759  z = -1.624382 angstrom
           Maximum rank =  0   Radius =  0.325 angstrom
                   Q00  =   0.077175

H          x = -3.103189  y =  0.141009  z =  0.148843 angstrom
           Maximum rank =  0   Radius =  0.325 angstrom
                   Q00  =   0.077753

H          x = -2.162159  y = -1.331711  z =  0.622914 angstrom
           Maximum rank =  0   Radius =  0.325 angstrom
                   Q00  =   0.083103

H          x = -0.144969  y =  1.539759  z = -1.902563 angstrom
           Maximum rank =  0   Radius =  0.325 angstrom
                   Q00  =   0.084029

H          x = -1.368509  y =  0.414399  z = -2.633059 angstrom
           Maximum rank =  0   Radius =  0.325 angstrom
                   Q00  =   0.076347

Total multipoles referred to origin at
           x =   0.000000,  y =    0.000000,  z =    0.000000 angstrom
                   Q00  =  -0.000000

Finished at 20:6:47 on 26 Apr 2020

  DMA results are available in the Python driver through the
	  variable('DMA DISTRIBUTED MULTIPOLES')
  and
	  variable('DMA TOTAL MULTIPOLES')
  commands.

    Psi4 stopped on: Sunday, 26 April 2020 08:06PM
    Psi4 wall time for execution: 0:00:21.95

*** Psi4 exiting successfully. Buy a developer a beer!
