                               Psi4 1.3.2 release

  ==> Input File <==

--------------------------------------------------------------------------
import numpy as np
set {scf_type pk
basis cc-pvdz
d_convergence 10
gdma_switch   0
gdma_limit    0
gdma_origin   [ 0.0,  0.0,  0.0 ]
}
molecule test {
    units Angstrom
    0 1
    --
    0 1
    C                1.959433966569256    -1.535991372334720    -2.231194834509152
    C                2.815433966569256    -1.217991372334720    -1.018194834509152
    H                1.710433966569256    -0.610991372334720    -2.749194834509152
    H                2.501433966569255    -2.185991372334720    -2.916194834509152
    H                1.032433966569255    -2.015991372334720    -1.921194834509152
    H                2.243433966569256    -0.586991372334720    -0.346194834509152
    H                3.059712966569256    -2.148989372334720    -0.485684834509152
    H                3.722362966569256    -0.672399372334720    -1.317874834509152
    C               -2.496566033430744    -0.731991372334720     1.816805165490848
    C               -0.479566033430745     0.623008627665280    -1.092194834509152
    C                0.526433966569255     1.336008627665280    -0.440194834509152
    C               -1.455566033430745    -0.036991372334720    -0.367194834509152
    C               -1.448566033430745     0.009008627665280     1.018805165490848
    C                0.553433966569255     1.377008627665280     0.943805165490848
    C               -0.431566033430745     0.717008627665280     1.668805165490848
    H               -0.475566033430745     0.544008627665280    -2.167194834509152
    H                1.293433966569255     1.842008627665280    -1.011194834509152
    H               -2.218566033430745    -0.597991372334720    -0.888194834509152
    H                1.324433966569255     1.941008627665280     1.440805165490848
    H               -3.406566033430745    -0.807991372334720     1.219805165490848
    H               -2.744566033430744    -0.144991372334720     2.702805165490848
    H               -0.419566033430745     0.764008627665280     2.744805165490848
    H               -2.180306033430744    -1.737411372334720     2.131626165490848

}
e, wfn = energy('scf', return_wfn=True)
gdma(wfn)
dmavals = variable('DMA DISTRIBUTED MULTIPOLES')
charges = np.array(dmavals)
print(charges)
np.save('SSI-097LEU-128PHE-1-dimer.npy', np.array(charges))--------------------------------------------------------------------------

*** tstart() called on ds3
*** at Mon Apr 27 13:47:45 2020

   => Loading Basis Set <=

    Name: CC-PVDZ
    Role: ORBITAL
    Keyword: BASIS
    atoms 1-2, 9-15  entry C          line   138 file /theoryfs2/ds/metcalf/miniconda2/envs/tf2gpu/share/psi4/basis/cc-pvdz.gbs
    atoms 3-8, 16-23 entry H          line    22 file /theoryfs2/ds/metcalf/miniconda2/envs/tf2gpu/share/psi4/basis/cc-pvdz.gbs

         ---------------------------------------------------------
                                   SCF
               by Justin Turney, Rob Parrish, Andy Simmonett
                          and Daniel G. A. Smith
                              RHF Reference
                        1 Threads,    500 MiB Core
         ---------------------------------------------------------

  ==> Geometry <==

    Molecular point group: c1
    Full point group: C1

    Geometry (in Angstrom), charge = 0, multiplicity = 1:

       Center              X                  Y                   Z               Mass
    ------------   -----------------  -----------------  -----------------  -----------------
         C            1.959433966569    -1.535991372335    -2.231194834509    12.000000000000
         C            2.815433966569    -1.217991372335    -1.018194834509    12.000000000000
         H            1.710433966569    -0.610991372335    -2.749194834509     1.007825032230
         H            2.501433966569    -2.185991372335    -2.916194834509     1.007825032230
         H            1.032433966569    -2.015991372335    -1.921194834509     1.007825032230
         H            2.243433966569    -0.586991372335    -0.346194834509     1.007825032230
         H            3.059712966569    -2.148989372335    -0.485684834509     1.007825032230
         H            3.722362966569    -0.672399372335    -1.317874834509     1.007825032230
         C           -2.496566033431    -0.731991372335     1.816805165491    12.000000000000
         C           -0.479566033431     0.623008627665    -1.092194834509    12.000000000000
         C            0.526433966569     1.336008627665    -0.440194834509    12.000000000000
         C           -1.455566033431    -0.036991372335    -0.367194834509    12.000000000000
         C           -1.448566033431     0.009008627665     1.018805165491    12.000000000000
         C            0.553433966569     1.377008627665     0.943805165491    12.000000000000
         C           -0.431566033431     0.717008627665     1.668805165491    12.000000000000
         H           -0.475566033431     0.544008627665    -2.167194834509     1.007825032230
         H            1.293433966569     1.842008627665    -1.011194834509     1.007825032230
         H           -2.218566033431    -0.597991372335    -0.888194834509     1.007825032230
         H            1.324433966569     1.941008627665     1.440805165491     1.007825032230
         H           -3.406566033431    -0.807991372335     1.219805165491     1.007825032230
         H           -2.744566033431    -0.144991372335     2.702805165491     1.007825032230
         H           -0.419566033431     0.764008627665     2.744805165491     1.007825032230
         H           -2.180306033431    -1.737411372335     2.131626165491     1.007825032230

  Running in c1 symmetry.

  Rotational constants: A =      0.07790  B =      0.02853  C =      0.02638 [cm^-1]
  Rotational constants: A =   2335.24263  B =    855.42846  C =    790.92489 [MHz]
  Nuclear repulsion =  419.432734019281156

  Charge       = 0
  Multiplicity = 1
  Electrons    = 68
  Nalpha       = 34
  Nbeta        = 34

  ==> Algorithm <==

  SCF Algorithm Type is PK.
  DIIS enabled.
  MOM disabled.
  Fractional occupation disabled.
  Guess Type is SAD.
  Energy threshold   = 1.00e-06
  Density threshold  = 1.00e-10
  Integral threshold = 0.00e+00

  ==> Primary Basis <==

  Basis Set: CC-PVDZ
    Blend: CC-PVDZ
    Number of shells: 96
    Number of basis function: 196
    Number of Cartesian functions: 205
    Spherical Harmonics?: true
    Max angular momentum: 2

  ==> Pre-Iterations <==

   -------------------------------------------------------
    Irrep   Nso     Nmo     Nalpha   Nbeta   Ndocc  Nsocc
   -------------------------------------------------------
     A        196     196       0       0       0       0
   -------------------------------------------------------
    Total     196     196      34      34      34       0
   -------------------------------------------------------

  ==> Integral Setup <==

  Using integral reordering PK algorithm.
  Sizing the integral batches needed.
  Building batch lookup table.
   Calculation information:
      Number of atoms:                  23
      Number of AO shells:              96
      Number of primitives:            268
      Number of atomic orbitals:       205
      Number of basis functions:       196

      Integral cutoff                 1.00e-12
      Number of threads:                 1

	Batch   1 pq = [       0,    9405] index = [             0,44231715] size =     44231715
	Batch   2 pq = [    9405,   13301] index = [      44231715,88464951] size =     44233236
	Batch   3 pq = [   13301,   16290] index = [      88464951,132690195] size =     44225244
	Batch   4 pq = [   16290,   18810] index = [     132690195,176917455] size =     44227260
	Batch   5 pq = [   18810,   19306] index = [     176917455,186370471] size =      9453016
  Task number: 17
  Buffer size: 11059200
  Buffer per thread: 2
  We computed 10281175 shell quartets total.
  Whereas there are 10841496 unique shell quartets.

  ==> DiskJK: Disk-Based J/K Matrices <==

    J tasked:                  Yes
    K tasked:                  Yes
    wK tasked:                  No
    Memory [MiB]:              375
    Schwarz Cutoff:          1E-12

    OpenMP threads:              1

  Minimum eigenvalue in the overlap matrix is 3.0378435855E-04.
  Using Symmetric Orthogonalization.

  SCF Guess: Superposition of Atomic Densities via on-the-fly atomic UHF.

  ==> Iterations <==

                        Total Energy        Delta E     RMS |[F,P]|

   @RHF iter SAD:  -347.94916194232638   -3.47949e+02   0.00000e+00
   @RHF iter   1:  -348.76306405160989   -8.13902e-01   2.91223e-03 DIIS
   @RHF iter   2:  -348.95664236323097   -1.93578e-01   1.21497e-03 DIIS
   @RHF iter   3:  -348.98741712692612   -3.07748e-02   2.60378e-04 DIIS
   @RHF iter   4:  -348.98991496811180   -2.49784e-03   5.17480e-05 DIIS
   @RHF iter   5:  -348.98998697836078   -7.20102e-05   1.67454e-05 DIIS
   @RHF iter   6:  -348.98999399623733   -7.01788e-06   4.65790e-06 DIIS
   @RHF iter   7:  -348.98999459404490   -5.97808e-07   1.26779e-06 DIIS
   @RHF iter   8:  -348.98999464313579   -4.90909e-08   2.94148e-07 DIIS
   @RHF iter   9:  -348.98999464795924   -4.82345e-09   1.29637e-07 DIIS
   @RHF iter  10:  -348.98999464894996   -9.90724e-10   5.89372e-08 DIIS
   @RHF iter  11:  -348.98999464930614   -3.56181e-10   2.61846e-08 DIIS
   @RHF iter  12:  -348.98999464937600   -6.98606e-11   1.30938e-08 DIIS
   @RHF iter  13:  -348.98999464939288   -1.68825e-11   4.06145e-09 DIIS
   @RHF iter  14:  -348.98999464939413   -1.25056e-12   1.17808e-09 DIIS
   @RHF iter  15:  -348.98999464939232    1.81899e-12   3.77746e-10 DIIS
   @RHF iter  16:  -348.98999464939305   -7.38964e-13   1.31063e-10 DIIS
   @RHF iter  17:  -348.98999464939237    6.82121e-13   5.77771e-11 DIIS
  Energy and wave function converged.

  ==> Post-Iterations <==

    Orbital Energies [Eh]
    ---------------------

    Doubly Occupied:

       1A    -11.241455     2A    -11.235004     3A    -11.234258
       4A    -11.231187     5A    -11.230995     6A    -11.230600
       7A    -11.229641     8A    -11.208969     9A    -11.207113
      10A     -1.155233    11A     -1.044950    12A     -1.015247
      13A     -1.012483    14A     -0.931986    15A     -0.829574
      16A     -0.824876    17A     -0.797370    18A     -0.693186
      19A     -0.633010    20A     -0.630645    21A     -0.594171
      22A     -0.593072    23A     -0.584292    24A     -0.576951
      25A     -0.562082    26A     -0.535467    27A     -0.496190
      28A     -0.489129    29A     -0.484817    30A     -0.483072
      31A     -0.478636    32A     -0.472766    33A     -0.334685
      34A     -0.321737

    Virtual:

      35A      0.135161    36A      0.138852    37A      0.176339
      38A      0.195616    39A      0.210803    40A      0.215026
      41A      0.235182    42A      0.241914    43A      0.256150
      44A      0.268451    45A      0.272045    46A      0.281515
      47A      0.285307    48A      0.288018    49A      0.315237
      50A      0.328110    51A      0.367057    52A      0.375803
      53A      0.403753    54A      0.453706    55A      0.465649
      56A      0.481863    57A      0.492317    58A      0.557404
      59A      0.584946    60A      0.600098    61A      0.604797
      62A      0.619516    63A      0.637830    64A      0.656243
      65A      0.675502    66A      0.684898    67A      0.691358
      68A      0.706574    69A      0.735682    70A      0.742530
      71A      0.744139    72A      0.762238    73A      0.770932
      74A      0.778762    75A      0.794762    76A      0.836351
      77A      0.848737    78A      0.852277    79A      0.865720
      80A      0.876692    81A      0.881012    82A      0.890565
      83A      0.894168    84A      0.898678    85A      0.900224
      86A      0.916611    87A      0.923667    88A      0.931795
      89A      0.938312    90A      0.945707    91A      0.964390
      92A      0.991397    93A      0.997710    94A      1.021405
      95A      1.050354    96A      1.061308    97A      1.115691
      98A      1.127393    99A      1.135873   100A      1.158294
     101A      1.159492   102A      1.169319   103A      1.218320
     104A      1.231982   105A      1.243167   106A      1.251272
     107A      1.257066   108A      1.288586   109A      1.308119
     110A      1.312204   111A      1.331835   112A      1.339217
     113A      1.415473   114A      1.480772   115A      1.494591
     116A      1.510162   117A      1.526512   118A      1.557150
     119A      1.599091   120A      1.618700   121A      1.671723
     122A      1.692038   123A      1.697397   124A      1.708609
     125A      1.746514   126A      1.754121   127A      1.783172
     128A      1.812112   129A      1.819561   130A      1.862004
     131A      1.871874   132A      1.888381   133A      1.893776
     134A      1.896990   135A      1.909752   136A      1.913733
     137A      1.925286   138A      1.941451   139A      1.945932
     140A      1.947336   141A      1.954186   142A      1.957617
     143A      1.967923   144A      1.977187   145A      1.983037
     146A      1.997043   147A      2.001407   148A      2.026635
     149A      2.051505   150A      2.068126   151A      2.078593
     152A      2.104459   153A      2.125141   154A      2.141348
     155A      2.150623   156A      2.160891   157A      2.173328
     158A      2.178092   159A      2.184712   160A      2.260785
     161A      2.280584   162A      2.293257   163A      2.297643
     164A      2.313141   165A      2.318993   166A      2.329851
     167A      2.357975   168A      2.462032   169A      2.471557
     170A      2.480892   171A      2.491538   172A      2.501552
     173A      2.540603   174A      2.584515   175A      2.587843
     176A      2.622060   177A      2.744777   178A      2.754042
     179A      2.768599   180A      2.781541   181A      2.793705
     182A      2.812053   183A      2.817190   184A      2.844614
     185A      2.865222   186A      2.873256   187A      2.901401
     188A      2.964317   189A      2.987059   190A      3.004328
     191A      3.021225   192A      3.060929   193A      3.157100
     194A      3.207991   195A      3.311637   196A      3.983473

    Final Occupation by Irrep:
              A
    DOCC [    34 ]

  @RHF Final Energy:  -348.98999464939237

   => Energetics <=

    Nuclear Repulsion Energy =            419.4327340192811562
    One-Electron Energy =               -1301.5957672019080746
    Two-Electron Energy =                 533.1730385332346032
    Total Energy =                       -348.9899946493923153

Computation Completed

Properties will be evaluated at   0.000000,   0.000000,   0.000000 [a0]

Properties computed using the SCF density matrix

  Nuclear Dipole Moment: [e a0]
     X:     5.1022      Y:    -6.0173      Z:    -3.3403

  Electronic Dipole Moment: [e a0]
     X:    -5.2518      Y:     5.9842      Z:     3.4634

  Dipole Moment: [e a0]
     X:    -0.1496      Y:    -0.0332      Z:     0.1231     Total:     0.1965

  Dipole Moment: [D]
     X:    -0.3801      Y:    -0.0844      Z:     0.3129     Total:     0.4995

*** tstop() called on ds3 at Mon Apr 27 13:49:50 2020
Module time:
	user time   =      72.38 seconds =       1.21 minutes
	system time =      27.69 seconds =       0.46 minutes
	total time  =        125 seconds =       2.08 minutes
Total time:
	user time   =      72.38 seconds =       1.21 minutes
	system time =      27.69 seconds =       0.46 minutes
	total time  =        125 seconds =       2.08 minutes
                                     G D M A

                                 by Anthony Stone

                           version 2.2.06, 22 June 2011

               Distributed Multipoles from Gaussian wavefunctions

Starting at 13:49:50 on 27 Apr 2020

Using SCF density matrix from file ./SSI/SSI-097LEU-128PHE-1-dimer.test.7839.fchk

                         Distributed Multipole Analysis

Standard DMA

Positions and radii in angstrom
Multipole moments in atomic units, ea_0^k for rank k

C          x =  1.959434  y = -1.535991  z = -2.231195 angstrom
           Maximum rank =  0   Radius =  0.650 angstrom
                   Q00  =  -0.217802

C          x =  2.815434  y = -1.217991  z = -1.018195 angstrom
           Maximum rank =  0   Radius =  0.650 angstrom
                   Q00  =  -0.247321

H          x =  1.710434  y = -0.610991  z = -2.749195 angstrom
           Maximum rank =  0   Radius =  0.325 angstrom
                   Q00  =   0.068530

H          x =  2.501434  y = -2.185991  z = -2.916195 angstrom
           Maximum rank =  0   Radius =  0.325 angstrom
                   Q00  =   0.074091

H          x =  1.032434  y = -2.015991  z = -1.921195 angstrom
           Maximum rank =  0   Radius =  0.325 angstrom
                   Q00  =   0.081281

H          x =  2.243434  y = -0.586991  z = -0.346195 angstrom
           Maximum rank =  0   Radius =  0.325 angstrom
                   Q00  =   0.095655

H          x =  3.059713  y = -2.148989  z = -0.485685 angstrom
           Maximum rank =  0   Radius =  0.325 angstrom
                   Q00  =   0.073647

H          x =  3.722363  y = -0.672399  z = -1.317875 angstrom
           Maximum rank =  0   Radius =  0.325 angstrom
                   Q00  =   0.069989

C          x = -2.496566  y = -0.731991  z =  1.816805 angstrom
           Maximum rank =  0   Radius =  0.650 angstrom
                   Q00  =  -0.200330

C          x = -0.479566  y =  0.623009  z = -1.092195 angstrom
           Maximum rank =  0   Radius =  0.650 angstrom
                   Q00  =  -0.072917

C          x =  0.526434  y =  1.336009  z = -0.440195 angstrom
           Maximum rank =  0   Radius =  0.650 angstrom
                   Q00  =  -0.079143

C          x = -1.455566  y = -0.036991  z = -0.367195 angstrom
           Maximum rank =  0   Radius =  0.650 angstrom
                   Q00  =  -0.073534

C          x = -1.448566  y =  0.009009  z =  1.018805 angstrom
           Maximum rank =  0   Radius =  0.650 angstrom
                   Q00  =  -0.103461

C          x =  0.553434  y =  1.377009  z =  0.943805 angstrom
           Maximum rank =  0   Radius =  0.650 angstrom
                   Q00  =  -0.075038

C          x = -0.431566  y =  0.717009  z =  1.668805 angstrom
           Maximum rank =  0   Radius =  0.650 angstrom
                   Q00  =   0.000944

H          x = -0.475566  y =  0.544009  z = -2.167195 angstrom
           Maximum rank =  0   Radius =  0.325 angstrom
                   Q00  =   0.065278

H          x =  1.293434  y =  1.842009  z = -1.011195 angstrom
           Maximum rank =  0   Radius =  0.325 angstrom
                   Q00  =   0.060889

H          x = -2.218566  y = -0.597991  z = -0.888195 angstrom
           Maximum rank =  0   Radius =  0.325 angstrom
                   Q00  =   0.056337

H          x =  1.324434  y =  1.941009  z =  1.440805 angstrom
           Maximum rank =  0   Radius =  0.325 angstrom
                   Q00  =   0.064701

H          x = -3.406566  y = -0.807991  z =  1.219805 angstrom
           Maximum rank =  0   Radius =  0.325 angstrom
                   Q00  =   0.097732

H          x = -2.744566  y = -0.144991  z =  2.702805 angstrom
           Maximum rank =  0   Radius =  0.325 angstrom
                   Q00  =   0.098592

H          x = -0.419566  y =  0.764009  z =  2.744805 angstrom
           Maximum rank =  0   Radius =  0.325 angstrom
                   Q00  =   0.055719

H          x = -2.180306  y = -1.737411  z =  2.131626 angstrom
           Maximum rank =  0   Radius =  0.325 angstrom
                   Q00  =   0.106160

Total multipoles referred to origin at
           x =   0.000000,  y =    0.000000,  z =    0.000000 angstrom
                   Q00  =  -0.000000

Finished at 13:49:50 on 27 Apr 2020

  DMA results are available in the Python driver through the
	  variable('DMA DISTRIBUTED MULTIPOLES')
  and
	  variable('DMA TOTAL MULTIPOLES')
  commands.

    Psi4 stopped on: Monday, 27 April 2020 01:49PM
    Psi4 wall time for execution: 0:02:04.83

*** Psi4 exiting successfully. Buy a developer a beer!
