                               Psi4 1.3.2 release

  ==> Input File <==

--------------------------------------------------------------------------
import numpy as np
set {scf_type pk
basis cc-pvdz
d_convergence 10
gdma_switch   0
gdma_limit    0
gdma_origin   [ 0.0,  0.0,  0.0 ]
}
molecule test {
    units Angstrom
    0 1
    --
    0 1
    C                2.179563216135791    -1.824086096355573    -0.508017785249162
    C                1.761563216135790    -2.367086096355573    -1.869017785249162
    C                3.136563216135790    -0.658086096355574    -0.603017785249162
    O                2.815563216135790     0.373913903644427    -1.182017785249162
    N                4.277563216135790    -0.781086096355573     0.048982214750838
    H                1.299563216135790    -1.472086096355573     0.015982214750838
    H                2.625563216135790    -2.617086096355573     0.091982214750838
    H                1.271563216135790    -1.580086096355574    -2.444017785249162
    H                4.863563216135790     0.038913903644427     0.158982214750838
    H                4.506563216135791    -1.632086096355573     0.536982214750838
    H                1.065803216135790    -3.204886096355574    -1.714067785249162
    H                2.640463216135790    -2.704126096355573    -2.438177785249162
    C               -1.640436783864210     3.518913903644427     1.276982214750838
    C               -0.982436783864210    -0.201086096355573     0.968982214750838
    C               -2.074436783864209    -0.606086096355574     0.209982214750838
    C               -0.846436783864210     1.130913903644427     1.320982214750838
    C               -1.792436783864210     2.072913903644427     0.913982214750838
    C               -3.021436783864210     0.326913903644427    -0.209017785249162
    C               -2.870436783864210     1.659913903644426     0.140982214750838
    O               -2.209436783864210    -1.911086096355573    -0.150017785249162
    H               -0.270436783864210    -0.925086096355573     1.334982214750838
    H                0.001563216135790     1.442913903644427     1.916982214750838
    H               -3.861436783864209     0.006913903644427    -0.808017785249162
    H               -1.533436783864210    -2.475086096355574     0.258982214750838
    H               -0.787436783864210     3.633913903644427     1.946982214750838
    H               -2.532436783864210     3.826913903644427     1.823982214750838
    H               -3.608436783864210     2.381913903644426    -0.187017785249162
    H               -1.503276783864210     4.174563903644426     0.404452214750838

}
e, wfn = energy('scf', return_wfn=True)
gdma(wfn)
dmavals = variable('DMA DISTRIBUTED MULTIPOLES')
charges = np.array(dmavals)
print(charges)
np.save('SSI-034ASN-078TYR-1-dimer.npy', np.array(charges))--------------------------------------------------------------------------

*** tstart() called on ds3
*** at Tue Apr 28 13:41:13 2020

   => Loading Basis Set <=

    Name: CC-PVDZ
    Role: ORBITAL
    Keyword: BASIS
    atoms 1-3, 13-19  entry C          line   138 file /theoryfs2/ds/metcalf/miniconda2/envs/tf2gpu/share/psi4/basis/cc-pvdz.gbs
    atoms 4, 20       entry O          line   198 file /theoryfs2/ds/metcalf/miniconda2/envs/tf2gpu/share/psi4/basis/cc-pvdz.gbs
    atoms 5           entry N          line   168 file /theoryfs2/ds/metcalf/miniconda2/envs/tf2gpu/share/psi4/basis/cc-pvdz.gbs
    atoms 6-12, 21-28 entry H          line    22 file /theoryfs2/ds/metcalf/miniconda2/envs/tf2gpu/share/psi4/basis/cc-pvdz.gbs

         ---------------------------------------------------------
                                   SCF
               by Justin Turney, Rob Parrish, Andy Simmonett
                          and Daniel G. A. Smith
                              RHF Reference
                        1 Threads,    500 MiB Core
         ---------------------------------------------------------

  ==> Geometry <==

    Molecular point group: c1
    Full point group: C1

    Geometry (in Angstrom), charge = 0, multiplicity = 1:

       Center              X                  Y                   Z               Mass
    ------------   -----------------  -----------------  -----------------  -----------------
         C            2.179563216136    -1.824086096356    -0.508017785249    12.000000000000
         C            1.761563216136    -2.367086096356    -1.869017785249    12.000000000000
         C            3.136563216136    -0.658086096356    -0.603017785249    12.000000000000
         O            2.815563216136     0.373913903644    -1.182017785249    15.994914619570
         N            4.277563216136    -0.781086096356     0.048982214751    14.003074004430
         H            1.299563216136    -1.472086096356     0.015982214751     1.007825032230
         H            2.625563216136    -2.617086096356     0.091982214751     1.007825032230
         H            1.271563216136    -1.580086096356    -2.444017785249     1.007825032230
         H            4.863563216136     0.038913903644     0.158982214751     1.007825032230
         H            4.506563216136    -1.632086096356     0.536982214751     1.007825032230
         H            1.065803216136    -3.204886096356    -1.714067785249     1.007825032230
         H            2.640463216136    -2.704126096356    -2.438177785249     1.007825032230
         C           -1.640436783864     3.518913903644     1.276982214751    12.000000000000
         C           -0.982436783864    -0.201086096356     0.968982214751    12.000000000000
         C           -2.074436783864    -0.606086096356     0.209982214751    12.000000000000
         C           -0.846436783864     1.130913903644     1.320982214751    12.000000000000
         C           -1.792436783864     2.072913903644     0.913982214751    12.000000000000
         C           -3.021436783864     0.326913903644    -0.209017785249    12.000000000000
         C           -2.870436783864     1.659913903644     0.140982214751    12.000000000000
         O           -2.209436783864    -1.911086096356    -0.150017785249    15.994914619570
         H           -0.270436783864    -0.925086096356     1.334982214751     1.007825032230
         H            0.001563216136     1.442913903644     1.916982214751     1.007825032230
         H           -3.861436783864     0.006913903644    -0.808017785249     1.007825032230
         H           -1.533436783864    -2.475086096356     0.258982214751     1.007825032230
         H           -0.787436783864     3.633913903644     1.946982214751     1.007825032230
         H           -2.532436783864     3.826913903644     1.823982214751     1.007825032230
         H           -3.608436783864     2.381913903644    -0.187017785249     1.007825032230
         H           -1.503276783864     4.174563903644     0.404452214751     1.007825032230

  Running in c1 symmetry.

  Rotational constants: A =      0.03384  B =      0.01204  C =      0.00968 [cm^-1]
  Rotational constants: A =   1014.43088  B =    361.03613  C =    290.07618 [MHz]
  Nuclear repulsion =  743.960866161526951

  Charge       = 0
  Multiplicity = 1
  Electrons    = 98
  Nalpha       = 49
  Nbeta        = 49

  ==> Algorithm <==

  SCF Algorithm Type is PK.
  DIIS enabled.
  MOM disabled.
  Fractional occupation disabled.
  Guess Type is SAD.
  Energy threshold   = 1.00e-06
  Density threshold  = 1.00e-10
  Integral threshold = 0.00e+00

  ==> Primary Basis <==

  Basis Set: CC-PVDZ
    Blend: CC-PVDZ
    Number of shells: 123
    Number of basis function: 257
    Number of Cartesian functions: 270
    Spherical Harmonics?: true
    Max angular momentum: 2

  ==> Pre-Iterations <==

   -------------------------------------------------------
    Irrep   Nso     Nmo     Nalpha   Nbeta   Ndocc  Nsocc
   -------------------------------------------------------
     A        257     257       0       0       0       0
   -------------------------------------------------------
    Total     257     257      49      49      49       0
   -------------------------------------------------------

  ==> Integral Setup <==

  Using integral reordering PK algorithm.
  Sizing the integral batches needed.
  Building batch lookup table.
   Calculation information:
      Number of atoms:                  28
      Number of AO shells:             123
      Number of primitives:            361
      Number of atomic orbitals:       270
      Number of basis functions:       257

      Integral cutoff                 1.00e-12
      Number of threads:                 1

	Batch   1 pq = [       0,    9405] index = [             0,44231715] size =     44231715
	Batch   2 pq = [    9405,   13301] index = [      44231715,88464951] size =     44233236
	Batch   3 pq = [   13301,   16290] index = [      88464951,132690195] size =     44225244
	Batch   4 pq = [   16290,   18810] index = [     132690195,176917455] size =     44227260
	Batch   5 pq = [   18810,   21030] index = [     176917455,221140965] size =     44223510
	Batch   6 pq = [   21030,   23037] index = [     221140965,265363203] size =     44222238
	Batch   7 pq = [   23037,   24883] index = [     265363203,309594286] size =     44231083
	Batch   8 pq = [   24883,   26601] index = [     309594286,353819901] size =     44225615
	Batch   9 pq = [   26601,   28214] index = [     353819901,398029005] size =     44209104
	Batch  10 pq = [   28214,   29740] index = [     398029005,442248670] size =     44219665
	Batch  11 pq = [   29740,   31191] index = [     442248670,486454836] size =     44206166
	Batch  12 pq = [   31191,   32578] index = [     486454836,530679331] size =     44224495
	Batch  13 pq = [   32578,   33153] index = [     530679331,549577281] size =     18897950
  Task number: 50
  Buffer size: 11059200
  Buffer per thread: 2
  We computed 24879552 shell quartets total.
  Whereas there are 29081751 unique shell quartets.

  ==> DiskJK: Disk-Based J/K Matrices <==

    J tasked:                  Yes
    K tasked:                  Yes
    wK tasked:                  No
    Memory [MiB]:              375
    Schwarz Cutoff:          1E-12

    OpenMP threads:              1

  Minimum eigenvalue in the overlap matrix is 3.1857956815E-04.
  Using Symmetric Orthogonalization.

  SCF Guess: Superposition of Atomic Densities via on-the-fly atomic UHF.

  ==> Iterations <==

                        Total Energy        Delta E     RMS |[F,P]|

   @RHF iter SAD:  -590.36407362097032   -5.90364e+02   0.00000e+00
   @RHF iter   1:  -591.29288562776003   -9.28812e-01   3.04790e-03 DIIS
   @RHF iter   2:  -591.57634379829142   -2.83458e-01   1.59887e-03 DIIS
   @RHF iter   3:  -591.64455886255530   -6.82151e-02   3.70519e-04 DIIS
   @RHF iter   4:  -591.64979668989247   -5.23783e-03   1.51072e-04 DIIS
   @RHF iter   5:  -591.65066970419139   -8.73014e-04   2.21711e-05 DIIS
   @RHF iter   6:  -591.65071121890310   -4.15147e-05   9.69087e-06 DIIS
   @RHF iter   7:  -591.65071749373033   -6.27483e-06   3.83512e-06 DIIS
   @RHF iter   8:  -591.65071881594338   -1.32221e-06   1.54780e-06 DIIS
   @RHF iter   9:  -591.65071901692636   -2.00983e-07   5.52173e-07 DIIS
   @RHF iter  10:  -591.65071904322940   -2.63030e-08   2.00574e-07 DIIS
   @RHF iter  11:  -591.65071904684942   -3.62002e-09   6.40821e-08 DIIS
   @RHF iter  12:  -591.65071904727415   -4.24734e-10   2.88453e-08 DIIS
   @RHF iter  13:  -591.65071904737067   -9.65201e-11   1.15507e-08 DIIS
   @RHF iter  14:  -591.65071904739602   -2.53522e-11   5.38624e-09 DIIS
   @RHF iter  15:  -591.65071904739852   -2.50111e-12   2.21267e-09 DIIS
   @RHF iter  16:  -591.65071904739773    7.95808e-13   8.22078e-10 DIIS
   @RHF iter  17:  -591.65071904739909   -1.36424e-12   2.88890e-10 DIIS
   @RHF iter  18:  -591.65071904739750    1.59162e-12   9.45740e-11 DIIS
  Energy and wave function converged.

  ==> Post-Iterations <==

    Orbital Energies [Eh]
    ---------------------

    Doubly Occupied:

       1A    -20.582212     2A    -20.501229     3A    -15.590187
       4A    -11.342282     5A    -11.295920     6A    -11.239945
       7A    -11.233820     8A    -11.232502     9A    -11.230168
      10A    -11.228387    11A    -11.226759    12A    -11.226145
      13A    -11.221746    14A     -1.397512    15A     -1.368404
      16A     -1.219187    17A     -1.148721    18A     -1.052588
      19A     -1.034055    20A     -1.016621    21A     -0.921227
      22A     -0.890643    23A     -0.840726    24A     -0.799796
      25A     -0.790694    26A     -0.729249    27A     -0.725561
      28A     -0.667764    29A     -0.665904    30A     -0.640620
      31A     -0.620435    32A     -0.601070    33A     -0.586836
      34A     -0.585894    35A     -0.583475    36A     -0.572169
      37A     -0.568042    38A     -0.563788    39A     -0.523525
      40A     -0.521275    41A     -0.506352    42A     -0.499171
      43A     -0.491671    44A     -0.480412    45A     -0.463405
      46A     -0.406079    47A     -0.403024    48A     -0.336293
      49A     -0.296287

    Virtual:

      50A      0.132657    51A      0.150483    52A      0.160919
      53A      0.173590    54A      0.190807    55A      0.206525
      56A      0.213726    57A      0.219865    58A      0.223261
      59A      0.237382    60A      0.257208    61A      0.263433
      62A      0.270208    63A      0.272402    64A      0.276912
      65A      0.291617    66A      0.305911    67A      0.333142
      68A      0.375322    69A      0.378168    70A      0.396066
      71A      0.417608    72A      0.434893    73A      0.458308
      74A      0.461474    75A      0.481788    76A      0.503954
      77A      0.518906    78A      0.568809    79A      0.602926
      80A      0.619681    81A      0.624545    82A      0.632130
      83A      0.652867    84A      0.659113    85A      0.671659
      86A      0.683332    87A      0.690082    88A      0.701645
      89A      0.708614    90A      0.717162    91A      0.736914
      92A      0.738658    93A      0.741144    94A      0.763478
      95A      0.775451    96A      0.781992    97A      0.789964
      98A      0.795020    99A      0.799380   100A      0.829010
     101A      0.840399   102A      0.844668   103A      0.852465
     104A      0.863628   105A      0.880464   106A      0.886863
     107A      0.891839   108A      0.894342   109A      0.897557
     110A      0.903053   111A      0.911397   112A      0.920421
     113A      0.927510   114A      0.936759   115A      0.949454
     116A      0.949581   117A      0.955780   118A      0.974051
     119A      0.990418   120A      1.010433   121A      1.018117
     122A      1.028791   123A      1.035878   124A      1.054462
     125A      1.099871   126A      1.105526   127A      1.135620
     128A      1.140590   129A      1.144081   130A      1.159311
     131A      1.189202   132A      1.230884   133A      1.239703
     134A      1.258794   135A      1.270376   136A      1.283860
     137A      1.294962   138A      1.306260   139A      1.319112
     140A      1.323966   141A      1.329368   142A      1.353293
     143A      1.369466   144A      1.386254   145A      1.393483
     146A      1.400842   147A      1.415312   148A      1.462163
     149A      1.466694   150A      1.478490   151A      1.494441
     152A      1.502570   153A      1.541868   154A      1.551444
     155A      1.563905   156A      1.616881   157A      1.624330
     158A      1.628182   159A      1.676499   160A      1.686907
     161A      1.698870   162A      1.729462   163A      1.738371
     164A      1.749832   165A      1.761632   166A      1.784415
     167A      1.807492   168A      1.821734   169A      1.835026
     170A      1.862182   171A      1.868789   172A      1.873018
     173A      1.891258   174A      1.893626   175A      1.905730
     176A      1.908675   177A      1.916979   178A      1.920888
     179A      1.929270   180A      1.937708   181A      1.944197
     182A      1.953188   183A      1.961333   184A      1.964009
     185A      1.976589   186A      1.984402   187A      1.998098
     188A      2.011267   189A      2.026045   190A      2.029842
     191A      2.058415   192A      2.064498   193A      2.069796
     194A      2.075037   195A      2.092388   196A      2.094334
     197A      2.131857   198A      2.149456   199A      2.166140
     200A      2.196384   201A      2.199566   202A      2.210415
     203A      2.225769   204A      2.265734   205A      2.280831
     206A      2.297111   207A      2.307498   208A      2.314236
     209A      2.361786   210A      2.378080   211A      2.401643
     212A      2.412584   213A      2.452225   214A      2.465292
     215A      2.472479   216A      2.485676   217A      2.494427
     218A      2.510608   219A      2.531670   220A      2.537363
     221A      2.564232   222A      2.580781   223A      2.592173
     224A      2.627216   225A      2.643236   226A      2.648660
     227A      2.748189   228A      2.759242   229A      2.776435
     230A      2.778729   231A      2.801133   232A      2.809797
     233A      2.841767   234A      2.851597   235A      2.886544
     236A      2.895558   237A      2.912215   238A      2.972060
     239A      2.982906   240A      2.995845   241A      3.018398
     242A      3.100679   243A      3.106404   244A      3.134388
     245A      3.138042   246A      3.249744   247A      3.281090
     248A      3.290468   249A      3.349069   250A      3.524864
     251A      3.529977   252A      3.578365   253A      3.681722
     254A      3.878935   255A      3.914519   256A      3.980902
     257A      4.190795

    Final Occupation by Irrep:
              A
    DOCC [    49 ]

  @RHF Final Energy:  -591.65071904739750

   => Energetics <=

    Nuclear Repulsion Energy =            743.9608661615269511
    One-Electron Energy =               -2281.8836202535358098
    Two-Electron Energy =                 946.2720350446112434
    Total Energy =                       -591.6507190473975015

Computation Completed

Properties will be evaluated at   0.000000,   0.000000,   0.000000 [a0]

Properties computed using the SCF density matrix

  Nuclear Dipole Moment: [e a0]
     X:     3.9070      Y:    -1.0405      Z:     0.8362

  Electronic Dipole Moment: [e a0]
     X:    -2.8653      Y:     0.0032      Z:     0.3884

  Dipole Moment: [e a0]
     X:     1.0417      Y:    -1.0374      Z:     1.2246     Total:     1.9133

  Dipole Moment: [D]
     X:     2.6476      Y:    -2.6368      Z:     3.1126     Total:     4.8632

*** tstop() called on ds3 at Tue Apr 28 13:47:54 2020
Module time:
	user time   =     202.90 seconds =       3.38 minutes
	system time =      95.52 seconds =       1.59 minutes
	total time  =        401 seconds =       6.68 minutes
Total time:
	user time   =     202.90 seconds =       3.38 minutes
	system time =      95.52 seconds =       1.59 minutes
	total time  =        401 seconds =       6.68 minutes
                                     G D M A

                                 by Anthony Stone

                           version 2.2.06, 22 June 2011

               Distributed Multipoles from Gaussian wavefunctions

Starting at 13:47:54 on 28 Apr 2020

Using SCF density matrix from file ./SSI/SSI-034ASN-078TYR-1-dimer.test.22336.fchk

                         Distributed Multipole Analysis

Standard DMA

Positions and radii in angstrom
Multipole moments in atomic units, ea_0^k for rank k

C          x =  2.179563  y = -1.824086  z = -0.508018 angstrom
           Maximum rank =  0   Radius =  0.650 angstrom
                   Q00  =  -0.124814

C          x =  1.761563  y = -2.367086  z = -1.869018 angstrom
           Maximum rank =  0   Radius =  0.650 angstrom
                   Q00  =  -0.212807

C          x =  3.136563  y = -0.658086  z = -0.603018 angstrom
           Maximum rank =  0   Radius =  0.650 angstrom
                   Q00  =   0.829964

O          x =  2.815563  y =  0.373914  z = -1.182018 angstrom
           Maximum rank =  0   Radius =  0.650 angstrom
                   Q00  =  -0.810271

N          x =  4.277563  y = -0.781086  z =  0.048982 angstrom
           Maximum rank =  0   Radius =  0.650 angstrom
                   Q00  =  -0.520915

H          x =  1.299563  y = -1.472086  z =  0.015982 angstrom
           Maximum rank =  0   Radius =  0.325 angstrom
                   Q00  =   0.107473

H          x =  2.625563  y = -2.617086  z =  0.091982 angstrom
           Maximum rank =  0   Radius =  0.325 angstrom
                   Q00  =   0.033345

H          x =  1.271563  y = -1.580086  z = -2.444018 angstrom
           Maximum rank =  0   Radius =  0.325 angstrom
                   Q00  =   0.116147

H          x =  4.863563  y =  0.038914  z =  0.158982 angstrom
           Maximum rank =  0   Radius =  0.325 angstrom
                   Q00  =   0.217712

H          x =  4.506563  y = -1.632086  z =  0.536982 angstrom
           Maximum rank =  0   Radius =  0.325 angstrom
                   Q00  =   0.204435

H          x =  1.065803  y = -3.204886  z = -1.714068 angstrom
           Maximum rank =  0   Radius =  0.325 angstrom
                   Q00  =   0.078592

H          x =  2.640463  y = -2.704126  z = -2.438178 angstrom
           Maximum rank =  0   Radius =  0.325 angstrom
                   Q00  =   0.080490

C          x = -1.640437  y =  3.518914  z =  1.276982 angstrom
           Maximum rank =  0   Radius =  0.650 angstrom
                   Q00  =  -0.197643

C          x = -0.982437  y = -0.201086  z =  0.968982 angstrom
           Maximum rank =  0   Radius =  0.650 angstrom
                   Q00  =  -0.210892

C          x = -2.074437  y = -0.606086  z =  0.209982 angstrom
           Maximum rank =  0   Radius =  0.650 angstrom
                   Q00  =   0.321776

C          x = -0.846437  y =  1.130914  z =  1.320982 angstrom
           Maximum rank =  0   Radius =  0.650 angstrom
                   Q00  =  -0.002963

C          x = -1.792437  y =  2.072914  z =  0.913982 angstrom
           Maximum rank =  0   Radius =  0.650 angstrom
                   Q00  =  -0.127292

C          x = -3.021437  y =  0.326914  z = -0.209018 angstrom
           Maximum rank =  0   Radius =  0.650 angstrom
                   Q00  =  -0.110140

C          x = -2.870437  y =  1.659914  z =  0.140982 angstrom
           Maximum rank =  0   Radius =  0.650 angstrom
                   Q00  =   0.034497

O          x = -2.209437  y = -1.911086  z = -0.150018 angstrom
           Maximum rank =  0   Radius =  0.650 angstrom
                   Q00  =  -0.676101

H          x = -0.270437  y = -0.925086  z =  1.334982 angstrom
           Maximum rank =  0   Radius =  0.325 angstrom
                   Q00  =   0.062537

H          x =  0.001563  y =  1.442914  z =  1.916982 angstrom
           Maximum rank =  0   Radius =  0.325 angstrom
                   Q00  =   0.071956

H          x = -3.861437  y =  0.006914  z = -0.808018 angstrom
           Maximum rank =  0   Radius =  0.325 angstrom
                   Q00  =   0.079495

H          x = -1.533437  y = -2.475086  z =  0.258982 angstrom
           Maximum rank =  0   Radius =  0.325 angstrom
                   Q00  =   0.405986

H          x = -0.787437  y =  3.633914  z =  1.946982 angstrom
           Maximum rank =  0   Radius =  0.325 angstrom
                   Q00  =   0.094695

H          x = -2.532437  y =  3.826914  z =  1.823982 angstrom
           Maximum rank =  0   Radius =  0.325 angstrom
                   Q00  =   0.092875

H          x = -3.608437  y =  2.381914  z = -0.187018 angstrom
           Maximum rank =  0   Radius =  0.325 angstrom
                   Q00  =   0.060427

H          x = -1.503277  y =  4.174564  z =  0.404452 angstrom
           Maximum rank =  0   Radius =  0.325 angstrom
                   Q00  =   0.101435

Total multipoles referred to origin at
           x =   0.000000,  y =    0.000000,  z =    0.000000 angstrom
                   Q00  =  -0.000000

Finished at 13:47:54 on 28 Apr 2020

  DMA results are available in the Python driver through the
	  variable('DMA DISTRIBUTED MULTIPOLES')
  and
	  variable('DMA TOTAL MULTIPOLES')
  commands.

    Psi4 stopped on: Tuesday, 28 April 2020 01:47PM
    Psi4 wall time for execution: 0:06:40.84

*** Psi4 exiting successfully. Buy a developer a beer!
