                               Psi4 1.3.2 release

  ==> Input File <==

--------------------------------------------------------------------------
import numpy as np
set {scf_type pk
basis cc-pvdz
d_convergence 10
gdma_switch   0
gdma_limit    0
gdma_origin   [ 0.0,  0.0,  0.0 ]
}
molecule test {
    units Angstrom
    0 1
    --
    0 1
    C               -1.193213238160470    -0.466743005848025    -2.972618845203111
    C               -1.091213238160470    -0.604743005848025    -4.489618845203111
    H               -1.920213238160470    -1.168743005848025    -2.575618845203111
    H               -0.220213238160470    -0.674743005848025    -2.524618845203111
    H               -1.491213238160470     0.549256994151975    -2.710618845203111
    H               -0.718213238160470    -1.602743005848025    -4.712618845203111
    H               -2.110103238160470    -0.490103005848025    -4.888004845203111
    H               -0.393533238160470     0.138806994151975    -4.902390845203112
    C                1.577786761839530    -1.685743005848025     0.222381154796889
    C               -0.583213238160470    -0.455743005848025     0.698381154796889
    C                0.804786761839530    -0.552743005848025     0.813381154796889
    C               -1.274213238160470     0.628256994151975     1.298381154796889
    C               -0.498213238160470     1.614256994151975     1.980381154796889
    C                1.529786761839530     0.417256994151975     1.512381154796890
    C                0.887786761839530     1.492256994151975     2.109381154796889
    H               -1.158213238160470    -1.197743005848025     0.166381154796889
    H               -2.350213238160470     0.713256994151975     1.241381154796889
    H                2.418786761839530    -1.902743005848025     0.882381154796889
    H                1.972786761839530    -1.359743005848025    -0.740618845203111
    H               -0.996213238160470     2.450256994151975     2.447381154796889
    H                2.597786761839530     0.329256994151975     1.618381154796889
    H                1.453786761839530     2.232256994151975     2.659381154796889
    H                1.008926761839530    -2.616293005848025     0.079275154796889

}
e, wfn = energy('scf', return_wfn=True)
gdma(wfn)
dmavals = variable('DMA DISTRIBUTED MULTIPOLES')
charges = np.array(dmavals)
print(charges)
np.save('SSI-162LEU-198PHE-1-dimer.npy', np.array(charges))--------------------------------------------------------------------------

*** tstart() called on ds3
*** at Mon Apr 27 19:13:05 2020

   => Loading Basis Set <=

    Name: CC-PVDZ
    Role: ORBITAL
    Keyword: BASIS
    atoms 1-2, 9-15  entry C          line   138 file /theoryfs2/ds/metcalf/miniconda2/envs/tf2gpu/share/psi4/basis/cc-pvdz.gbs
    atoms 3-8, 16-23 entry H          line    22 file /theoryfs2/ds/metcalf/miniconda2/envs/tf2gpu/share/psi4/basis/cc-pvdz.gbs

         ---------------------------------------------------------
                                   SCF
               by Justin Turney, Rob Parrish, Andy Simmonett
                          and Daniel G. A. Smith
                              RHF Reference
                        1 Threads,    500 MiB Core
         ---------------------------------------------------------

  ==> Geometry <==

    Molecular point group: c1
    Full point group: C1

    Geometry (in Angstrom), charge = 0, multiplicity = 1:

       Center              X                  Y                   Z               Mass
    ------------   -----------------  -----------------  -----------------  -----------------
         C           -1.193213238160    -0.466743005848    -2.972618845203    12.000000000000
         C           -1.091213238160    -0.604743005848    -4.489618845203    12.000000000000
         H           -1.920213238160    -1.168743005848    -2.575618845203     1.007825032230
         H           -0.220213238160    -0.674743005848    -2.524618845203     1.007825032230
         H           -1.491213238160     0.549256994152    -2.710618845203     1.007825032230
         H           -0.718213238160    -1.602743005848    -4.712618845203     1.007825032230
         H           -2.110103238160    -0.490103005848    -4.888004845203     1.007825032230
         H           -0.393533238160     0.138806994152    -4.902390845203     1.007825032230
         C            1.577786761840    -1.685743005848     0.222381154797    12.000000000000
         C           -0.583213238160    -0.455743005848     0.698381154797    12.000000000000
         C            0.804786761840    -0.552743005848     0.813381154797    12.000000000000
         C           -1.274213238160     0.628256994152     1.298381154797    12.000000000000
         C           -0.498213238160     1.614256994152     1.980381154797    12.000000000000
         C            1.529786761840     0.417256994152     1.512381154797    12.000000000000
         C            0.887786761840     1.492256994152     2.109381154797    12.000000000000
         H           -1.158213238160    -1.197743005848     0.166381154797     1.007825032230
         H           -2.350213238160     0.713256994152     1.241381154797     1.007825032230
         H            2.418786761840    -1.902743005848     0.882381154797     1.007825032230
         H            1.972786761840    -1.359743005848    -0.740618845203     1.007825032230
         H           -0.996213238160     2.450256994152     2.447381154797     1.007825032230
         H            2.597786761840     0.329256994152     1.618381154797     1.007825032230
         H            1.453786761840     2.232256994152     2.659381154797     1.007825032230
         H            1.008926761840    -2.616293005848     0.079275154797     1.007825032230

  Running in c1 symmetry.

  Rotational constants: A =      0.07329  B =      0.02229  C =      0.01908 [cm^-1]
  Rotational constants: A =   2197.18118  B =    668.23091  C =    571.95570 [MHz]
  Nuclear repulsion =  401.406132181556131

  Charge       = 0
  Multiplicity = 1
  Electrons    = 68
  Nalpha       = 34
  Nbeta        = 34

  ==> Algorithm <==

  SCF Algorithm Type is PK.
  DIIS enabled.
  MOM disabled.
  Fractional occupation disabled.
  Guess Type is SAD.
  Energy threshold   = 1.00e-06
  Density threshold  = 1.00e-10
  Integral threshold = 0.00e+00

  ==> Primary Basis <==

  Basis Set: CC-PVDZ
    Blend: CC-PVDZ
    Number of shells: 96
    Number of basis function: 196
    Number of Cartesian functions: 205
    Spherical Harmonics?: true
    Max angular momentum: 2

  ==> Pre-Iterations <==

   -------------------------------------------------------
    Irrep   Nso     Nmo     Nalpha   Nbeta   Ndocc  Nsocc
   -------------------------------------------------------
     A        196     196       0       0       0       0
   -------------------------------------------------------
    Total     196     196      34      34      34       0
   -------------------------------------------------------

  ==> Integral Setup <==

  Using integral reordering PK algorithm.
  Sizing the integral batches needed.
  Building batch lookup table.
   Calculation information:
      Number of atoms:                  23
      Number of AO shells:              96
      Number of primitives:            268
      Number of atomic orbitals:       205
      Number of basis functions:       196

      Integral cutoff                 1.00e-12
      Number of threads:                 1

	Batch   1 pq = [       0,    9405] index = [             0,44231715] size =     44231715
	Batch   2 pq = [    9405,   13301] index = [      44231715,88464951] size =     44233236
	Batch   3 pq = [   13301,   16290] index = [      88464951,132690195] size =     44225244
	Batch   4 pq = [   16290,   18810] index = [     132690195,176917455] size =     44227260
	Batch   5 pq = [   18810,   19306] index = [     176917455,186370471] size =      9453016
  Task number: 17
  Buffer size: 11059200
  Buffer per thread: 2
  We computed 8994514 shell quartets total.
  Whereas there are 10841496 unique shell quartets.

  ==> DiskJK: Disk-Based J/K Matrices <==

    J tasked:                  Yes
    K tasked:                  Yes
    wK tasked:                  No
    Memory [MiB]:              375
    Schwarz Cutoff:          1E-12

    OpenMP threads:              1

  Minimum eigenvalue in the overlap matrix is 3.3816266549E-04.
  Using Symmetric Orthogonalization.

  SCF Guess: Superposition of Atomic Densities via on-the-fly atomic UHF.

  ==> Iterations <==

                        Total Energy        Delta E     RMS |[F,P]|

   @RHF iter SAD:  -347.76970698638206   -3.47770e+02   0.00000e+00
   @RHF iter   1:  -348.76502057523743   -9.95314e-01   2.87598e-03 DIIS
   @RHF iter   2:  -348.95601366953241   -1.90993e-01   1.18835e-03 DIIS
   @RHF iter   3:  -348.98567690911136   -2.96632e-02   2.62307e-04 DIIS
   @RHF iter   4:  -348.98815126404287   -2.47435e-03   6.85173e-05 DIIS
   @RHF iter   5:  -348.98826398004235   -1.12716e-04   2.10020e-05 DIIS
   @RHF iter   6:  -348.98827518298293   -1.12029e-05   5.03178e-06 DIIS
   @RHF iter   7:  -348.98827594348131   -7.60498e-07   1.24094e-06 DIIS
   @RHF iter   8:  -348.98827600830515   -6.48238e-08   4.05988e-07 DIIS
   @RHF iter   9:  -348.98827602141330   -1.31081e-08   2.18866e-07 DIIS
   @RHF iter  10:  -348.98827602535050   -3.93720e-09   1.02237e-07 DIIS
   @RHF iter  11:  -348.98827602671855   -1.36805e-09   3.88802e-08 DIIS
   @RHF iter  12:  -348.98827602685924   -1.40687e-10   1.74155e-08 DIIS
   @RHF iter  13:  -348.98827602687555   -1.63141e-11   4.72099e-09 DIIS
   @RHF iter  14:  -348.98827602687891   -3.35376e-12   1.53397e-09 DIIS
   @RHF iter  15:  -348.98827602687953   -6.25278e-13   5.96663e-10 DIIS
   @RHF iter  16:  -348.98827602687794    1.59162e-12   2.52283e-10 DIIS
   @RHF iter  17:  -348.98827602687743    5.11591e-13   9.20579e-11 DIIS
  Energy and wave function converged.

  ==> Post-Iterations <==

    Orbital Energies [Eh]
    ---------------------

    Doubly Occupied:

       1A    -11.242707     2A    -11.240475     3A    -11.235541
       4A    -11.234152     5A    -11.234010     6A    -11.229132
       7A    -11.227629     8A    -11.217686     9A    -11.213676
      10A     -1.146397    11A     -1.041069    12A     -1.018221
      13A     -1.008944    14A     -0.927056    15A     -0.833260
      16A     -0.822761    17A     -0.793334    18A     -0.686437
      19A     -0.634457    20A     -0.626572    21A     -0.600240
      22A     -0.597366    23A     -0.585002    24A     -0.577630
      25A     -0.557914    26A     -0.531689    27A     -0.497883
      28A     -0.488467    29A     -0.485044    30A     -0.482999
      31A     -0.479791    32A     -0.476995    33A     -0.330470
      34A     -0.316204

    Virtual:

      35A      0.131801    36A      0.141555    37A      0.172496
      38A      0.193374    39A      0.202027    40A      0.211466
      41A      0.233161    42A      0.247498    43A      0.249742
      44A      0.260086    45A      0.264564    46A      0.271634
      47A      0.280526    48A      0.288769    49A      0.312136
      50A      0.327200    51A      0.359573    52A      0.382652
      53A      0.404170    54A      0.450688    55A      0.456724
      56A      0.475039    57A      0.491799    58A      0.569213
      59A      0.582098    60A      0.600923    61A      0.607134
      62A      0.609111    63A      0.646074    64A      0.666468
      65A      0.681461    66A      0.687760    67A      0.699615
      68A      0.711496    69A      0.720830    70A      0.740316
      71A      0.743901    72A      0.746280    73A      0.753131
      74A      0.760305    75A      0.779909    76A      0.794168
      77A      0.825055    78A      0.844157    79A      0.863709
      80A      0.865751    81A      0.880014    82A      0.888859
      83A      0.891732    84A      0.895679    85A      0.899728
      86A      0.907142    87A      0.914025    88A      0.916681
      89A      0.920465    90A      0.942390    91A      0.956477
      92A      0.987187    93A      0.995971    94A      1.009924
      95A      1.015351    96A      1.052816    97A      1.105060
      98A      1.120114    99A      1.130537   100A      1.138860
     101A      1.147194   102A      1.156336   103A      1.188372
     104A      1.227215   105A      1.230480   106A      1.237256
     107A      1.248970   108A      1.255912   109A      1.300972
     110A      1.308578   111A      1.321329   112A      1.336091
     113A      1.413915   114A      1.477045   115A      1.491869
     116A      1.505245   117A      1.526012   118A      1.579861
     119A      1.584557   120A      1.590210   121A      1.672736
     122A      1.680722   123A      1.696164   124A      1.705330
     125A      1.728353   126A      1.746992   127A      1.751200
     128A      1.789708   129A      1.807617   130A      1.840679
     131A      1.848063   132A      1.856637   133A      1.881198
     134A      1.885947   135A      1.898684   136A      1.915497
     137A      1.921710   138A      1.933163   139A      1.936332
     140A      1.945726   141A      1.950940   142A      1.957663
     143A      1.963618   144A      1.967770   145A      1.981173
     146A      1.982660   147A      1.992635   148A      2.001559
     149A      2.037683   150A      2.059941   151A      2.069946
     152A      2.098011   153A      2.114022   154A      2.133126
     155A      2.136615   156A      2.149681   157A      2.156179
     158A      2.170430   159A      2.178397   160A      2.255390
     161A      2.265886   162A      2.280589   163A      2.292244
     164A      2.300303   165A      2.314933   166A      2.335162
     167A      2.343203   168A      2.451051   169A      2.462393
     170A      2.463609   171A      2.471999   172A      2.484173
     173A      2.537900   174A      2.566823   175A      2.583609
     176A      2.634943   177A      2.729388   178A      2.737564
     179A      2.765398   180A      2.768487   181A      2.778482
     182A      2.795712   183A      2.800959   184A      2.833071
     185A      2.846245   186A      2.851048   187A      2.859323
     188A      2.952593   189A      2.956895   190A      2.967765
     191A      3.005431   192A      3.015281   193A      3.151805
     194A      3.189102   195A      3.285793   196A      3.928788

    Final Occupation by Irrep:
              A
    DOCC [    34 ]

  @RHF Final Energy:  -348.98827602687743

   => Energetics <=

    Nuclear Repulsion Energy =            401.4061321815561314
    One-Electron Energy =               -1265.5463912839995828
    Two-Electron Energy =                 515.1519830755660223
    Total Energy =                       -348.9882760268774291

Computation Completed

Properties will be evaluated at   0.000000,   0.000000,   0.000000 [a0]

Properties computed using the SCF density matrix

  Nuclear Dipole Moment: [e a0]
     X:    -1.7869      Y:    -4.3121      Z:   -13.0870

  Electronic Dipole Moment: [e a0]
     X:     1.8633      Y:     4.2235      Z:    13.0670

  Dipole Moment: [e a0]
     X:     0.0764      Y:    -0.0886      Z:    -0.0200     Total:     0.1187

  Dipole Moment: [D]
     X:     0.1943      Y:    -0.2252      Z:    -0.0507     Total:     0.3017

*** tstop() called on ds3 at Mon Apr 27 19:15:34 2020
Module time:
	user time   =      60.42 seconds =       1.01 minutes
	system time =      25.26 seconds =       0.42 minutes
	total time  =        149 seconds =       2.48 minutes
Total time:
	user time   =      60.42 seconds =       1.01 minutes
	system time =      25.26 seconds =       0.42 minutes
	total time  =        149 seconds =       2.48 minutes
                                     G D M A

                                 by Anthony Stone

                           version 2.2.06, 22 June 2011

               Distributed Multipoles from Gaussian wavefunctions

Starting at 19:15:34 on 27 Apr 2020

Using SCF density matrix from file ./SSI/SSI-162LEU-198PHE-1-dimer.test.4513.fchk

                         Distributed Multipole Analysis

Standard DMA

Positions and radii in angstrom
Multipole moments in atomic units, ea_0^k for rank k

C          x = -1.193213  y = -0.466743  z = -2.972619 angstrom
           Maximum rank =  0   Radius =  0.650 angstrom
                   Q00  =  -0.237408

C          x = -1.091213  y = -0.604743  z = -4.489619 angstrom
           Maximum rank =  0   Radius =  0.650 angstrom
                   Q00  =  -0.230820

H          x = -1.920213  y = -1.168743  z = -2.575619 angstrom
           Maximum rank =  0   Radius =  0.325 angstrom
                   Q00  =   0.074259

H          x = -0.220213  y = -0.674743  z = -2.524619 angstrom
           Maximum rank =  0   Radius =  0.325 angstrom
                   Q00  =   0.076982

H          x = -1.491213  y =  0.549257  z = -2.710619 angstrom
           Maximum rank =  0   Radius =  0.325 angstrom
                   Q00  =   0.082040

H          x = -0.718213  y = -1.602743  z = -4.712619 angstrom
           Maximum rank =  0   Radius =  0.325 angstrom
                   Q00  =   0.076686

H          x = -2.110103  y = -0.490103  z = -4.888005 angstrom
           Maximum rank =  0   Radius =  0.325 angstrom
                   Q00  =   0.076125

H          x = -0.393533  y =  0.138807  z = -4.902391 angstrom
           Maximum rank =  0   Radius =  0.325 angstrom
                   Q00  =   0.082036

C          x =  1.577787  y = -1.685743  z =  0.222381 angstrom
           Maximum rank =  0   Radius =  0.650 angstrom
                   Q00  =  -0.203214

C          x = -0.583213  y = -0.455743  z =  0.698381 angstrom
           Maximum rank =  0   Radius =  0.650 angstrom
                   Q00  =  -0.101255

C          x =  0.804787  y = -0.552743  z =  0.813381 angstrom
           Maximum rank =  0   Radius =  0.650 angstrom
                   Q00  =  -0.072400

C          x = -1.274213  y =  0.628257  z =  1.298381 angstrom
           Maximum rank =  0   Radius =  0.650 angstrom
                   Q00  =  -0.085029

C          x = -0.498213  y =  1.614257  z =  1.980381 angstrom
           Maximum rank =  0   Radius =  0.650 angstrom
                   Q00  =  -0.064701

C          x =  1.529787  y =  0.417257  z =  1.512381 angstrom
           Maximum rank =  0   Radius =  0.650 angstrom
                   Q00  =  -0.018891

C          x =  0.887787  y =  1.492257  z =  2.109381 angstrom
           Maximum rank =  0   Radius =  0.650 angstrom
                   Q00  =  -0.070851

H          x = -1.158213  y = -1.197743  z =  0.166381 angstrom
           Maximum rank =  0   Radius =  0.325 angstrom
                   Q00  =   0.063302

H          x = -2.350213  y =  0.713257  z =  1.241381 angstrom
           Maximum rank =  0   Radius =  0.325 angstrom
                   Q00  =   0.073886

H          x =  2.418787  y = -1.902743  z =  0.882381 angstrom
           Maximum rank =  0   Radius =  0.325 angstrom
                   Q00  =   0.095490

H          x =  1.972787  y = -1.359743  z = -0.740619 angstrom
           Maximum rank =  0   Radius =  0.325 angstrom
                   Q00  =   0.100133

H          x = -0.996213  y =  2.450257  z =  2.447381 angstrom
           Maximum rank =  0   Radius =  0.325 angstrom
                   Q00  =   0.062378

H          x =  2.597787  y =  0.329257  z =  1.618381 angstrom
           Maximum rank =  0   Radius =  0.325 angstrom
                   Q00  =   0.055495

H          x =  1.453787  y =  2.232257  z =  2.659381 angstrom
           Maximum rank =  0   Radius =  0.325 angstrom
                   Q00  =   0.066534

H          x =  1.008927  y = -2.616293  z =  0.079275 angstrom
           Maximum rank =  0   Radius =  0.325 angstrom
                   Q00  =   0.099225

Total multipoles referred to origin at
           x =   0.000000,  y =    0.000000,  z =    0.000000 angstrom
                   Q00  =  -0.000000

Finished at 19:15:34 on 27 Apr 2020

  DMA results are available in the Python driver through the
	  variable('DMA DISTRIBUTED MULTIPOLES')
  and
	  variable('DMA TOTAL MULTIPOLES')
  commands.

    Psi4 stopped on: Monday, 27 April 2020 07:15PM
    Psi4 wall time for execution: 0:02:29.03

*** Psi4 exiting successfully. Buy a developer a beer!
