                               Psi4 1.3.2 release

  ==> Input File <==

--------------------------------------------------------------------------
import numpy as np
set {scf_type pk
basis cc-pvdz
d_convergence 10
gdma_switch   0
gdma_limit    0
gdma_origin   [ 0.0,  0.0,  0.0 ]
}
molecule test {
    units Angstrom
    0 1
    --
    0 1
    C                2.547139613640119     0.840402630190014     1.061329790460212
    C               -0.591860386359881    -0.559597369809986    -1.545670209539788
    C               -0.322860386359881     0.805402630190014    -1.453670209539788
    C                0.150139613640119    -1.473597369809986    -0.798670209539788
    C                0.690139613640119     1.251402630190013    -0.603670209539788
    C                1.163139613640119    -1.018597369809986     0.047329790460212
    C                1.444139613640119     0.345402630190014     0.153329790460212
    O               -1.578860386359881    -1.002597369809986    -2.375670209539788
    H               -0.903860386359881     1.515402630190013    -2.025670209539788
    H               -2.019860386359881    -0.276597369809986    -2.831670209539788
    H               -0.073860386359881    -2.528597369809986    -0.871670209539788
    H                0.889139613640119     2.312402630190014    -0.529670209539788
    H                1.703139613640119    -1.727597369809986     0.653329790460212
    H                2.876139613640118     0.032402630190014     1.715329790460213
    H                2.133139613640119     1.631402630190014     1.684329790460212
    H                3.413225613640118     1.233622630190013     0.508813790460212
    C               -1.596860386359881    -0.237597369809986     2.163329790460212
    C               -1.316860386359881     1.004402630190014     2.991329790460212
    H               -2.435860386359881    -0.791597369809986     2.586329790460212
    H               -1.840860386359881     0.056402630190014     1.142329790460212
    H               -0.720860386359881    -0.881597369809986     2.133329790460212
    H               -0.444860386359881     1.514402630190014     2.580329790460212
    H               -1.123005196359881     0.746162630190013     4.042868790460211
    H               -2.187341386359881     1.673472630190014     2.923419790460212

}
e, wfn = energy('scf', return_wfn=True)
gdma(wfn)
dmavals = variable('DMA DISTRIBUTED MULTIPOLES')
charges = np.array(dmavals)
print(charges)
np.save('SSI-045TYR-053THR-1-dimer.npy', np.array(charges))--------------------------------------------------------------------------

*** tstart() called on ds3
*** at Sun Apr 26 21:57:58 2020

   => Loading Basis Set <=

    Name: CC-PVDZ
    Role: ORBITAL
    Keyword: BASIS
    atoms 1-7, 17-18  entry C          line   138 file /theoryfs2/ds/metcalf/miniconda2/envs/tf2gpu/share/psi4/basis/cc-pvdz.gbs
    atoms 8           entry O          line   198 file /theoryfs2/ds/metcalf/miniconda2/envs/tf2gpu/share/psi4/basis/cc-pvdz.gbs
    atoms 9-16, 19-24 entry H          line    22 file /theoryfs2/ds/metcalf/miniconda2/envs/tf2gpu/share/psi4/basis/cc-pvdz.gbs

         ---------------------------------------------------------
                                   SCF
               by Justin Turney, Rob Parrish, Andy Simmonett
                          and Daniel G. A. Smith
                              RHF Reference
                        1 Threads,    500 MiB Core
         ---------------------------------------------------------

  ==> Geometry <==

    Molecular point group: c1
    Full point group: C1

    Geometry (in Angstrom), charge = 0, multiplicity = 1:

       Center              X                  Y                   Z               Mass
    ------------   -----------------  -----------------  -----------------  -----------------
         C            2.547139613640     0.840402630190     1.061329790460    12.000000000000
         C           -0.591860386360    -0.559597369810    -1.545670209540    12.000000000000
         C           -0.322860386360     0.805402630190    -1.453670209540    12.000000000000
         C            0.150139613640    -1.473597369810    -0.798670209540    12.000000000000
         C            0.690139613640     1.251402630190    -0.603670209540    12.000000000000
         C            1.163139613640    -1.018597369810     0.047329790460    12.000000000000
         C            1.444139613640     0.345402630190     0.153329790460    12.000000000000
         O           -1.578860386360    -1.002597369810    -2.375670209540    15.994914619570
         H           -0.903860386360     1.515402630190    -2.025670209540     1.007825032230
         H           -2.019860386360    -0.276597369810    -2.831670209540     1.007825032230
         H           -0.073860386360    -2.528597369810    -0.871670209540     1.007825032230
         H            0.889139613640     2.312402630190    -0.529670209540     1.007825032230
         H            1.703139613640    -1.727597369810     0.653329790460     1.007825032230
         H            2.876139613640     0.032402630190     1.715329790460     1.007825032230
         H            2.133139613640     1.631402630190     1.684329790460     1.007825032230
         H            3.413225613640     1.233622630190     0.508813790460     1.007825032230
         C           -1.596860386360    -0.237597369810     2.163329790460    12.000000000000
         C           -1.316860386360     1.004402630190     2.991329790460    12.000000000000
         H           -2.435860386360    -0.791597369810     2.586329790460     1.007825032230
         H           -1.840860386360     0.056402630190     1.142329790460     1.007825032230
         H           -0.720860386360    -0.881597369810     2.133329790460     1.007825032230
         H           -0.444860386360     1.514402630190     2.580329790460     1.007825032230
         H           -1.123005196360     0.746162630190     4.042868790460     1.007825032230
         H           -2.187341386360     1.673472630190     2.923419790460     1.007825032230

  Running in c1 symmetry.

  Rotational constants: A =      0.04487  B =      0.03180  C =      0.02391 [cm^-1]
  Rotational constants: A =   1345.14007  B =    953.44425  C =    716.69766 [MHz]
  Nuclear repulsion =  513.614587918879579

  Charge       = 0
  Multiplicity = 1
  Electrons    = 76
  Nalpha       = 38
  Nbeta        = 38

  ==> Algorithm <==

  SCF Algorithm Type is PK.
  DIIS enabled.
  MOM disabled.
  Fractional occupation disabled.
  Guess Type is SAD.
  Energy threshold   = 1.00e-06
  Density threshold  = 1.00e-10
  Integral threshold = 0.00e+00

  ==> Primary Basis <==

  Basis Set: CC-PVDZ
    Blend: CC-PVDZ
    Number of shells: 102
    Number of basis function: 210
    Number of Cartesian functions: 220
    Spherical Harmonics?: true
    Max angular momentum: 2

  ==> Pre-Iterations <==

   -------------------------------------------------------
    Irrep   Nso     Nmo     Nalpha   Nbeta   Ndocc  Nsocc
   -------------------------------------------------------
     A        210     210       0       0       0       0
   -------------------------------------------------------
    Total     210     210      38      38      38       0
   -------------------------------------------------------

  ==> Integral Setup <==

  Using integral reordering PK algorithm.
  Sizing the integral batches needed.
  Building batch lookup table.
   Calculation information:
      Number of atoms:                  24
      Number of AO shells:             102
      Number of primitives:            290
      Number of atomic orbitals:       220
      Number of basis functions:       210

      Integral cutoff                 1.00e-12
      Number of threads:                 1

	Batch   1 pq = [       0,    9405] index = [             0,44231715] size =     44231715
	Batch   2 pq = [    9405,   13301] index = [      44231715,88464951] size =     44233236
	Batch   3 pq = [   13301,   16290] index = [      88464951,132690195] size =     44225244
	Batch   4 pq = [   16290,   18810] index = [     132690195,176917455] size =     44227260
	Batch   5 pq = [   18810,   21030] index = [     176917455,221140965] size =     44223510
	Batch   6 pq = [   21030,   22155] index = [     221140965,245433090] size =     24292125
  Task number: 23
  Buffer size: 11059200
  Buffer per thread: 2
  We computed 14019027 shell quartets total.
  Whereas there are 13799631 unique shell quartets.
     1.59 percent of shell quartets recomputed by reordering.

  ==> DiskJK: Disk-Based J/K Matrices <==

    J tasked:                  Yes
    K tasked:                  Yes
    wK tasked:                  No
    Memory [MiB]:              375
    Schwarz Cutoff:          1E-12

    OpenMP threads:              1

  Minimum eigenvalue in the overlap matrix is 3.2771856779E-04.
  Using Symmetric Orthogonalization.

  SCF Guess: Superposition of Atomic Densities via on-the-fly atomic UHF.

  ==> Iterations <==

                        Total Energy        Delta E     RMS |[F,P]|

   @RHF iter SAD:  -422.67614365824124   -4.22676e+02   0.00000e+00
   @RHF iter   1:  -423.59928389184984   -9.23140e-01   2.98871e-03 DIIS
   @RHF iter   2:  -423.81567330084101   -2.16389e-01   1.27408e-03 DIIS
   @RHF iter   3:  -423.85138978922328   -3.57165e-02   2.88532e-04 DIIS
   @RHF iter   4:  -423.85429138608652   -2.90160e-03   1.21832e-04 DIIS
   @RHF iter   5:  -423.85467556792582   -3.84182e-04   2.11533e-05 DIIS
   @RHF iter   6:  -423.85469379380902   -1.82259e-05   6.56100e-06 DIIS
   @RHF iter   7:  -423.85469557870732   -1.78490e-06   2.17350e-06 DIIS
   @RHF iter   8:  -423.85469583919422   -2.60487e-07   8.49214e-07 DIIS
   @RHF iter   9:  -423.85469588901776   -4.98235e-08   3.70030e-07 DIIS
   @RHF iter  10:  -423.85469590012934   -1.11116e-08   1.65528e-07 DIIS
   @RHF iter  11:  -423.85469590369615   -3.56681e-09   6.79153e-08 DIIS
   @RHF iter  12:  -423.85469590423406   -5.37909e-10   3.14542e-08 DIIS
   @RHF iter  13:  -423.85469590431245   -7.83871e-11   8.35814e-09 DIIS
   @RHF iter  14:  -423.85469590431507   -2.61480e-12   2.27328e-09 DIIS
   @RHF iter  15:  -423.85469590431819   -3.12639e-12   7.34058e-10 DIIS
   @RHF iter  16:  -423.85469590431660    1.59162e-12   2.35348e-10 DIIS
   @RHF iter  17:  -423.85469590431887   -2.27374e-12   9.98166e-11 DIIS
  Energy and wave function converged.

  ==> Post-Iterations <==

    Orbital Energies [Eh]
    ---------------------

    Doubly Occupied:

       1A    -20.583544     2A    -11.300817     3A    -11.241598
       4A    -11.239211     5A    -11.235896     6A    -11.235568
       7A    -11.230975     8A    -11.229310     9A    -11.210518
      10A    -11.202319    11A     -1.399687    12A     -1.149815
      13A     -1.036906    14A     -1.018227    15A     -1.010407
      16A     -0.926551    17A     -0.844910    18A     -0.825133
      19A     -0.802441    20A     -0.732443    21A     -0.667749
      22A     -0.641889    23A     -0.607825    24A     -0.596362
      25A     -0.589576    26A     -0.587925    27A     -0.581629
      28A     -0.570695    29A     -0.567039    30A     -0.527889
      31A     -0.498668    32A     -0.492401    33A     -0.485676
      34A     -0.479138    35A     -0.474714    36A     -0.460602
      37A     -0.338837    38A     -0.301583

    Virtual:

      39A      0.126887    40A      0.154024    41A      0.172462
      42A      0.177958    43A      0.205227    44A      0.213499
      45A      0.220804    46A      0.250615    47A      0.253711
      48A      0.265135    49A      0.266671    50A      0.273527
      51A      0.285374    52A      0.292372    53A      0.314067
      54A      0.342830    55A      0.369088    56A      0.372511
      57A      0.410408    58A      0.430959    59A      0.455021
      60A      0.486784    61A      0.492815    62A      0.508868
      63A      0.578254    64A      0.591940    65A      0.604644
      66A      0.613286    67A      0.635722    68A      0.645864
      69A      0.650662    70A      0.681578    71A      0.686242
      72A      0.698726    73A      0.710506    74A      0.731401
      75A      0.734789    76A      0.765530    77A      0.766161
      78A      0.772577    79A      0.791436    80A      0.803980
      81A      0.823896    82A      0.839085    83A      0.849175
      84A      0.867070    85A      0.874327    86A      0.884577
      87A      0.890821    88A      0.897252    89A      0.902919
      90A      0.905401    91A      0.918076    92A      0.923919
      93A      0.932792    94A      0.939341    95A      0.952011
      96A      0.960039    97A      0.993311    98A      0.997593
      99A      1.011768   100A      1.028013   101A      1.041301
     102A      1.074017   103A      1.123632   104A      1.138118
     105A      1.142505   106A      1.144313   107A      1.160889
     108A      1.182054   109A      1.206989   110A      1.233714
     111A      1.246117   112A      1.262785   113A      1.280653
     114A      1.288170   115A      1.293141   116A      1.307448
     117A      1.326745   118A      1.357766   119A      1.362088
     120A      1.384688   121A      1.477397   122A      1.485000
     123A      1.494340   124A      1.516719   125A      1.526231
     126A      1.557190   127A      1.591595   128A      1.618128
     129A      1.627238   130A      1.682382   131A      1.684390
     132A      1.692586   133A      1.713089   134A      1.743163
     135A      1.746705   136A      1.781850   137A      1.798436
     138A      1.815378   139A      1.861463   140A      1.874192
     141A      1.881686   142A      1.892402   143A      1.898260
     144A      1.911225   145A      1.917932   146A      1.925385
     147A      1.933797   148A      1.945996   149A      1.949245
     150A      1.960603   151A      1.961583   152A      1.977129
     153A      1.980010   154A      1.981790   155A      2.006403
     156A      2.024867   157A      2.028832   158A      2.046227
     159A      2.061408   160A      2.073351   161A      2.083667
     162A      2.113684   163A      2.120279   164A      2.140556
     165A      2.152657   166A      2.186965   167A      2.201779
     168A      2.213794   169A      2.255174   170A      2.269079
     171A      2.293526   172A      2.314395   173A      2.328422
     174A      2.358386   175A      2.370787   176A      2.401406
     177A      2.451072   178A      2.459245   179A      2.474571
     180A      2.494534   181A      2.504366   182A      2.528255
     183A      2.553180   184A      2.585729   185A      2.586893
     186A      2.607703   187A      2.644488   188A      2.742196
     189A      2.774063   190A      2.782478   191A      2.790744
     192A      2.802071   193A      2.813364   194A      2.846546
     195A      2.863722   196A      2.875026   197A      2.902800
     198A      2.955067   199A      2.977501   200A      3.003621
     201A      3.008581   202A      3.083533   203A      3.112654
     204A      3.248998   205A      3.274866   206A      3.345725
     207A      3.573496   208A      3.668158   209A      3.965649
     210A      4.188366

    Final Occupation by Irrep:
              A
    DOCC [    38 ]

  @RHF Final Energy:  -423.85469590431887

   => Energetics <=

    Nuclear Repulsion Energy =            513.6145879188795789
    One-Electron Energy =               -1593.0856209585117540
    Two-Electron Energy =                 655.6163371353133016
    Total Energy =                       -423.8546959043188735

Computation Completed

Properties will be evaluated at   0.000000,   0.000000,   0.000000 [a0]

Properties computed using the SCF density matrix

  Nuclear Dipole Moment: [e a0]
     X:    -0.6972      Y:     4.2229      Z:    12.8429

  Electronic Dipole Moment: [e a0]
     X:     0.7526      Y:    -3.6753      Z:   -12.9603

  Dipole Moment: [e a0]
     X:     0.0554      Y:     0.5476      Z:    -0.1174     Total:     0.5628

  Dipole Moment: [D]
     X:     0.1408      Y:     1.3919      Z:    -0.2983     Total:     1.4305

*** tstop() called on ds3 at Sun Apr 26 22:00:33 2020
Module time:
	user time   =     103.86 seconds =       1.73 minutes
	system time =      35.27 seconds =       0.59 minutes
	total time  =        155 seconds =       2.58 minutes
Total time:
	user time   =     103.86 seconds =       1.73 minutes
	system time =      35.27 seconds =       0.59 minutes
	total time  =        155 seconds =       2.58 minutes
                                     G D M A

                                 by Anthony Stone

                           version 2.2.06, 22 June 2011

               Distributed Multipoles from Gaussian wavefunctions

Starting at 22:0:33 on 26 Apr 2020

Using SCF density matrix from file ./SSI/SSI-045TYR-053THR-1-dimer.test.15847.fchk

                         Distributed Multipole Analysis

Standard DMA

Positions and radii in angstrom
Multipole moments in atomic units, ea_0^k for rank k

C          x =  2.547140  y =  0.840403  z =  1.061330 angstrom
           Maximum rank =  0   Radius =  0.650 angstrom
                   Q00  =  -0.195476

C          x = -0.591860  y = -0.559597  z = -1.545670 angstrom
           Maximum rank =  0   Radius =  0.650 angstrom
                   Q00  =   0.307843

C          x = -0.322860  y =  0.805403  z = -1.453670 angstrom
           Maximum rank =  0   Radius =  0.650 angstrom
                   Q00  =  -0.181303

C          x =  0.150140  y = -1.473597  z = -0.798670 angstrom
           Maximum rank =  0   Radius =  0.650 angstrom
                   Q00  =  -0.111457

C          x =  0.690140  y =  1.251403  z = -0.603670 angstrom
           Maximum rank =  0   Radius =  0.650 angstrom
                   Q00  =   0.021857

C          x =  1.163140  y = -1.018597  z =  0.047330 angstrom
           Maximum rank =  0   Radius =  0.650 angstrom
                   Q00  =  -0.012186

C          x =  1.444140  y =  0.345403  z =  0.153330 angstrom
           Maximum rank =  0   Radius =  0.650 angstrom
                   Q00  =  -0.136187

O          x = -1.578860  y = -1.002597  z = -2.375670 angstrom
           Maximum rank =  0   Radius =  0.650 angstrom
                   Q00  =  -0.674427

H          x = -0.903860  y =  1.515403  z = -2.025670 angstrom
           Maximum rank =  0   Radius =  0.325 angstrom
                   Q00  =   0.072437

H          x = -2.019860  y = -0.276597  z = -2.831670 angstrom
           Maximum rank =  0   Radius =  0.325 angstrom
                   Q00  =   0.406572

H          x = -0.073860  y = -2.528597  z = -0.871670 angstrom
           Maximum rank =  0   Radius =  0.325 angstrom
                   Q00  =   0.081970

H          x =  0.889140  y =  2.312403  z = -0.529670 angstrom
           Maximum rank =  0   Radius =  0.325 angstrom
                   Q00  =   0.068488

H          x =  1.703140  y = -1.727597  z =  0.653330 angstrom
           Maximum rank =  0   Radius =  0.325 angstrom
                   Q00  =   0.065064

H          x =  2.876140  y =  0.032403  z =  1.715330 angstrom
           Maximum rank =  0   Radius =  0.325 angstrom
                   Q00  =   0.097405

H          x =  2.133140  y =  1.631403  z =  1.684330 angstrom
           Maximum rank =  0   Radius =  0.325 angstrom
                   Q00  =   0.093530

H          x =  3.413226  y =  1.233623  z =  0.508814 angstrom
           Maximum rank =  0   Radius =  0.325 angstrom
                   Q00  =   0.100341

C          x = -1.596860  y = -0.237597  z =  2.163330 angstrom
           Maximum rank =  0   Radius =  0.650 angstrom
                   Q00  =  -0.222857

C          x = -1.316860  y =  1.004403  z =  2.991330 angstrom
           Maximum rank =  0   Radius =  0.650 angstrom
                   Q00  =  -0.235440

H          x = -2.435860  y = -0.791597  z =  2.586330 angstrom
           Maximum rank =  0   Radius =  0.325 angstrom
                   Q00  =   0.069513

H          x = -1.840860  y =  0.056403  z =  1.142330 angstrom
           Maximum rank =  0   Radius =  0.325 angstrom
                   Q00  =   0.083342

H          x = -0.720860  y = -0.881597  z =  2.133330 angstrom
           Maximum rank =  0   Radius =  0.325 angstrom
                   Q00  =   0.079355

H          x = -0.444860  y =  1.514403  z =  2.580330 angstrom
           Maximum rank =  0   Radius =  0.325 angstrom
                   Q00  =   0.075945

H          x = -1.123005  y =  0.746163  z =  4.042869 angstrom
           Maximum rank =  0   Radius =  0.325 angstrom
                   Q00  =   0.073539

H          x = -2.187341  y =  1.673473  z =  2.923420 angstrom
           Maximum rank =  0   Radius =  0.325 angstrom
                   Q00  =   0.072134

Total multipoles referred to origin at
           x =   0.000000,  y =    0.000000,  z =    0.000000 angstrom
                   Q00  =  -0.000000

Finished at 22:0:33 on 26 Apr 2020

  DMA results are available in the Python driver through the
	  variable('DMA DISTRIBUTED MULTIPOLES')
  and
	  variable('DMA TOTAL MULTIPOLES')
  commands.

    Psi4 stopped on: Sunday, 26 April 2020 10:00PM
    Psi4 wall time for execution: 0:02:35.89

*** Psi4 exiting successfully. Buy a developer a beer!
