                               Psi4 1.3.2 release

  ==> Input File <==

--------------------------------------------------------------------------
import numpy as np
set {scf_type pk
basis cc-pvdz
d_convergence 10
gdma_switch   0
gdma_limit    0
gdma_origin   [ 0.0,  0.0,  0.0 ]
}
molecule test {
    units Angstrom
    0 1
    --
    0 1
    C                0.216725125406115    -0.523962746460333     2.830986638134302
    N                1.093725125406116     0.265037253539667     1.924986638134302
    H                0.946725125406116     1.260037253539667     2.040986638134302
    H                2.072725125406116     0.072037253539667     2.092986638134302
    H                0.898725125406115     0.039037253539667     0.944986638134302
    H               -0.831274874593885    -0.236962746460333     2.694986638134302
    H                0.486725125406116    -0.328962746460333     3.875986638134302
    H                0.323765125406116    -1.598742746460333     2.622684638134302
    C               -1.122274874593884    -0.448962746460333    -2.412013361865698
    C               -0.345274874593884     0.093037253539667    -1.208013361865698
    O               -0.677274874593884     1.161037253539667    -0.640013361865698
    O                0.653725125406115    -0.567962746460333    -0.836013361865698
    H               -1.657274874593884    -1.355962746460333    -2.134013361865698
    H               -0.389274874593884    -0.752962746460333    -3.163013361865699
    H               -1.780334874593885     0.284117253539667    -2.901449361865698

}
e, wfn = energy('scf', return_wfn=True)
gdma(wfn)
dmavals = variable('DMA DISTRIBUTED MULTIPOLES')
charges = np.array(dmavals)
print(charges)
np.save('SSI-030LYS-083GLU-1-dimer.npy', np.array(charges))--------------------------------------------------------------------------

*** tstart() called on ds3
*** at Tue Apr 28 09:23:10 2020

   => Loading Basis Set <=

    Name: CC-PVDZ
    Role: ORBITAL
    Keyword: BASIS
    atoms 1, 9-10    entry C          line   138 file /theoryfs2/ds/metcalf/miniconda2/envs/tf2gpu/share/psi4/basis/cc-pvdz.gbs
    atoms 2          entry N          line   168 file /theoryfs2/ds/metcalf/miniconda2/envs/tf2gpu/share/psi4/basis/cc-pvdz.gbs
    atoms 3-8, 13-15 entry H          line    22 file /theoryfs2/ds/metcalf/miniconda2/envs/tf2gpu/share/psi4/basis/cc-pvdz.gbs
    atoms 11-12      entry O          line   198 file /theoryfs2/ds/metcalf/miniconda2/envs/tf2gpu/share/psi4/basis/cc-pvdz.gbs

         ---------------------------------------------------------
                                   SCF
               by Justin Turney, Rob Parrish, Andy Simmonett
                          and Daniel G. A. Smith
                              RHF Reference
                        1 Threads,    500 MiB Core
         ---------------------------------------------------------

  ==> Geometry <==

    Molecular point group: c1
    Full point group: C1

    Geometry (in Angstrom), charge = 0, multiplicity = 1:

       Center              X                  Y                   Z               Mass
    ------------   -----------------  -----------------  -----------------  -----------------
         C            0.216725125406    -0.523962746460     2.830986638134    12.000000000000
         N            1.093725125406     0.265037253540     1.924986638134    14.003074004430
         H            0.946725125406     1.260037253540     2.040986638134     1.007825032230
         H            2.072725125406     0.072037253540     2.092986638134     1.007825032230
         H            0.898725125406     0.039037253540     0.944986638134     1.007825032230
         H           -0.831274874594    -0.236962746460     2.694986638134     1.007825032230
         H            0.486725125406    -0.328962746460     3.875986638134     1.007825032230
         H            0.323765125406    -1.598742746460     2.622684638134     1.007825032230
         C           -1.122274874594    -0.448962746460    -2.412013361866    12.000000000000
         C           -0.345274874594     0.093037253540    -1.208013361866    12.000000000000
         O           -0.677274874594     1.161037253540    -0.640013361866    15.994914619570
         O            0.653725125406    -0.567962746460    -0.836013361866    15.994914619570
         H           -1.657274874594    -1.355962746460    -2.134013361866     1.007825032230
         H           -0.389274874594    -0.752962746460    -3.163013361866     1.007825032230
         H           -1.780334874594     0.284117253540    -2.901449361866     1.007825032230

  Running in c1 symmetry.

  Rotational constants: A =      0.23167  B =      0.04519  C =      0.04348 [cm^-1]
  Rotational constants: A =   6945.16233  B =   1354.65264  C =   1303.36336 [MHz]
  Nuclear repulsion =  241.138235136751717

  Charge       = 0
  Multiplicity = 1
  Electrons    = 50
  Nalpha       = 25
  Nbeta        = 25

  ==> Algorithm <==

  SCF Algorithm Type is PK.
  DIIS enabled.
  MOM disabled.
  Fractional occupation disabled.
  Guess Type is SAD.
  Energy threshold   = 1.00e-06
  Density threshold  = 1.00e-10
  Integral threshold = 0.00e+00

  ==> Primary Basis <==

  Basis Set: CC-PVDZ
    Blend: CC-PVDZ
    Number of shells: 63
    Number of basis function: 129
    Number of Cartesian functions: 135
    Spherical Harmonics?: true
    Max angular momentum: 2

  ==> Pre-Iterations <==

   -------------------------------------------------------
    Irrep   Nso     Nmo     Nalpha   Nbeta   Ndocc  Nsocc
   -------------------------------------------------------
     A        129     129       0       0       0       0
   -------------------------------------------------------
    Total     129     129      25      25      25       0
   -------------------------------------------------------

  ==> Integral Setup <==

  Using integral reordering PK algorithm.
  Sizing the integral batches needed.
  Building batch lookup table.
   Calculation information:
      Number of atoms:                  15
      Number of AO shells:              63
      Number of primitives:            177
      Number of atomic orbitals:       135
      Number of basis functions:       129

      Integral cutoff                 1.00e-12
      Number of threads:                 1

	Batch   1 pq = [       0,    8385] index = [             0,35158305] size =     35158305
  Task number: 4
  Buffer size: 11059200
  Buffer per thread: 2
  We computed 1742361 shell quartets total.
  Whereas there are 2033136 unique shell quartets.

  ==> DiskJK: Disk-Based J/K Matrices <==

    J tasked:                  Yes
    K tasked:                  Yes
    wK tasked:                  No
    Memory [MiB]:              375
    Schwarz Cutoff:          1E-12

    OpenMP threads:              1

  Minimum eigenvalue in the overlap matrix is 5.2150633441E-03.
  Using Symmetric Orthogonalization.

  SCF Guess: Superposition of Atomic Densities via on-the-fly atomic UHF.

  ==> Iterations <==

                        Total Energy        Delta E     RMS |[F,P]|

   @RHF iter SAD:  -321.69389399662367   -3.21694e+02   0.00000e+00
   @RHF iter   1:  -322.79692947902919   -1.10304e+00   5.21560e-03 DIIS
   @RHF iter   2:  -322.96490099616699   -1.67972e-01   2.89955e-03 DIIS
   @RHF iter   3:  -323.01430164713997   -4.94007e-02   4.72496e-04 DIIS
   @RHF iter   4:  -323.01677953384473   -2.47789e-03   1.53721e-04 DIIS
   @RHF iter   5:  -323.01705032407943   -2.70790e-04   2.97657e-05 DIIS
   @RHF iter   6:  -323.01706224137439   -1.19173e-05   1.43819e-05 DIIS
   @RHF iter   7:  -323.01706394460200   -1.70323e-06   3.13206e-06 DIIS
   @RHF iter   8:  -323.01706419668153   -2.52080e-07   1.38613e-06 DIIS
   @RHF iter   9:  -323.01706425016647   -5.34849e-08   4.56474e-07 DIIS
   @RHF iter  10:  -323.01706425634040   -6.17393e-09   1.51063e-07 DIIS
   @RHF iter  11:  -323.01706425678987   -4.49461e-10   3.75301e-08 DIIS
   @RHF iter  12:  -323.01706425681994   -3.00702e-11   9.97594e-09 DIIS
   @RHF iter  13:  -323.01706425682153   -1.59162e-12   3.45262e-09 DIIS
   @RHF iter  14:  -323.01706425682096    5.68434e-13   1.28036e-09 DIIS
   @RHF iter  15:  -323.01706425682198   -1.02318e-12   4.72808e-10 DIIS
   @RHF iter  16:  -323.01706425682130    6.82121e-13   2.22830e-10 DIIS
   @RHF iter  17:  -323.01706425682136   -5.68434e-14   8.13103e-11 DIIS
  Energy and wave function converged.

  ==> Post-Iterations <==

    Orbital Energies [Eh]
    ---------------------

    Doubly Occupied:

       1A    -20.429772     2A    -20.418487     3A    -15.723158
       4A    -11.343014     5A    -11.272437     6A    -11.175203
       7A     -1.347617     8A     -1.312163     9A     -1.194951
      10A     -1.010925    11A     -0.922965    12A     -0.808109
      13A     -0.797336    14A     -0.701285    15A     -0.648794
      16A     -0.617193    17A     -0.614179    18A     -0.556966
      19A     -0.547780    20A     -0.540279    21A     -0.481409
      22A     -0.453372    23A     -0.347247    24A     -0.330599
      25A     -0.326067

    Virtual:

      26A      0.108501    27A      0.162703    28A      0.176425
      29A      0.203334    30A      0.224950    31A      0.245279
      32A      0.274438    33A      0.283565    34A      0.308863
      35A      0.344030    36A      0.371616    37A      0.448577
      38A      0.509102    39A      0.529389    40A      0.561053
      41A      0.575003    42A      0.600474    43A      0.675514
      44A      0.691472    45A      0.695988    46A      0.762676
      47A      0.786821    48A      0.801409    49A      0.810500
      50A      0.816684    51A      0.834778    52A      0.860859
      53A      0.899207    54A      0.910947    55A      0.920127
      56A      0.942982    57A      0.952017    58A      0.975429
      59A      0.994423    60A      1.011422    61A      1.069887
      62A      1.090761    63A      1.124771    64A      1.186950
      65A      1.209493    66A      1.212440    67A      1.325547
      68A      1.359274    69A      1.413258    70A      1.430785
      71A      1.440904    72A      1.453234    73A      1.481025
      74A      1.515300    75A      1.577190    76A      1.600120
      77A      1.602279    78A      1.690096    79A      1.714013
      80A      1.729081    81A      1.780537    82A      1.821173
      83A      1.828285    84A      1.872539    85A      1.883831
      86A      1.895381    87A      1.902814    88A      1.951384
      89A      1.963111    90A      2.013584    91A      2.080590
      92A      2.088118    93A      2.098921    94A      2.105275
      95A      2.112851    96A      2.122254    97A      2.166486
      98A      2.209754    99A      2.283338   100A      2.298628
     101A      2.339012   102A      2.402918   103A      2.411917
     104A      2.448131   105A      2.513095   106A      2.577490
     107A      2.589309   108A      2.620039   109A      2.643714
     110A      2.654082   111A      2.675165   112A      2.795736
     113A      2.848841   114A      2.861283   115A      2.881848
     116A      2.894907   117A      2.933209   118A      3.082347
     119A      3.125837   120A      3.138391   121A      3.199834
     122A      3.262084   123A      3.337612   124A      3.483387
     125A      3.609489   126A      3.653335   127A      3.905249
     128A      3.918049   129A      4.051858

    Final Occupation by Irrep:
              A
    DOCC [    25 ]

  @RHF Final Energy:  -323.01706425682136

   => Energetics <=

    Nuclear Repulsion Energy =            241.1382351367517174
    One-Electron Energy =                -920.4679863101135879
    Two-Electron Energy =                 356.3126869165404855
    Total Energy =                       -323.0170642568213566

Computation Completed

Properties will be evaluated at   0.000000,   0.000000,   0.000000 [a0]

Properties computed using the SCF density matrix

  Nuclear Dipole Moment: [e a0]
     X:     0.0628      Y:    -2.4526      Z:     5.6816

  Electronic Dipole Moment: [e a0]
     X:     1.1839      Y:     2.0576      Z:    -1.7773

  Dipole Moment: [e a0]
     X:     1.2467      Y:    -0.3950      Z:     3.9043     Total:     4.1175

  Dipole Moment: [D]
     X:     3.1687      Y:    -1.0040      Z:     9.9238     Total:    10.4657

*** tstop() called on ds3 at Tue Apr 28 09:23:30 2020
Module time:
	user time   =      14.26 seconds =       0.24 minutes
	system time =       6.20 seconds =       0.10 minutes
	total time  =         20 seconds =       0.33 minutes
Total time:
	user time   =      14.26 seconds =       0.24 minutes
	system time =       6.20 seconds =       0.10 minutes
	total time  =         20 seconds =       0.33 minutes
                                     G D M A

                                 by Anthony Stone

                           version 2.2.06, 22 June 2011

               Distributed Multipoles from Gaussian wavefunctions

Starting at 9:23:30 on 28 Apr 2020

Using SCF density matrix from file ./SSI/SSI-030LYS-083GLU-1-dimer.test.10378.fchk

                         Distributed Multipole Analysis

Standard DMA

Positions and radii in angstrom
Multipole moments in atomic units, ea_0^k for rank k

C          x =  0.216725  y = -0.523963  z =  2.830987 angstrom
           Maximum rank =  0   Radius =  0.650 angstrom
                   Q00  =  -0.133399

N          x =  1.093725  y =  0.265037  z =  1.924987 angstrom
           Maximum rank =  0   Radius =  0.650 angstrom
                   Q00  =  -0.093198

H          x =  0.946725  y =  1.260037  z =  2.040987 angstrom
           Maximum rank =  0   Radius =  0.325 angstrom
                   Q00  =   0.240239

H          x =  2.072725  y =  0.072037  z =  2.092987 angstrom
           Maximum rank =  0   Radius =  0.325 angstrom
                   Q00  =   0.219843

H          x =  0.898725  y =  0.039037  z =  0.944987 angstrom
           Maximum rank =  0   Radius =  0.325 angstrom
                   Q00  =   0.310189

H          x = -0.831275  y = -0.236963  z =  2.694987 angstrom
           Maximum rank =  0   Radius =  0.325 angstrom
                   Q00  =   0.156762

H          x =  0.486725  y = -0.328963  z =  3.875987 angstrom
           Maximum rank =  0   Radius =  0.325 angstrom
                   Q00  =   0.117922

H          x =  0.323765  y = -1.598743  z =  2.622685 angstrom
           Maximum rank =  0   Radius =  0.325 angstrom
                   Q00  =   0.149334

C          x = -1.122275  y = -0.448963  z = -2.412013 angstrom
           Maximum rank =  0   Radius =  0.650 angstrom
                   Q00  =  -0.255359

C          x = -0.345275  y =  0.093037  z = -1.208013 angstrom
           Maximum rank =  0   Radius =  0.650 angstrom
                   Q00  =   0.858681

O          x = -0.677275  y =  1.161037  z = -0.640013 angstrom
           Maximum rank =  0   Radius =  0.650 angstrom
                   Q00  =  -0.899046

O          x =  0.653725  y = -0.567963  z = -0.836013 angstrom
           Maximum rank =  0   Radius =  0.650 angstrom
                   Q00  =  -0.943764

H          x = -1.657275  y = -1.355963  z = -2.134013 angstrom
           Maximum rank =  0   Radius =  0.325 angstrom
                   Q00  =   0.096270

H          x = -0.389275  y = -0.752963  z = -3.163013 angstrom
           Maximum rank =  0   Radius =  0.325 angstrom
                   Q00  =   0.093296

H          x = -1.780335  y =  0.284117  z = -2.901449 angstrom
           Maximum rank =  0   Radius =  0.325 angstrom
                   Q00  =   0.082231

Total multipoles referred to origin at
           x =   0.000000,  y =    0.000000,  z =    0.000000 angstrom
                   Q00  =  -0.000000

Finished at 9:23:30 on 28 Apr 2020

  DMA results are available in the Python driver through the
	  variable('DMA DISTRIBUTED MULTIPOLES')
  and
	  variable('DMA TOTAL MULTIPOLES')
  commands.

    Psi4 stopped on: Tuesday, 28 April 2020 09:23AM
    Psi4 wall time for execution: 0:00:19.94

*** Psi4 exiting successfully. Buy a developer a beer!
