                               Psi4 1.3.2 release

  ==> Input File <==

--------------------------------------------------------------------------
import numpy as np
set {scf_type pk
basis cc-pvdz
d_convergence 10
gdma_switch   0
gdma_limit    0
gdma_origin   [ 0.0,  0.0,  0.0 ]
}
molecule test {
    units Angstrom
    0 1
    --
    0 1
    C                0.164815620398435     0.902546779744594     1.654310720684144
    C               -0.293184379601565     2.341546779744594     1.929310720684144
    S                1.584815620398434     0.730546779744594     0.536310720684144
    H                0.439815620398435     0.448546779744594     2.610310720684144
    H               -0.673184379601566     0.328546779744594     1.267310720684144
    H                0.530815620398435     2.838546779744594     2.442310720684144
    H                2.087815620398434    -0.397453220255406     1.078310720684144
    H               -1.168344379601566     2.304706779744594     2.594700720684144
    H               -0.528794379601566     2.871836779744593     0.994810720684144
    C               -1.597184379601565    -0.751453220255406    -1.138689279315856
    C               -1.258184379601565    -0.149453220255406    -2.498689279315856
    S               -0.261184379601565    -1.802453220255406    -0.521689279315856
    H               -1.830184379601565     0.043546779744594    -0.430689279315856
    H               -2.492184379601566    -1.368453220255406    -1.248689279315856
    H               -0.985184379601565    -0.958453220255406    -3.180689279315856
    H                0.729815620398435    -0.909453220255406    -0.624689279315856
    H               -0.422394379601565     0.560926779744594    -2.416089279315856
    H               -2.151794379601566     0.342206779744594    -2.910679279315856

}
e, wfn = energy('scf', return_wfn=True)
gdma(wfn)
dmavals = variable('DMA DISTRIBUTED MULTIPOLES')
charges = np.array(dmavals)
print(charges)
np.save('SSI-035CYS-038CYS-1-dimer.npy', np.array(charges))--------------------------------------------------------------------------

*** tstart() called on ds3
*** at Sun Apr 26 18:08:52 2020

   => Loading Basis Set <=

    Name: CC-PVDZ
    Role: ORBITAL
    Keyword: BASIS
    atoms 1-2, 10-11 entry C          line   138 file /theoryfs2/ds/metcalf/miniconda2/envs/tf2gpu/share/psi4/basis/cc-pvdz.gbs
    atoms 3, 12      entry S          line   598 file /theoryfs2/ds/metcalf/miniconda2/envs/tf2gpu/share/psi4/basis/cc-pvdz.gbs
    atoms 4-9, 13-18 entry H          line    22 file /theoryfs2/ds/metcalf/miniconda2/envs/tf2gpu/share/psi4/basis/cc-pvdz.gbs

         ---------------------------------------------------------
                                   SCF
               by Justin Turney, Rob Parrish, Andy Simmonett
                          and Daniel G. A. Smith
                              RHF Reference
                        1 Threads,    500 MiB Core
         ---------------------------------------------------------

  ==> Geometry <==

    Molecular point group: c1
    Full point group: C1

    Geometry (in Angstrom), charge = 0, multiplicity = 1:

       Center              X                  Y                   Z               Mass
    ------------   -----------------  -----------------  -----------------  -----------------
         C            0.164815620398     0.902546779745     1.654310720684    12.000000000000
         C           -0.293184379602     2.341546779745     1.929310720684    12.000000000000
         S            1.584815620398     0.730546779745     0.536310720684    31.972071174400
         H            0.439815620398     0.448546779745     2.610310720684     1.007825032230
         H           -0.673184379602     0.328546779745     1.267310720684     1.007825032230
         H            0.530815620398     2.838546779745     2.442310720684     1.007825032230
         H            2.087815620398    -0.397453220255     1.078310720684     1.007825032230
         H           -1.168344379602     2.304706779745     2.594700720684     1.007825032230
         H           -0.528794379602     2.871836779745     0.994810720684     1.007825032230
         C           -1.597184379602    -0.751453220255    -1.138689279316    12.000000000000
         C           -1.258184379602    -0.149453220255    -2.498689279316    12.000000000000
         S           -0.261184379602    -1.802453220255    -0.521689279316    31.972071174400
         H           -1.830184379602     0.043546779745    -0.430689279316     1.007825032230
         H           -2.492184379602    -1.368453220255    -1.248689279316     1.007825032230
         H           -0.985184379602    -0.958453220255    -3.180689279316     1.007825032230
         H            0.729815620398    -0.909453220255    -0.624689279316     1.007825032230
         H           -0.422394379602     0.560926779745    -2.416089279316     1.007825032230
         H           -2.151794379602     0.342206779745    -2.910679279316     1.007825032230

  Running in c1 symmetry.

  Rotational constants: A =      0.08832  B =      0.03379  C =      0.03037 [cm^-1]
  Rotational constants: A =   2647.70117  B =   1013.00063  C =    910.44802 [MHz]
  Nuclear repulsion =  370.784247924944168

  Charge       = 0
  Multiplicity = 1
  Electrons    = 68
  Nalpha       = 34
  Nbeta        = 34

  ==> Algorithm <==

  SCF Algorithm Type is PK.
  DIIS enabled.
  MOM disabled.
  Fractional occupation disabled.
  Guess Type is SAD.
  Energy threshold   = 1.00e-06
  Density threshold  = 1.00e-10
  Integral threshold = 0.00e+00

  ==> Primary Basis <==

  Basis Set: CC-PVDZ
    Blend: CC-PVDZ
    Number of shells: 76
    Number of basis function: 152
    Number of Cartesian functions: 158
    Spherical Harmonics?: true
    Max angular momentum: 2

  ==> Pre-Iterations <==

   -------------------------------------------------------
    Irrep   Nso     Nmo     Nalpha   Nbeta   Ndocc  Nsocc
   -------------------------------------------------------
     A        152     152       0       0       0       0
   -------------------------------------------------------
    Total     152     152      34      34      34       0
   -------------------------------------------------------

  ==> Integral Setup <==

  Using integral reordering PK algorithm.
  Sizing the integral batches needed.
  Building batch lookup table.
   Calculation information:
      Number of atoms:                  18
      Number of AO shells:              76
      Number of primitives:            248
      Number of atomic orbitals:       158
      Number of basis functions:       152

      Integral cutoff                 1.00e-12
      Number of threads:                 1

	Batch   1 pq = [       0,    9405] index = [             0,44231715] size =     44231715
	Batch   2 pq = [    9405,   11628] index = [      44231715,67611006] size =     23379291
  Task number: 7
  Buffer size: 11059200
  Buffer per thread: 2
  We computed 4032222 shell quartets total.
  Whereas there are 4282201 unique shell quartets.

  ==> DiskJK: Disk-Based J/K Matrices <==

    J tasked:                  Yes
    K tasked:                  Yes
    wK tasked:                  No
    Memory [MiB]:              375
    Schwarz Cutoff:          1E-12

    OpenMP threads:              1

  Minimum eigenvalue in the overlap matrix is 6.2443750107E-03.
  Using Symmetric Orthogonalization.

  SCF Guess: Superposition of Atomic Densities via on-the-fly atomic UHF.

  ==> Iterations <==

                        Total Energy        Delta E     RMS |[F,P]|

   @RHF iter SAD:  -952.75352462201317   -9.52754e+02   0.00000e+00
   @RHF iter   1:  -953.35002150692389   -5.96497e-01   3.01648e-03 DIIS
   @RHF iter   2:  -953.48434910473748   -1.34328e-01   1.22088e-03 DIIS
   @RHF iter   3:  -953.50420684711662   -1.98577e-02   3.25199e-04 DIIS
   @RHF iter   4:  -953.50661987573790   -2.41303e-03   7.89076e-05 DIIS
   @RHF iter   5:  -953.50674179492830   -1.21919e-04   2.10168e-05 DIIS
   @RHF iter   6:  -953.50675264263020   -1.08477e-05   5.46382e-06 DIIS
   @RHF iter   7:  -953.50675358867318   -9.46043e-07   1.51142e-06 DIIS
   @RHF iter   8:  -953.50675367992562   -9.12524e-08   3.94593e-07 DIIS
   @RHF iter   9:  -953.50675368575287   -5.82725e-09   9.14815e-08 DIIS
   @RHF iter  10:  -953.50675368612315   -3.70278e-10   2.75233e-08 DIIS
   @RHF iter  11:  -953.50675368616305   -3.99041e-11   1.06563e-08 DIIS
   @RHF iter  12:  -953.50675368616737   -4.32010e-12   4.23678e-09 DIIS
   @RHF iter  13:  -953.50675368616817   -7.95808e-13   1.20802e-09 DIIS
   @RHF iter  14:  -953.50675368617021   -2.04636e-12   3.69578e-10 DIIS
   @RHF iter  15:  -953.50675368617021    0.00000e+00   1.22156e-10 DIIS
   @RHF iter  16:  -953.50675368616908    1.13687e-12   4.61218e-11 DIIS
  Energy and wave function converged.

  ==> Post-Iterations <==

    Orbital Energies [Eh]
    ---------------------

    Doubly Occupied:

       1A    -91.953737     2A    -91.924602     3A    -11.267010
       4A    -11.258313     5A    -11.240865     6A    -11.227325
       7A     -8.958028     8A     -8.929551     9A     -6.639976
      10A     -6.638596    11A     -6.636565    12A     -6.611669
      13A     -6.610276    14A     -6.608101    15A     -1.077705
      16A     -1.064010    17A     -0.957756    18A     -0.929662
      19A     -0.822686    20A     -0.810627    21A     -0.645769
      22A     -0.625764    23A     -0.613687    24A     -0.583746
      25A     -0.547273    26A     -0.543087    27A     -0.525350
      28A     -0.511422    29A     -0.500050    30A     -0.496233
      31A     -0.451919    32A     -0.435437    33A     -0.354360
      34A     -0.335796

    Virtual:

      35A      0.140910    36A      0.172155    37A      0.198869
      38A      0.211045    39A      0.224807    40A      0.236180
      41A      0.241439    42A      0.247922    43A      0.250255
      44A      0.254662    45A      0.273821    46A      0.279545
      47A      0.290744    48A      0.342431    49A      0.358437
      50A      0.383386    51A      0.503931    52A      0.535899
      53A      0.564471    54A      0.571837    55A      0.587026
      56A      0.601194    57A      0.609051    58A      0.616691
      59A      0.636277    60A      0.648381    61A      0.681594
      62A      0.696623    63A      0.710579    64A      0.729157
      65A      0.762827    66A      0.767079    67A      0.769850
      68A      0.792363    69A      0.814373    70A      0.837113
      71A      0.854778    72A      0.859807    73A      0.871337
      74A      0.876988    75A      0.880034    76A      0.890129
      77A      0.898081    78A      0.900117    79A      0.911382
      80A      0.930695    81A      0.932308    82A      0.950288
      83A      0.960615    84A      0.971760    85A      0.992925
      86A      1.002870    87A      1.031865    88A      1.054691
      89A      1.165623    90A      1.189299    91A      1.213778
      92A      1.245073    93A      1.260335    94A      1.306019
      95A      1.327324    96A      1.334105    97A      1.408361
      98A      1.458068    99A      1.466583   100A      1.494083
     101A      1.594875   102A      1.604969   103A      1.636376
     104A      1.651330   105A      1.661257   106A      1.680605
     107A      1.702069   108A      1.722869   109A      1.757411
     110A      1.830458   111A      1.849152   112A      1.868005
     113A      1.876466   114A      1.890668   115A      1.895610
     116A      1.900825   117A      1.919995   118A      1.936157
     119A      1.958531   120A      1.970085   121A      1.973306
     122A      1.982227   123A      1.998808   124A      2.007747
     125A      2.021585   126A      2.029485   127A      2.108166
     128A      2.134427   129A      2.214827   130A      2.234640
     131A      2.270676   132A      2.293476   133A      2.296750
     134A      2.329897   135A      2.382995   136A      2.418959
     137A      2.452873   138A      2.473498   139A      2.523562
     140A      2.546012   141A      2.559520   142A      2.564588
     143A      2.746857   144A      2.759055   145A      2.791362
     146A      2.795779   147A      2.804467   148A      2.816815
     149A      2.870306   150A      2.882519   151A      2.947675
     152A      2.964004

    Final Occupation by Irrep:
              A
    DOCC [    34 ]

  @RHF Final Energy:  -953.50675368616908

   => Energetics <=

    Nuclear Repulsion Energy =            370.7842479249441681
    One-Electron Energy =               -2049.9080937348808220
    Two-Electron Energy =                 725.6170921237676339
    Total Energy =                       -953.5067536861690769

Computation Completed

Properties will be evaluated at   0.000000,   0.000000,   0.000000 [a0]

Properties computed using the SCF density matrix

  Nuclear Dipole Moment: [e a0]
     X:    -6.0247      Y:     5.6950      Z:     0.1656

  Electronic Dipole Moment: [e a0]
     X:     5.6196      Y:    -5.1846      Z:     0.2148

  Dipole Moment: [e a0]
     X:    -0.4051      Y:     0.5104      Z:     0.3803     Total:     0.7545

  Dipole Moment: [D]
     X:    -1.0296      Y:     1.2974      Z:     0.9667     Total:     1.9178

*** tstop() called on ds3 at Sun Apr 26 18:09:44 2020
Module time:
	user time   =      42.44 seconds =       0.71 minutes
	system time =      10.05 seconds =       0.17 minutes
	total time  =         52 seconds =       0.87 minutes
Total time:
	user time   =      42.44 seconds =       0.71 minutes
	system time =      10.05 seconds =       0.17 minutes
	total time  =         52 seconds =       0.87 minutes
                                     G D M A

                                 by Anthony Stone

                           version 2.2.06, 22 June 2011

               Distributed Multipoles from Gaussian wavefunctions

Starting at 18:9:44 on 26 Apr 2020

Using SCF density matrix from file ./SSI/SSI-035CYS-038CYS-1-dimer.test.1997.fchk

                         Distributed Multipole Analysis

Standard DMA

Positions and radii in angstrom
Multipole moments in atomic units, ea_0^k for rank k

C          x =  0.164816  y =  0.902547  z =  1.654311 angstrom
           Maximum rank =  0   Radius =  0.650 angstrom
                   Q00  =  -0.181881

C          x = -0.293184  y =  2.341547  z =  1.929311 angstrom
           Maximum rank =  0   Radius =  0.650 angstrom
                   Q00  =  -0.217773

S          x =  1.584816  y =  0.730547  z =  0.536311 angstrom
           Maximum rank =  0   Radius =  0.650 angstrom
                   Q00  =  -0.139980

H          x =  0.439816  y =  0.448547  z =  2.610311 angstrom
           Maximum rank =  0   Radius =  0.325 angstrom
                   Q00  =   0.082877

H          x = -0.673184  y =  0.328547  z =  1.267311 angstrom
           Maximum rank =  0   Radius =  0.325 angstrom
                   Q00  =   0.066391

H          x =  0.530816  y =  2.838547  z =  2.442311 angstrom
           Maximum rank =  0   Radius =  0.325 angstrom
                   Q00  =   0.091571

H          x =  2.087816  y = -0.397453  z =  1.078311 angstrom
           Maximum rank =  0   Radius =  0.325 angstrom
                   Q00  =   0.114535

H          x = -1.168344  y =  2.304707  z =  2.594701 angstrom
           Maximum rank =  0   Radius =  0.325 angstrom
                   Q00  =   0.097393

H          x = -0.528794  y =  2.871837  z =  0.994811 angstrom
           Maximum rank =  0   Radius =  0.325 angstrom
                   Q00  =   0.087348

C          x = -1.597184  y = -0.751453  z = -1.138689 angstrom
           Maximum rank =  0   Radius =  0.650 angstrom
                   Q00  =  -0.160807

C          x = -1.258184  y = -0.149453  z = -2.498689 angstrom
           Maximum rank =  0   Radius =  0.650 angstrom
                   Q00  =  -0.226295

S          x = -0.261184  y = -1.802453  z = -0.521689 angstrom
           Maximum rank =  0   Radius =  0.650 angstrom
                   Q00  =  -0.218766

H          x = -1.830184  y =  0.043547  z = -0.430689 angstrom
           Maximum rank =  0   Radius =  0.325 angstrom
                   Q00  =   0.048987

H          x = -2.492184  y = -1.368453  z = -1.248689 angstrom
           Maximum rank =  0   Radius =  0.325 angstrom
                   Q00  =   0.086217

H          x = -0.985184  y = -0.958453  z = -3.180689 angstrom
           Maximum rank =  0   Radius =  0.325 angstrom
                   Q00  =   0.089615

H          x =  0.729816  y = -0.909453  z = -0.624689 angstrom
           Maximum rank =  0   Radius =  0.325 angstrom
                   Q00  =   0.210185

H          x = -0.422394  y =  0.560927  z = -2.416089 angstrom
           Maximum rank =  0   Radius =  0.325 angstrom
                   Q00  =   0.087995

H          x = -2.151794  y =  0.342207  z = -2.910679 angstrom
           Maximum rank =  0   Radius =  0.325 angstrom
                   Q00  =   0.082389

Total multipoles referred to origin at
           x =   0.000000,  y =    0.000000,  z =    0.000000 angstrom
                   Q00  =   0.000000

Finished at 18:9:44 on 26 Apr 2020

  DMA results are available in the Python driver through the
	  variable('DMA DISTRIBUTED MULTIPOLES')
  and
	  variable('DMA TOTAL MULTIPOLES')
  commands.

    Psi4 stopped on: Sunday, 26 April 2020 06:09PM
    Psi4 wall time for execution: 0:00:52.29

*** Psi4 exiting successfully. Buy a developer a beer!
