                               Psi4 1.3.2 release

  ==> Input File <==

--------------------------------------------------------------------------
import numpy as np
set {scf_type pk
basis cc-pvdz
d_convergence 10
gdma_switch   0
gdma_limit    0
gdma_origin   [ 0.0,  0.0,  0.0 ]
}
molecule test {
    units Angstrom
    0 1
    --
    0 1
    C                2.486711096661549    -0.441594776615999    -0.752939436927759
    C                0.915711096661549    -1.719594776615999     0.717060563072240
    N               -0.241288903338451    -1.670594776615999     1.335060563072241
    N                1.187711096661549    -0.732594776615999    -0.119939436927760
    N                1.716711096661549    -2.755594776615999     0.944060563072240
    H               -0.797288903338451    -0.826594776615999     1.239060563072241
    H               -0.501288903338451    -2.370594776615999     2.018060563072241
    H                0.473711096661549    -0.000594776615999    -0.148939436927759
    H                2.568711096661549    -2.872594776615998     0.422060563072240
    H                1.393711096661549    -3.473594776615998     1.581060563072241
    H                2.323711096661549    -0.143594776615999    -1.789939436927759
    H                3.168711096661549    -1.292594776615999    -0.714939436927760
    H                2.889561096661549     0.401241223384001    -0.172129436927759
    C               -1.142288903338451     1.825405223384001    -1.908939436927759
    C               -1.522288903338451     1.873405223384001    -0.447939436927760
    O               -0.911288903338451     1.108405223384001     0.319060563072240
    O               -2.500288903338451     2.581405223384002    -0.137939436927759
    H               -1.685288903338451     1.001405223384001    -2.377939436927759
    H               -0.076288903338451     1.626405223384001    -2.014939436927759
    H               -1.401638903338451     2.760910223384001    -2.426209436927759

}
e, wfn = energy('scf', return_wfn=True)
gdma(wfn)
dmavals = variable('DMA DISTRIBUTED MULTIPOLES')
charges = np.array(dmavals)
print(charges)
np.save('SSI-007ARG-011GLU-2-dimer.npy', np.array(charges))--------------------------------------------------------------------------

*** tstart() called on ds3
*** at Tue Apr 28 09:28:26 2020

   => Loading Basis Set <=

    Name: CC-PVDZ
    Role: ORBITAL
    Keyword: BASIS
    atoms 1-2, 14-15  entry C          line   138 file /theoryfs2/ds/metcalf/miniconda2/envs/tf2gpu/share/psi4/basis/cc-pvdz.gbs
    atoms 3-5         entry N          line   168 file /theoryfs2/ds/metcalf/miniconda2/envs/tf2gpu/share/psi4/basis/cc-pvdz.gbs
    atoms 6-13, 18-20 entry H          line    22 file /theoryfs2/ds/metcalf/miniconda2/envs/tf2gpu/share/psi4/basis/cc-pvdz.gbs
    atoms 16-17       entry O          line   198 file /theoryfs2/ds/metcalf/miniconda2/envs/tf2gpu/share/psi4/basis/cc-pvdz.gbs

         ---------------------------------------------------------
                                   SCF
               by Justin Turney, Rob Parrish, Andy Simmonett
                          and Daniel G. A. Smith
                              RHF Reference
                        1 Threads,    500 MiB Core
         ---------------------------------------------------------

  ==> Geometry <==

    Molecular point group: c1
    Full point group: C1

    Geometry (in Angstrom), charge = 0, multiplicity = 1:

       Center              X                  Y                   Z               Mass
    ------------   -----------------  -----------------  -----------------  -----------------
         C            2.486711096662    -0.441594776616    -0.752939436928    12.000000000000
         C            0.915711096662    -1.719594776616     0.717060563072    12.000000000000
         N           -0.241288903338    -1.670594776616     1.335060563072    14.003074004430
         N            1.187711096662    -0.732594776616    -0.119939436928    14.003074004430
         N            1.716711096662    -2.755594776616     0.944060563072    14.003074004430
         H           -0.797288903338    -0.826594776616     1.239060563072     1.007825032230
         H           -0.501288903338    -2.370594776616     2.018060563072     1.007825032230
         H            0.473711096662    -0.000594776616    -0.148939436928     1.007825032230
         H            2.568711096662    -2.872594776616     0.422060563072     1.007825032230
         H            1.393711096662    -3.473594776616     1.581060563072     1.007825032230
         H            2.323711096662    -0.143594776616    -1.789939436928     1.007825032230
         H            3.168711096662    -1.292594776616    -0.714939436928     1.007825032230
         H            2.889561096662     0.401241223384    -0.172129436928     1.007825032230
         C           -1.142288903338     1.825405223384    -1.908939436928    12.000000000000
         C           -1.522288903338     1.873405223384    -0.447939436928    12.000000000000
         O           -0.911288903338     1.108405223384     0.319060563072    15.994914619570
         O           -2.500288903338     2.581405223384    -0.137939436928    15.994914619570
         H           -1.685288903338     1.001405223384    -2.377939436928     1.007825032230
         H           -0.076288903338     1.626405223384    -2.014939436928     1.007825032230
         H           -1.401638903338     2.760910223384    -2.426209436928     1.007825032230

  Running in c1 symmetry.

  Rotational constants: A =      0.09561  B =      0.02245  C =      0.01900 [cm^-1]
  Rotational constants: A =   2866.35668  B =    673.12880  C =    569.71318 [MHz]
  Nuclear repulsion =  458.660588306285774

  Charge       = 0
  Multiplicity = 1
  Electrons    = 72
  Nalpha       = 36
  Nbeta        = 36

  ==> Algorithm <==

  SCF Algorithm Type is PK.
  DIIS enabled.
  MOM disabled.
  Fractional occupation disabled.
  Guess Type is SAD.
  Energy threshold   = 1.00e-06
  Density threshold  = 1.00e-10
  Integral threshold = 0.00e+00

  ==> Primary Basis <==

  Basis Set: CC-PVDZ
    Blend: CC-PVDZ
    Number of shells: 87
    Number of basis function: 181
    Number of Cartesian functions: 190
    Spherical Harmonics?: true
    Max angular momentum: 2

  ==> Pre-Iterations <==

   -------------------------------------------------------
    Irrep   Nso     Nmo     Nalpha   Nbeta   Ndocc  Nsocc
   -------------------------------------------------------
     A        181     181       0       0       0       0
   -------------------------------------------------------
    Total     181     181      36      36      36       0
   -------------------------------------------------------

  ==> Integral Setup <==

  Using integral reordering PK algorithm.
  Sizing the integral batches needed.
  Building batch lookup table.
   Calculation information:
      Number of atoms:                  20
      Number of AO shells:              87
      Number of primitives:            253
      Number of atomic orbitals:       190
      Number of basis functions:       181

      Integral cutoff                 1.00e-12
      Number of threads:                 1

	Batch   1 pq = [       0,    9405] index = [             0,44231715] size =     44231715
	Batch   2 pq = [    9405,   13301] index = [      44231715,88464951] size =     44233236
	Batch   3 pq = [   13301,   16471] index = [      88464951,135655156] size =     47190205
  Task number: 13
  Buffer size: 11059200
  Buffer per thread: 2
  We computed 6289845 shell quartets total.
  Whereas there are 7328706 unique shell quartets.

  ==> DiskJK: Disk-Based J/K Matrices <==

    J tasked:                  Yes
    K tasked:                  Yes
    wK tasked:                  No
    Memory [MiB]:              375
    Schwarz Cutoff:          1E-12

    OpenMP threads:              1

  Minimum eigenvalue in the overlap matrix is 3.7254234654E-03.
  Using Symmetric Orthogonalization.

  SCF Guess: Superposition of Atomic Densities via on-the-fly atomic UHF.

  ==> Iterations <==

                        Total Energy        Delta E     RMS |[F,P]|

   @RHF iter SAD:  -469.73952504292595   -4.69740e+02   0.00000e+00
   @RHF iter   1:  -470.69378253338579   -9.54257e-01   4.21645e-03 DIIS
   @RHF iter   2:  -470.92014802799150   -2.26365e-01   2.20954e-03 DIIS
   @RHF iter   3:  -470.97798919420484   -5.78412e-02   4.04243e-04 DIIS
   @RHF iter   4:  -470.98131935285761   -3.33016e-03   1.54167e-04 DIIS
   @RHF iter   5:  -470.98177024685265   -4.50894e-04   3.15401e-05 DIIS
   @RHF iter   6:  -470.98179683605412   -2.65892e-05   1.63111e-05 DIIS
   @RHF iter   7:  -470.98180251383377   -5.67778e-06   4.22112e-06 DIIS
   @RHF iter   8:  -470.98180336511871   -8.51285e-07   1.90368e-06 DIIS
   @RHF iter   9:  -470.98180350607896   -1.40960e-07   6.84597e-07 DIIS
   @RHF iter  10:  -470.98180353017312   -2.40942e-08   2.19016e-07 DIIS
   @RHF iter  11:  -470.98180353226485   -2.09172e-09   5.88517e-08 DIIS
   @RHF iter  12:  -470.98180353236836   -1.03512e-10   2.08341e-08 DIIS
   @RHF iter  13:  -470.98180353238388   -1.55183e-11   5.29397e-09 DIIS
   @RHF iter  14:  -470.98180353238570   -1.81899e-12   1.46173e-09 DIIS
   @RHF iter  15:  -470.98180353238496    7.38964e-13   6.10939e-10 DIIS
   @RHF iter  16:  -470.98180353238217    2.78533e-12   2.41718e-10 DIIS
   @RHF iter  17:  -470.98180353238467   -2.50111e-12   1.11833e-10 DIIS
   @RHF iter  18:  -470.98180353238291    1.76215e-12   4.17049e-11 DIIS
  Energy and wave function converged.

  ==> Post-Iterations <==

    Orbital Energies [Eh]
    ---------------------

    Doubly Occupied:

       1A    -20.428699     2A    -20.395564     3A    -15.665478
       4A    -15.634738     5A    -15.625708     6A    -11.445995
       7A    -11.319115     8A    -11.258039     9A    -11.170809
      10A     -1.403726    11A     -1.305246    12A     -1.263367
      13A     -1.244872    14A     -1.190633    15A     -1.008254
      16A     -0.923067    17A     -0.898320    18A     -0.834721
      19A     -0.799025    20A     -0.725697    21A     -0.714928
      22A     -0.684735    23A     -0.653199    24A     -0.636653
      25A     -0.618466    26A     -0.604627    27A     -0.551074
      28A     -0.542627    29A     -0.538584    30A     -0.486822
      31A     -0.480451    32A     -0.447683    33A     -0.433773
      34A     -0.340224    35A     -0.313623    36A     -0.311118

    Virtual:

      37A      0.106841    38A      0.139131    39A      0.165647
      40A      0.182769    41A      0.194334    42A      0.226147
      43A      0.242555    44A      0.258463    45A      0.266400
      46A      0.295395    47A      0.308563    48A      0.329168
      49A      0.358155    50A      0.373756    51A      0.409352
      52A      0.459058    53A      0.475392    54A      0.493734
      55A      0.546145    56A      0.564305    57A      0.583669
      58A      0.633503    59A      0.644313    60A      0.652624
      61A      0.672753    62A      0.682097    63A      0.689421
      64A      0.694768    65A      0.709687    66A      0.747454
      67A      0.798338    68A      0.805084    69A      0.813405
      70A      0.823111    71A      0.838637    72A      0.862926
      73A      0.869507    74A      0.885939    75A      0.898876
      76A      0.919332    77A      0.925714    78A      0.932990
      79A      0.953536    80A      0.965037    81A      0.988861
      82A      1.013115    83A      1.034708    84A      1.043899
      85A      1.056516    86A      1.096400    87A      1.119210
      88A      1.148638    89A      1.185451    90A      1.218832
      91A      1.230833    92A      1.253061    93A      1.275990
      94A      1.285739    95A      1.305757    96A      1.328793
      97A      1.350141    98A      1.389583    99A      1.415105
     100A      1.443583   101A      1.449569   102A      1.471284
     103A      1.522457   104A      1.546175   105A      1.573930
     106A      1.587018   107A      1.591336   108A      1.607465
     109A      1.616560   110A      1.651302   111A      1.686373
     112A      1.714469   113A      1.719741   114A      1.740206
     115A      1.775805   116A      1.796307   117A      1.827302
     118A      1.848424   119A      1.873499   120A      1.883490
     121A      1.892970   122A      1.918006   123A      1.926056
     124A      1.941749   125A      1.948233   126A      1.983008
     127A      1.986900   128A      2.011086   129A      2.037890
     130A      2.053475   131A      2.078415   132A      2.116799
     133A      2.126738   134A      2.169252   135A      2.185390
     136A      2.222343   137A      2.256261   138A      2.285863
     139A      2.304907   140A      2.306618   141A      2.335712
     142A      2.384414   143A      2.398173   144A      2.428789
     145A      2.438069   146A      2.450570   147A      2.486828
     148A      2.543893   149A      2.556052   150A      2.562446
     151A      2.575246   152A      2.606984   153A      2.672179
     154A      2.706159   155A      2.711938   156A      2.737990
     157A      2.761526   158A      2.803518   159A      2.851421
     160A      2.867308   161A      2.876840   162A      2.881407
     163A      2.914792   164A      2.970053   165A      2.982913
     166A      3.042446   167A      3.085140   168A      3.128433
     169A      3.153043   170A      3.198307   171A      3.228621
     172A      3.259336   173A      3.325809   174A      3.472177
     175A      3.648033   176A      3.722733   177A      3.734383
     178A      3.777794   179A      3.930256   180A      3.999371
     181A      4.056183

    Final Occupation by Irrep:
              A
    DOCC [    36 ]

  @RHF Final Energy:  -470.98180353238291

   => Energetics <=

    Nuclear Repulsion Energy =            458.6605883062857743
    One-Electron Energy =               -1553.4854533877955873
    Two-Electron Energy =                 623.8430615491269009
    Total Energy =                       -470.9818035323829690

Computation Completed

Properties will be evaluated at   0.000000,   0.000000,   0.000000 [a0]

Properties computed using the SCF density matrix

  Nuclear Dipole Moment: [e a0]
     X:     7.8097      Y:    -4.8329      Z:    -4.1160

  Electronic Dipole Moment: [e a0]
     X:    -3.6153      Y:    -0.3937      Z:     4.6995

  Dipole Moment: [e a0]
     X:     4.1943      Y:    -5.2267      Z:     0.5834     Total:     6.7269

  Dipole Moment: [D]
     X:    10.6609      Y:   -13.2848      Z:     1.4830     Total:    17.0980

*** tstop() called on ds3 at Tue Apr 28 09:29:51 2020
Module time:
	user time   =      49.89 seconds =       0.83 minutes
	system time =      21.82 seconds =       0.36 minutes
	total time  =         85 seconds =       1.42 minutes
Total time:
	user time   =      49.89 seconds =       0.83 minutes
	system time =      21.82 seconds =       0.36 minutes
	total time  =         85 seconds =       1.42 minutes
                                     G D M A

                                 by Anthony Stone

                           version 2.2.06, 22 June 2011

               Distributed Multipoles from Gaussian wavefunctions

Starting at 9:29:51 on 28 Apr 2020

Using SCF density matrix from file ./SSI/SSI-007ARG-011GLU-2-dimer.test.10551.fchk

                         Distributed Multipole Analysis

Standard DMA

Positions and radii in angstrom
Multipole moments in atomic units, ea_0^k for rank k

C          x =  2.486711  y = -0.441595  z = -0.752939 angstrom
           Maximum rank =  0   Radius =  0.650 angstrom
                   Q00  =  -0.100138

C          x =  0.915711  y = -1.719595  z =  0.717061 angstrom
           Maximum rank =  0   Radius =  0.650 angstrom
                   Q00  =   1.070916

N          x = -0.241289  y = -1.670595  z =  1.335061 angstrom
           Maximum rank =  0   Radius =  0.650 angstrom
                   Q00  =  -0.569416

N          x =  1.187711  y = -0.732595  z = -0.119939 angstrom
           Maximum rank =  0   Radius =  0.650 angstrom
                   Q00  =  -0.515790

N          x =  1.716711  y = -2.755595  z =  0.944061 angstrom
           Maximum rank =  0   Radius =  0.650 angstrom
                   Q00  =  -0.594659

H          x = -0.797289  y = -0.826595  z =  1.239061 angstrom
           Maximum rank =  0   Radius =  0.325 angstrom
                   Q00  =   0.293439

H          x = -0.501289  y = -2.370595  z =  2.018061 angstrom
           Maximum rank =  0   Radius =  0.325 angstrom
                   Q00  =   0.230501

H          x =  0.473711  y = -0.000595  z = -0.148939 angstrom
           Maximum rank =  0   Radius =  0.325 angstrom
                   Q00  =   0.309639

H          x =  2.568711  y = -2.872595  z =  0.422061 angstrom
           Maximum rank =  0   Radius =  0.325 angstrom
                   Q00  =   0.249477

H          x =  1.393711  y = -3.473595  z =  1.581061 angstrom
           Maximum rank =  0   Radius =  0.325 angstrom
                   Q00  =   0.243381

H          x =  2.323711  y = -0.143595  z = -1.789939 angstrom
           Maximum rank =  0   Radius =  0.325 angstrom
                   Q00  =   0.139767

H          x =  3.168711  y = -1.292595  z = -0.714939 angstrom
           Maximum rank =  0   Radius =  0.325 angstrom
                   Q00  =   0.086820

H          x =  2.889561  y =  0.401241  z = -0.172129 angstrom
           Maximum rank =  0   Radius =  0.325 angstrom
                   Q00  =   0.120071

C          x = -1.142289  y =  1.825405  z = -1.908939 angstrom
           Maximum rank =  0   Radius =  0.650 angstrom
                   Q00  =  -0.280097

C          x = -1.522289  y =  1.873405  z = -0.447939 angstrom
           Maximum rank =  0   Radius =  0.650 angstrom
                   Q00  =   0.933411

O          x = -0.911289  y =  1.108405  z =  0.319061 angstrom
           Maximum rank =  0   Radius =  0.650 angstrom
                   Q00  =  -0.979666

O          x = -2.500289  y =  2.581405  z = -0.137939 angstrom
           Maximum rank =  0   Radius =  0.650 angstrom
                   Q00  =  -0.865364

H          x = -1.685289  y =  1.001405  z = -2.377939 angstrom
           Maximum rank =  0   Radius =  0.325 angstrom
                   Q00  =   0.096903

H          x = -0.076289  y =  1.626405  z = -2.014939 angstrom
           Maximum rank =  0   Radius =  0.325 angstrom
                   Q00  =   0.033201

H          x = -1.401639  y =  2.760910  z = -2.426209 angstrom
           Maximum rank =  0   Radius =  0.325 angstrom
                   Q00  =   0.097603

Total multipoles referred to origin at
           x =   0.000000,  y =    0.000000,  z =    0.000000 angstrom
                   Q00  =  -0.000000

Finished at 9:29:51 on 28 Apr 2020

  DMA results are available in the Python driver through the
	  variable('DMA DISTRIBUTED MULTIPOLES')
  and
	  variable('DMA TOTAL MULTIPOLES')
  commands.

    Psi4 stopped on: Tuesday, 28 April 2020 09:29AM
    Psi4 wall time for execution: 0:01:25.02

*** Psi4 exiting successfully. Buy a developer a beer!
