                               Psi4 1.3.2 release

  ==> Input File <==

--------------------------------------------------------------------------
import numpy as np
set {scf_type pk
basis cc-pvdz
d_convergence 10
gdma_switch   0
gdma_limit    0
gdma_origin   [ 0.0,  0.0,  0.0 ]
}
molecule test {
    units Angstrom
    0 1
    --
    0 1
    C                0.481339643776508     1.187248176734212     1.193938939148029
    C                1.360339643776508     0.000248176734212     0.852938939148029
    O                2.468339643776508    -0.130751823265788     1.364938939148029
    N                0.864339643776508    -0.876751823265788    -0.000061060851971
    H                1.377339643776508    -1.723751823265788    -0.220061060851971
    H               -0.036660356223492    -0.713751823265788    -0.438061060851971
    H                0.029339643776508     1.577248176734212     0.280938939148029
    H                1.126339643776509     1.957248176734212     1.612938939148029
    H               -0.305660356223492     0.924438176734212     1.916128939148029
    C               -3.077660356223491     0.080248176734212    -1.422061060851971
    O               -1.696660356223491    -0.214751823265788    -1.614061060851971
    H               -1.456660356223492     0.085248176734212    -2.503061060851971
    H               -3.638660356223492    -0.275751823265788    -2.287061060851971
    H               -3.437070356223491    -0.430221823265788    -0.516391060851971
    H               -3.198240356223492     1.169768176734212    -1.330361060851971

}
e, wfn = energy('scf', return_wfn=True)
gdma(wfn)
dmavals = variable('DMA DISTRIBUTED MULTIPOLES')
charges = np.array(dmavals)
print(charges)
np.save('SSI-025ASN-183THR-1-dimer.npy', np.array(charges))--------------------------------------------------------------------------

*** tstart() called on ds3
*** at Mon Apr 27 22:00:23 2020

   => Loading Basis Set <=

    Name: CC-PVDZ
    Role: ORBITAL
    Keyword: BASIS
    atoms 1-2, 10    entry C          line   138 file /theoryfs2/ds/metcalf/miniconda2/envs/tf2gpu/share/psi4/basis/cc-pvdz.gbs
    atoms 3, 11      entry O          line   198 file /theoryfs2/ds/metcalf/miniconda2/envs/tf2gpu/share/psi4/basis/cc-pvdz.gbs
    atoms 4          entry N          line   168 file /theoryfs2/ds/metcalf/miniconda2/envs/tf2gpu/share/psi4/basis/cc-pvdz.gbs
    atoms 5-9, 12-15 entry H          line    22 file /theoryfs2/ds/metcalf/miniconda2/envs/tf2gpu/share/psi4/basis/cc-pvdz.gbs

         ---------------------------------------------------------
                                   SCF
               by Justin Turney, Rob Parrish, Andy Simmonett
                          and Daniel G. A. Smith
                              RHF Reference
                        1 Threads,    500 MiB Core
         ---------------------------------------------------------

  ==> Geometry <==

    Molecular point group: c1
    Full point group: C1

    Geometry (in Angstrom), charge = 0, multiplicity = 1:

       Center              X                  Y                   Z               Mass
    ------------   -----------------  -----------------  -----------------  -----------------
         C            0.481339643777     1.187248176734     1.193938939148    12.000000000000
         C            1.360339643777     0.000248176734     0.852938939148    12.000000000000
         O            2.468339643777    -0.130751823266     1.364938939148    15.994914619570
         N            0.864339643777    -0.876751823266    -0.000061060852    14.003074004430
         H            1.377339643777    -1.723751823266    -0.220061060852     1.007825032230
         H           -0.036660356223    -0.713751823266    -0.438061060852     1.007825032230
         H            0.029339643777     1.577248176734     0.280938939148     1.007825032230
         H            1.126339643777     1.957248176734     1.612938939148     1.007825032230
         H           -0.305660356223     0.924438176734     1.916128939148     1.007825032230
         C           -3.077660356223     0.080248176734    -1.422061060852    12.000000000000
         O           -1.696660356223    -0.214751823266    -1.614061060852    15.994914619570
         H           -1.456660356223     0.085248176734    -2.503061060852     1.007825032230
         H           -3.638660356223    -0.275751823266    -2.287061060852     1.007825032230
         H           -3.437070356223    -0.430221823266    -0.516391060852     1.007825032230
         H           -3.198240356223     1.169768176734    -1.330361060852     1.007825032230

  Running in c1 symmetry.

  Rotational constants: A =      0.25593  B =      0.03679  C =      0.03311 [cm^-1]
  Rotational constants: A =   7672.61228  B =   1102.96389  C =    992.62981 [MHz]
  Nuclear repulsion =  233.119684000336832

  Charge       = 0
  Multiplicity = 1
  Electrons    = 50
  Nalpha       = 25
  Nbeta        = 25

  ==> Algorithm <==

  SCF Algorithm Type is PK.
  DIIS enabled.
  MOM disabled.
  Fractional occupation disabled.
  Guess Type is SAD.
  Energy threshold   = 1.00e-06
  Density threshold  = 1.00e-10
  Integral threshold = 0.00e+00

  ==> Primary Basis <==

  Basis Set: CC-PVDZ
    Blend: CC-PVDZ
    Number of shells: 63
    Number of basis function: 129
    Number of Cartesian functions: 135
    Spherical Harmonics?: true
    Max angular momentum: 2

  ==> Pre-Iterations <==

   -------------------------------------------------------
    Irrep   Nso     Nmo     Nalpha   Nbeta   Ndocc  Nsocc
   -------------------------------------------------------
     A        129     129       0       0       0       0
   -------------------------------------------------------
    Total     129     129      25      25      25       0
   -------------------------------------------------------

  ==> Integral Setup <==

  Using integral reordering PK algorithm.
  Sizing the integral batches needed.
  Building batch lookup table.
   Calculation information:
      Number of atoms:                  15
      Number of AO shells:              63
      Number of primitives:            177
      Number of atomic orbitals:       135
      Number of basis functions:       129

      Integral cutoff                 1.00e-12
      Number of threads:                 1

	Batch   1 pq = [       0,    8385] index = [             0,35158305] size =     35158305
  Task number: 4
  Buffer size: 11059200
  Buffer per thread: 2
  We computed 1712695 shell quartets total.
  Whereas there are 2033136 unique shell quartets.

  ==> DiskJK: Disk-Based J/K Matrices <==

    J tasked:                  Yes
    K tasked:                  Yes
    wK tasked:                  No
    Memory [MiB]:              375
    Schwarz Cutoff:          1E-12

    OpenMP threads:              1

  Minimum eigenvalue in the overlap matrix is 4.6250276257E-03.
  Using Symmetric Orthogonalization.

  SCF Guess: Superposition of Atomic Densities via on-the-fly atomic UHF.

  ==> Iterations <==

                        Total Energy        Delta E     RMS |[F,P]|

   @RHF iter SAD:  -321.67864107007932   -3.21679e+02   0.00000e+00
   @RHF iter   1:  -322.84514176058161   -1.16650e+00   4.92812e-03 DIIS
   @RHF iter   2:  -323.00038389784550   -1.55242e-01   2.80552e-03 DIIS
   @RHF iter   3:  -323.04703380023244   -4.66499e-02   5.34745e-04 DIIS
   @RHF iter   4:  -323.04988833293072   -2.85453e-03   2.14627e-04 DIIS
   @RHF iter   5:  -323.05036218571507   -4.73853e-04   4.38950e-05 DIIS
   @RHF iter   6:  -323.05039390522694   -3.17195e-05   2.04404e-05 DIIS
   @RHF iter   7:  -323.05040070528071   -6.80005e-06   7.36191e-06 DIIS
   @RHF iter   8:  -323.05040201748221   -1.31220e-06   2.53738e-06 DIIS
   @RHF iter   9:  -323.05040216595950   -1.48477e-07   8.17829e-07 DIIS
   @RHF iter  10:  -323.05040217849353   -1.25340e-08   2.54078e-07 DIIS
   @RHF iter  11:  -323.05040217968013   -1.18661e-09   4.51230e-08 DIIS
   @RHF iter  12:  -323.05040217972413   -4.39968e-11   1.17095e-08 DIIS
   @RHF iter  13:  -323.05040217972646   -2.33058e-12   3.40317e-09 DIIS
   @RHF iter  14:  -323.05040217972851   -2.04636e-12   1.25759e-09 DIIS
   @RHF iter  15:  -323.05040217972788    6.25278e-13   3.96643e-10 DIIS
   @RHF iter  16:  -323.05040217972692    9.66338e-13   1.45279e-10 DIIS
   @RHF iter  17:  -323.05040217972680    1.13687e-13   5.37051e-11 DIIS
  Energy and wave function converged.

  ==> Post-Iterations <==

    Orbital Energies [Eh]
    ---------------------

    Doubly Occupied:

       1A    -20.584557     2A    -20.484603     3A    -15.562721
       4A    -11.327925     5A    -11.301210     6A    -11.226327
       7A     -1.380633     8A     -1.349554     9A     -1.194363
      10A     -0.983016    11A     -0.944219    12A     -0.779995
      13A     -0.713568    14A     -0.698814    15A     -0.643071
      16A     -0.637351    17A     -0.615791    18A     -0.596856
      19A     -0.551664    20A     -0.540157    21A     -0.522984
      22A     -0.505477    23A     -0.472423    24A     -0.392152
      25A     -0.382866

    Virtual:

      26A      0.151523    27A      0.197501    28A      0.204995
      29A      0.219683    30A      0.227811    31A      0.244522
      32A      0.247606    33A      0.280264    34A      0.300299
      35A      0.319492    36A      0.358042    37A      0.408288
      38A      0.476633    39A      0.569135    40A      0.609393
      41A      0.615039    42A      0.651988    43A      0.661093
      44A      0.704293    45A      0.715757    46A      0.739246
      47A      0.754004    48A      0.769345    49A      0.785192
      50A      0.838983    51A      0.864961    52A      0.873633
      53A      0.877332    54A      0.889138    55A      0.910624
      56A      0.925625    57A      0.957693    58A      1.032375
      59A      1.037939    60A      1.090626    61A      1.116987
      62A      1.130654    63A      1.141648    64A      1.149738
      65A      1.184088    66A      1.286105    67A      1.313769
      68A      1.354135    69A      1.374888    70A      1.388554
      71A      1.428557    72A      1.439063    73A      1.464871
      74A      1.515678    75A      1.583126    76A      1.585183
      77A      1.635258    78A      1.644754    79A      1.660726
      80A      1.674793    81A      1.734217    82A      1.824483
      83A      1.841090    84A      1.867204    85A      1.878938
      86A      1.889090    87A      1.911858    88A      1.922546
      89A      1.938620    90A      1.947954    91A      1.986809
      92A      2.005746    93A      2.034735    94A      2.083823
      95A      2.127512    96A      2.145937    97A      2.187451
      98A      2.256220    99A      2.262266   100A      2.275071
     101A      2.341965   102A      2.350407   103A      2.417691
     104A      2.468249   105A      2.479232   106A      2.527361
     107A      2.591943   108A      2.612352   109A      2.644061
     110A      2.723709   111A      2.732577   112A      2.737399
     113A      2.746338   114A      2.763859   115A      2.810749
     116A      2.877542   117A      3.022776   118A      3.113710
     119A      3.160416   120A      3.267485   121A      3.301768
     122A      3.342129   123A      3.428272   124A      3.531280
     125A      3.544610   126A      3.553226   127A      3.880846
     128A      3.925875   129A      4.053668

    Final Occupation by Irrep:
              A
    DOCC [    25 ]

  @RHF Final Energy:  -323.05040217972680

   => Energetics <=

    Nuclear Repulsion Energy =            233.1196840003368322
    One-Electron Energy =                -903.5555781890404887
    Two-Electron Energy =                 347.3854920089768257
    Total Energy =                       -323.0504021797268024

Computation Completed

Properties will be evaluated at   0.000000,   0.000000,   0.000000 [a0]

Properties computed using the SCF density matrix

  Nuclear Dipole Moment: [e a0]
     X:    -8.9422      Y:     2.4106      Z:    -3.2683

  Electronic Dipole Moment: [e a0]
     X:     6.7220      Y:    -2.2226      Z:     1.7502

  Dipole Moment: [e a0]
     X:    -2.2202      Y:     0.1880      Z:    -1.5181     Total:     2.6961

  Dipole Moment: [D]
     X:    -5.6431      Y:     0.4779      Z:    -3.8585     Total:     6.8528

*** tstop() called on ds3 at Mon Apr 27 22:00:41 2020
Module time:
	user time   =      12.74 seconds =       0.21 minutes
	system time =       5.35 seconds =       0.09 minutes
	total time  =         18 seconds =       0.30 minutes
Total time:
	user time   =      12.74 seconds =       0.21 minutes
	system time =       5.35 seconds =       0.09 minutes
	total time  =         18 seconds =       0.30 minutes
                                     G D M A

                                 by Anthony Stone

                           version 2.2.06, 22 June 2011

               Distributed Multipoles from Gaussian wavefunctions

Starting at 22:0:41 on 27 Apr 2020

Using SCF density matrix from file ./SSI/SSI-025ASN-183THR-1-dimer.test.30301.fchk

                         Distributed Multipole Analysis

Standard DMA

Positions and radii in angstrom
Multipole moments in atomic units, ea_0^k for rank k

C          x =  0.481340  y =  1.187248  z =  1.193939 angstrom
           Maximum rank =  0   Radius =  0.650 angstrom
                   Q00  =  -0.264879

C          x =  1.360340  y =  0.000248  z =  0.852939 angstrom
           Maximum rank =  0   Radius =  0.650 angstrom
                   Q00  =   0.836421

O          x =  2.468340  y = -0.130752  z =  1.364939 angstrom
           Maximum rank =  0   Radius =  0.650 angstrom
                   Q00  =  -0.815163

N          x =  0.864340  y = -0.876752  z = -0.000061 angstrom
           Maximum rank =  0   Radius =  0.650 angstrom
                   Q00  =  -0.543783

H          x =  1.377340  y = -1.723752  z = -0.220061 angstrom
           Maximum rank =  0   Radius =  0.325 angstrom
                   Q00  =   0.210626

H          x = -0.036660  y = -0.713752  z = -0.438061 angstrom
           Maximum rank =  0   Radius =  0.325 angstrom
                   Q00  =   0.229084

H          x =  0.029340  y =  1.577248  z =  0.280939 angstrom
           Maximum rank =  0   Radius =  0.325 angstrom
                   Q00  =   0.089805

H          x =  1.126340  y =  1.957248  z =  1.612939 angstrom
           Maximum rank =  0   Radius =  0.325 angstrom
                   Q00  =   0.118916

H          x = -0.305660  y =  0.924438  z =  1.916129 angstrom
           Maximum rank =  0   Radius =  0.325 angstrom
                   Q00  =   0.120056

C          x = -3.077660  y =  0.080248  z = -1.422061 angstrom
           Maximum rank =  0   Radius =  0.650 angstrom
                   Q00  =  -0.055267

O          x = -1.696660  y = -0.214752  z = -1.614061 angstrom
           Maximum rank =  0   Radius =  0.650 angstrom
                   Q00  =  -0.606118

H          x = -1.456660  y =  0.085248  z = -2.503061 angstrom
           Maximum rank =  0   Radius =  0.325 angstrom
                   Q00  =   0.393106

H          x = -3.638660  y = -0.275752  z = -2.287061 angstrom
           Maximum rank =  0   Radius =  0.325 angstrom
                   Q00  =   0.084452

H          x = -3.437070  y = -0.430222  z = -0.516391 angstrom
           Maximum rank =  0   Radius =  0.325 angstrom
                   Q00  =   0.122433

H          x = -3.198240  y =  1.169768  z = -1.330361 angstrom
           Maximum rank =  0   Radius =  0.325 angstrom
                   Q00  =   0.080311

Total multipoles referred to origin at
           x =   0.000000,  y =    0.000000,  z =    0.000000 angstrom
                   Q00  =  -0.000000

Finished at 22:0:41 on 27 Apr 2020

  DMA results are available in the Python driver through the
	  variable('DMA DISTRIBUTED MULTIPOLES')
  and
	  variable('DMA TOTAL MULTIPOLES')
  commands.

    Psi4 stopped on: Monday, 27 April 2020 10:00PM
    Psi4 wall time for execution: 0:00:18.13

*** Psi4 exiting successfully. Buy a developer a beer!
