                               Psi4 1.3.2 release

  ==> Input File <==

--------------------------------------------------------------------------
import numpy as np
set {scf_type pk
basis cc-pvdz
d_convergence 10
gdma_switch   0
gdma_limit    0
gdma_origin   [ 0.0,  0.0,  0.0 ]
}
molecule test {
    units Angstrom
    1 1
    --
    1 1
    C                4.550911007955782    -0.714412359254804     1.805868437968204
    C                1.113911007955782    -0.730412359254804     0.142868437968204
    C                1.930911007955783    -0.535412359254804     1.293868437968204
    C                3.300911007955782    -0.801412359254804     0.917868437968204
    C                3.259911007955782    -1.146412359254804    -0.401131562031796
    C               -0.271088992044218    -0.551412359254804     0.161868437968204
    C               -0.871088992044218    -0.174412359254804     1.364868437968204
    C               -0.096088992044218     0.021587640745196     2.514868437968204
    C                1.301911007955783    -0.146412359254804     2.490868437968204
    N                1.957911007955782    -1.110412359254804    -0.871131562031796
    H               -0.832088992044218    -0.712412359254804    -0.748131562031796
    H               -1.940088992044217    -0.032412359254804     1.414868437968204
    H                1.662911007955782    -1.338412359254804    -1.815131562031796
    H               -0.573088992044218     0.307587640745196     3.441868437968204
    H                4.181911007955782    -1.396412359254804    -0.913131562031796
    H                1.867911007955782     0.029587640745196     3.400868437968204
    H                5.245911007955782    -1.486412359254804     1.466868437968204
    H                4.243911007955782    -0.950412359254804     2.829868437968204
    H                5.041891007955782     0.269687640745196     1.783878437968204
    C               -3.292088992044218     2.702587640745196    -0.591131562031796
    C               -2.840088992044218     0.643587640745196    -1.905131562031796
    N               -3.456088992044218     1.282587640745196    -0.926131562031796
    N               -1.971088992044218     1.281587640745196    -2.662131562031796
    N               -3.125088992044218    -0.621412359254804    -2.123131562031796
    H               -4.083088992044217     0.752587640745196    -0.332131562031796
    H               -1.784088992044218     2.259587640745195    -2.498131562031796
    H               -1.498088992044218     0.793587640745196    -3.408131562031796
    H               -3.824088992044218    -1.094412359254804    -1.562131562031796
    H               -2.659088992044218    -1.126412359254804    -2.875131562031796
    H               -3.685088992044218     3.304587640745196    -1.412131562031796
    H               -2.232088992044218     2.912587640745196    -0.466131562031796
    H               -3.811945992044218     2.999487640745196     0.331708437968204

}
e, wfn = energy('scf', return_wfn=True)
gdma(wfn)
dmavals = variable('DMA DISTRIBUTED MULTIPOLES')
charges = np.array(dmavals)
print(charges)
np.save('SSI-112TRP-119ARG-2-dimer.npy', np.array(charges))--------------------------------------------------------------------------

*** tstart() called on ds3
*** at Mon Apr 27 23:51:13 2020

   => Loading Basis Set <=

    Name: CC-PVDZ
    Role: ORBITAL
    Keyword: BASIS
    atoms 1-9, 20-21   entry C          line   138 file /theoryfs2/ds/metcalf/miniconda2/envs/tf2gpu/share/psi4/basis/cc-pvdz.gbs
    atoms 10, 22-24    entry N          line   168 file /theoryfs2/ds/metcalf/miniconda2/envs/tf2gpu/share/psi4/basis/cc-pvdz.gbs
    atoms 11-19, 25-32 entry H          line    22 file /theoryfs2/ds/metcalf/miniconda2/envs/tf2gpu/share/psi4/basis/cc-pvdz.gbs

         ---------------------------------------------------------
                                   SCF
               by Justin Turney, Rob Parrish, Andy Simmonett
                          and Daniel G. A. Smith
                              RHF Reference
                        1 Threads,    500 MiB Core
         ---------------------------------------------------------

  ==> Geometry <==

    Molecular point group: c1
    Full point group: C1

    Geometry (in Angstrom), charge = 1, multiplicity = 1:

       Center              X                  Y                   Z               Mass
    ------------   -----------------  -----------------  -----------------  -----------------
         C            4.550911007956    -0.714412359255     1.805868437968    12.000000000000
         C            1.113911007956    -0.730412359255     0.142868437968    12.000000000000
         C            1.930911007956    -0.535412359255     1.293868437968    12.000000000000
         C            3.300911007956    -0.801412359255     0.917868437968    12.000000000000
         C            3.259911007956    -1.146412359255    -0.401131562032    12.000000000000
         C           -0.271088992044    -0.551412359255     0.161868437968    12.000000000000
         C           -0.871088992044    -0.174412359255     1.364868437968    12.000000000000
         C           -0.096088992044     0.021587640745     2.514868437968    12.000000000000
         C            1.301911007956    -0.146412359255     2.490868437968    12.000000000000
         N            1.957911007956    -1.110412359255    -0.871131562032    14.003074004430
         H           -0.832088992044    -0.712412359255    -0.748131562032     1.007825032230
         H           -1.940088992044    -0.032412359255     1.414868437968     1.007825032230
         H            1.662911007956    -1.338412359255    -1.815131562032     1.007825032230
         H           -0.573088992044     0.307587640745     3.441868437968     1.007825032230
         H            4.181911007956    -1.396412359255    -0.913131562032     1.007825032230
         H            1.867911007956     0.029587640745     3.400868437968     1.007825032230
         H            5.245911007956    -1.486412359255     1.466868437968     1.007825032230
         H            4.243911007956    -0.950412359255     2.829868437968     1.007825032230
         H            5.041891007956     0.269687640745     1.783878437968     1.007825032230
         C           -3.292088992044     2.702587640745    -0.591131562032    12.000000000000
         C           -2.840088992044     0.643587640745    -1.905131562032    12.000000000000
         N           -3.456088992044     1.282587640745    -0.926131562032    14.003074004430
         N           -1.971088992044     1.281587640745    -2.662131562032    14.003074004430
         N           -3.125088992044    -0.621412359255    -2.123131562032    14.003074004430
         H           -4.083088992044     0.752587640745    -0.332131562032     1.007825032230
         H           -1.784088992044     2.259587640745    -2.498131562032     1.007825032230
         H           -1.498088992044     0.793587640745    -3.408131562032     1.007825032230
         H           -3.824088992044    -1.094412359255    -1.562131562032     1.007825032230
         H           -2.659088992044    -1.126412359255    -2.875131562032     1.007825032230
         H           -3.685088992044     3.304587640745    -1.412131562032     1.007825032230
         H           -2.232088992044     2.912587640745    -0.466131562032     1.007825032230
         H           -3.811945992044     2.999487640745     0.331708437968     1.007825032230

  Running in c1 symmetry.

  Rotational constants: A =      0.03723  B =      0.00901  C =      0.00800 [cm^-1]
  Rotational constants: A =   1116.19964  B =    270.07958  C =    239.75192 [MHz]
  Nuclear repulsion =  947.082430910219045

  Charge       = 1
  Multiplicity = 1
  Electrons    = 110
  Nalpha       = 55
  Nbeta        = 55

  ==> Algorithm <==

  SCF Algorithm Type is PK.
  DIIS enabled.
  MOM disabled.
  Fractional occupation disabled.
  Guess Type is SAD.
  Energy threshold   = 1.00e-06
  Density threshold  = 1.00e-10
  Integral threshold = 0.00e+00

  ==> Primary Basis <==

  Basis Set: CC-PVDZ
    Blend: CC-PVDZ
    Number of shells: 141
    Number of basis function: 295
    Number of Cartesian functions: 310
    Spherical Harmonics?: true
    Max angular momentum: 2

  ==> Pre-Iterations <==

   -------------------------------------------------------
    Irrep   Nso     Nmo     Nalpha   Nbeta   Ndocc  Nsocc
   -------------------------------------------------------
     A        295     295       0       0       0       0
   -------------------------------------------------------
    Total     295     295      55      55      55       0
   -------------------------------------------------------

  ==> Integral Setup <==

  Using integral reordering PK algorithm.
  Sizing the integral batches needed.
  Building batch lookup table.
   Calculation information:
      Number of atoms:                  32
      Number of AO shells:             141
      Number of primitives:            415
      Number of atomic orbitals:       310
      Number of basis functions:       295

      Integral cutoff                 1.00e-12
      Number of threads:                 1

	Batch   1 pq = [       0,    9405] index = [             0,44231715] size =     44231715
	Batch   2 pq = [    9405,   13301] index = [      44231715,88464951] size =     44233236
	Batch   3 pq = [   13301,   16290] index = [      88464951,132690195] size =     44225244
	Batch   4 pq = [   16290,   18810] index = [     132690195,176917455] size =     44227260
	Batch   5 pq = [   18810,   21030] index = [     176917455,221140965] size =     44223510
	Batch   6 pq = [   21030,   23037] index = [     221140965,265363203] size =     44222238
	Batch   7 pq = [   23037,   24883] index = [     265363203,309594286] size =     44231083
	Batch   8 pq = [   24883,   26601] index = [     309594286,353819901] size =     44225615
	Batch   9 pq = [   26601,   28214] index = [     353819901,398029005] size =     44209104
	Batch  10 pq = [   28214,   29740] index = [     398029005,442248670] size =     44219665
	Batch  11 pq = [   29740,   31191] index = [     442248670,486454836] size =     44206166
	Batch  12 pq = [   31191,   32578] index = [     486454836,530679331] size =     44224495
	Batch  13 pq = [   32578,   33908] index = [     530679331,574893186] size =     44213855
	Batch  14 pq = [   33908,   35188] index = [     574893186,619115266] size =     44222080
	Batch  15 pq = [   35188,   36423] index = [     619115266,663335676] size =     44220410
	Batch  16 pq = [   36423,   37617] index = [     663335676,707538153] size =     44202477
	Batch  17 pq = [   37617,   38775] index = [     707538153,751769700] size =     44231547
	Batch  18 pq = [   38775,   39899] index = [     751769700,795985050] size =     44215350
	Batch  19 pq = [   39899,   40992] index = [     795985050,840192528] size =     44207478
	Batch  20 pq = [   40992,   42057] index = [     840192528,884416653] size =     44224125
	Batch  21 pq = [   42057,   43095] index = [     884416653,928611060] size =     44194407
	Batch  22 pq = [   43095,   43660] index = [     928611060,953119630] size =     24508570
  Task number: 87
  Buffer size: 11059200
  Buffer per thread: 2
  We computed 45570233 shell quartets total.
  Whereas there are 50115066 unique shell quartets.

  ==> DiskJK: Disk-Based J/K Matrices <==

    J tasked:                  Yes
    K tasked:                  Yes
    wK tasked:                  No
    Memory [MiB]:              375
    Schwarz Cutoff:          1E-12

    OpenMP threads:              1

  Minimum eigenvalue in the overlap matrix is 2.4434009908E-04.
  Using Symmetric Orthogonalization.

  SCF Guess: Superposition of Atomic Densities via on-the-fly atomic UHF.

  ==> Iterations <==

                        Total Energy        Delta E     RMS |[F,P]|

   @RHF iter SAD:  -643.62867803460335   -6.43629e+02   0.00000e+00
   @RHF iter   1:  -643.79432363858461   -1.65646e-01   2.35899e-03 DIIS
   @RHF iter   2:  -644.06299637992856   -2.68673e-01   9.95567e-04 DIIS
   @RHF iter   3:  -644.10633228082258   -4.33359e-02   2.92239e-04 DIIS
   @RHF iter   4:  -644.11116047334804   -4.82819e-03   1.20987e-04 DIIS
   @RHF iter   5:  -644.11188049726422   -7.20024e-04   2.00501e-05 DIIS
   @RHF iter   6:  -644.11192379780675   -4.33005e-05   9.15110e-06 DIIS
   @RHF iter   7:  -644.11193221275960   -8.41495e-06   3.54487e-06 DIIS
   @RHF iter   8:  -644.11193457679406   -2.36403e-06   1.41068e-06 DIIS
   @RHF iter   9:  -644.11193501228479   -4.35491e-07   7.28966e-07 DIIS
   @RHF iter  10:  -644.11193514629792   -1.34013e-07   3.10350e-07 DIIS
   @RHF iter  11:  -644.11193517162258   -2.53247e-08   1.00839e-07 DIIS
   @RHF iter  12:  -644.11193517380877   -2.18620e-09   4.11721e-08 DIIS
   @RHF iter  13:  -644.11193517406809   -2.59320e-10   1.44007e-08 DIIS
   @RHF iter  14:  -644.11193517411232   -4.42242e-11   6.49948e-09 DIIS
   @RHF iter  15:  -644.11193517410800    4.32010e-12   3.01868e-09 DIIS
   @RHF iter  16:  -644.11193517411641   -8.41283e-12   1.33480e-09 DIIS
   @RHF iter  17:  -644.11193517411539    1.02318e-12   6.01675e-10 DIIS
   @RHF iter  18:  -644.11193517411039    5.00222e-12   2.17094e-10 DIIS
   @RHF iter  19:  -644.11193517412312   -1.27329e-11   7.81456e-11 DIIS
  Energy and wave function converged.

  ==> Post-Iterations <==

    Orbital Energies [Eh]
    ---------------------

    Doubly Occupied:

       1A    -15.787909     2A    -15.787726     3A    -15.781835
       4A    -15.692887     5A    -11.586905     6A    -11.436703
       7A    -11.359466     8A    -11.348437     9A    -11.333400
      10A    -11.331568    11A    -11.323281    12A    -11.314101
      13A    -11.313045    14A    -11.303050    15A    -11.302481
      16A     -1.545438    17A     -1.397964    18A     -1.392072
      19A     -1.380124    20A     -1.216954    21A     -1.154478
      22A     -1.138038    23A     -1.084060    24A     -1.075387
      25A     -1.035874    26A     -1.008121    27A     -0.977219
      28A     -0.938052    29A     -0.929883    30A     -0.894520
      31A     -0.857893    32A     -0.856379    33A     -0.840000
      34A     -0.825233    35A     -0.807289    36A     -0.790326
      37A     -0.756235    38A     -0.742080    39A     -0.730257
      40A     -0.715901    41A     -0.689998    42A     -0.682210
      43A     -0.673168    44A     -0.646945    45A     -0.628933
      46A     -0.618445    47A     -0.617368    48A     -0.610168
      49A     -0.582311    50A     -0.579089    51A     -0.557378
      52A     -0.552147    53A     -0.461783    54A     -0.385939
      55A     -0.363337

    Virtual:

      56A     -0.014467    57A      0.021917    58A      0.025756
      59A      0.031028    60A      0.034290    61A      0.061821
      62A      0.073794    63A      0.086075    64A      0.095580
      65A      0.110938    66A      0.121483    67A      0.122720
      68A      0.129288    69A      0.137203    70A      0.141096
      71A      0.154609    72A      0.157988    73A      0.180590
      74A      0.191823    75A      0.196154    76A      0.221739
      77A      0.230882    78A      0.274278    79A      0.285515
      80A      0.292029    81A      0.310232    82A      0.316321
      83A      0.336128    84A      0.342442    85A      0.352099
      86A      0.380336    87A      0.385768    88A      0.405537
      89A      0.421537    90A      0.464004    91A      0.472442
      92A      0.506441    93A      0.512882    94A      0.528511
      95A      0.529761    96A      0.532400    97A      0.541903
      98A      0.546195    99A      0.553256   100A      0.563061
     101A      0.578560   102A      0.603843   103A      0.608271
     104A      0.624315   105A      0.629090   106A      0.634880
     107A      0.641022   108A      0.649872   109A      0.655955
     110A      0.668823   111A      0.674397   112A      0.682534
     113A      0.686914   114A      0.692190   115A      0.701307
     116A      0.710830   117A      0.712947   118A      0.715304
     119A      0.725875   120A      0.737615   121A      0.752905
     122A      0.762902   123A      0.780093   124A      0.787117
     125A      0.800512   126A      0.805165   127A      0.807439
     128A      0.812493   129A      0.823502   130A      0.825789
     131A      0.836829   132A      0.854985   133A      0.867363
     134A      0.874468   135A      0.877644   136A      0.881076
     137A      0.891311   138A      0.915857   139A      0.922391
     140A      0.929936   141A      0.940224   142A      0.957417
     143A      0.974992   144A      0.985881   145A      0.990995
     146A      1.014638   147A      1.036801   148A      1.048813
     149A      1.054458   150A      1.065715   151A      1.074959
     152A      1.105843   153A      1.112564   154A      1.119686
     155A      1.123357   156A      1.138533   157A      1.147514
     158A      1.152861   159A      1.158767   160A      1.169400
     161A      1.186643   162A      1.195755   163A      1.197749
     164A      1.209931   165A      1.228512   166A      1.234540
     167A      1.236786   168A      1.254568   169A      1.267710
     170A      1.282368   171A      1.292435   172A      1.333927
     173A      1.361842   174A      1.398868   175A      1.425432
     176A      1.455871   177A      1.476574   178A      1.501399
     179A      1.509162   180A      1.514191   181A      1.521938
     182A      1.535036   183A      1.553444   184A      1.559278
     185A      1.574086   186A      1.593722   187A      1.604435
     188A      1.612911   189A      1.622496   190A      1.649455
     191A      1.659310   192A      1.661645   193A      1.680855
     194A      1.687486   195A      1.698874   196A      1.715613
     197A      1.737203   198A      1.737944   199A      1.749802
     200A      1.752310   201A      1.761200   202A      1.770169
     203A      1.781990   204A      1.785098   205A      1.799259
     206A      1.807981   207A      1.817367   208A      1.827339
     209A      1.834489   210A      1.843025   211A      1.845453
     212A      1.853965   213A      1.861467   214A      1.871992
     215A      1.892982   216A      1.893328   217A      1.908541
     218A      1.916457   219A      1.925429   220A      1.950588
     221A      1.975837   222A      1.978811   223A      1.996769
     224A      2.004700   225A      2.011348   226A      2.025712
     227A      2.037288   228A      2.043543   229A      2.055348
     230A      2.070388   231A      2.078346   232A      2.085916
     233A      2.091795   234A      2.103165   235A      2.131908
     236A      2.141900   237A      2.180134   238A      2.186054
     239A      2.203894   240A      2.213290   241A      2.221503
     242A      2.240885   243A      2.244492   244A      2.252515
     245A      2.266506   246A      2.295182   247A      2.301451
     248A      2.312148   249A      2.317622   250A      2.341954
     251A      2.357321   252A      2.373069   253A      2.381478
     254A      2.431880   255A      2.441774   256A      2.463871
     257A      2.487118   258A      2.503982   259A      2.535594
     260A      2.559273   261A      2.563085   262A      2.593487
     263A      2.597259   264A      2.611096   265A      2.631503
     266A      2.655939   267A      2.674345   268A      2.685561
     269A      2.696383   270A      2.704472   271A      2.713534
     272A      2.743338   273A      2.766460   274A      2.771383
     275A      2.780968   276A      2.794851   277A      2.815826
     278A      2.832196   279A      2.850622   280A      2.867075
     281A      2.894209   282A      2.909879   283A      2.934692
     284A      2.973062   285A      3.010062   286A      3.071032
     287A      3.092912   288A      3.102260   289A      3.139484
     290A      3.182920   291A      3.268853   292A      3.584703
     293A      3.638556   294A      3.647635   295A      3.832878

    Final Occupation by Irrep:
              A
    DOCC [    55 ]

  @RHF Final Energy:  -644.11193517412312

   => Energetics <=

    Nuclear Repulsion Energy =            947.0824309102190455
    One-Electron Energy =               -2738.9051544264962104
    Two-Electron Energy =                1147.7107883421540464
    Total Energy =                       -644.1119351741231185

Computation Completed

Properties will be evaluated at   0.000000,   0.000000,   0.000000 [a0]

Properties computed using the SCF density matrix

  Nuclear Dipole Moment: [e a0]
     X:    -4.3667      Y:     5.1462      Z:    -1.2562

  Electronic Dipole Moment: [e a0]
     X:    -0.1203      Y:    -3.9118      Z:    -2.4595

  Dipole Moment: [e a0]
     X:    -4.4870      Y:     1.2343      Z:    -3.7157     Total:     5.9551

  Dipole Moment: [D]
     X:   -11.4047      Y:     3.1374      Z:    -9.4444     Total:    15.1363

*** tstop() called on ds3 at Tue Apr 28 00:04:30 2020
Module time:
	user time   =     401.76 seconds =       6.70 minutes
	system time =     161.65 seconds =       2.69 minutes
	total time  =        797 seconds =      13.28 minutes
Total time:
	user time   =     401.76 seconds =       6.70 minutes
	system time =     161.65 seconds =       2.69 minutes
	total time  =        797 seconds =      13.28 minutes
                                     G D M A

                                 by Anthony Stone

                           version 2.2.06, 22 June 2011

               Distributed Multipoles from Gaussian wavefunctions

Starting at 0:4:30 on 28 Apr 2020

Using SCF density matrix from file ./SSI/SSI-112TRP-119ARG-2-dimer.test.4350.fchk

                         Distributed Multipole Analysis

Standard DMA

Positions and radii in angstrom
Multipole moments in atomic units, ea_0^k for rank k

C          x =  4.550911  y = -0.714412  z =  1.805868 angstrom
           Maximum rank =  0   Radius =  0.650 angstrom
                   Q00  =  -0.204142

C          x =  1.113911  y = -0.730412  z =  0.142868 angstrom
           Maximum rank =  0   Radius =  0.650 angstrom
                   Q00  =   0.317344

C          x =  1.930911  y = -0.535412  z =  1.293868 angstrom
           Maximum rank =  0   Radius =  0.650 angstrom
                   Q00  =  -0.044253

C          x =  3.300911  y = -0.801412  z =  0.917868 angstrom
           Maximum rank =  0   Radius =  0.650 angstrom
                   Q00  =  -0.132158

C          x =  3.259911  y = -1.146412  z = -0.401132 angstrom
           Maximum rank =  0   Radius =  0.650 angstrom
                   Q00  =   0.075719

C          x = -0.271089  y = -0.551412  z =  0.161868 angstrom
           Maximum rank =  0   Radius =  0.650 angstrom
                   Q00  =  -0.150786

C          x = -0.871089  y = -0.174412  z =  1.364868 angstrom
           Maximum rank =  0   Radius =  0.650 angstrom
                   Q00  =  -0.089627

C          x = -0.096089  y =  0.021588  z =  2.514868 angstrom
           Maximum rank =  0   Radius =  0.650 angstrom
                   Q00  =  -0.064562

C          x =  1.301911  y = -0.146412  z =  2.490868 angstrom
           Maximum rank =  0   Radius =  0.650 angstrom
                   Q00  =  -0.083068

N          x =  1.957911  y = -1.110412  z = -0.871132 angstrom
           Maximum rank =  0   Radius =  0.650 angstrom
                   Q00  =  -0.508820

H          x = -0.832089  y = -0.712412  z = -0.748132 angstrom
           Maximum rank =  0   Radius =  0.325 angstrom
                   Q00  =   0.019601

H          x = -1.940089  y = -0.032412  z =  1.414868 angstrom
           Maximum rank =  0   Radius =  0.325 angstrom
                   Q00  =   0.030995

H          x =  1.662911  y = -1.338412  z = -1.815132 angstrom
           Maximum rank =  0   Radius =  0.325 angstrom
                   Q00  =   0.209407

H          x = -0.573089  y =  0.307588  z =  3.441868 angstrom
           Maximum rank =  0   Radius =  0.325 angstrom
                   Q00  =   0.072936

H          x =  4.181911  y = -1.396412  z = -0.913132 angstrom
           Maximum rank =  0   Radius =  0.325 angstrom
                   Q00  =   0.117446

H          x =  1.867911  y =  0.029588  z =  3.400868 angstrom
           Maximum rank =  0   Radius =  0.325 angstrom
                   Q00  =   0.089103

H          x =  5.245911  y = -1.486412  z =  1.466868 angstrom
           Maximum rank =  0   Radius =  0.325 angstrom
                   Q00  =   0.114442

H          x =  4.243911  y = -0.950412  z =  2.829868 angstrom
           Maximum rank =  0   Radius =  0.325 angstrom
                   Q00  =   0.111033

H          x =  5.041891  y =  0.269688  z =  1.783878 angstrom
           Maximum rank =  0   Radius =  0.325 angstrom
                   Q00  =   0.111717

C          x = -3.292089  y =  2.702588  z = -0.591132 angstrom
           Maximum rank =  0   Radius =  0.650 angstrom
                   Q00  =  -0.126745

C          x = -2.840089  y =  0.643588  z = -1.905132 angstrom
           Maximum rank =  0   Radius =  0.650 angstrom
                   Q00  =   1.084288

N          x = -3.456089  y =  1.282588  z = -0.926132 angstrom
           Maximum rank =  0   Radius =  0.650 angstrom
                   Q00  =  -0.497880

N          x = -1.971089  y =  1.281588  z = -2.662132 angstrom
           Maximum rank =  0   Radius =  0.650 angstrom
                   Q00  =  -0.576818

N          x = -3.125089  y = -0.621412  z = -2.123132 angstrom
           Maximum rank =  0   Radius =  0.650 angstrom
                   Q00  =  -0.592166

H          x = -4.083089  y =  0.752588  z = -0.332132 angstrom
           Maximum rank =  0   Radius =  0.325 angstrom
                   Q00  =   0.232201

H          x = -1.784089  y =  2.259588  z = -2.498132 angstrom
           Maximum rank =  0   Radius =  0.325 angstrom
                   Q00  =   0.278815

H          x = -1.498089  y =  0.793588  z = -3.408132 angstrom
           Maximum rank =  0   Radius =  0.325 angstrom
                   Q00  =   0.263943

H          x = -3.824089  y = -1.094412  z = -1.562132 angstrom
           Maximum rank =  0   Radius =  0.325 angstrom
                   Q00  =   0.273786

H          x = -2.659089  y = -1.126412  z = -2.875132 angstrom
           Maximum rank =  0   Radius =  0.325 angstrom
                   Q00  =   0.267419

H          x = -3.685089  y =  3.304588  z = -1.412132 angstrom
           Maximum rank =  0   Radius =  0.325 angstrom
                   Q00  =   0.114659

H          x = -2.232089  y =  2.912588  z = -0.466132 angstrom
           Maximum rank =  0   Radius =  0.325 angstrom
                   Q00  =   0.116697

H          x = -3.811946  y =  2.999488  z =  0.331708 angstrom
           Maximum rank =  0   Radius =  0.325 angstrom
                   Q00  =   0.169476

Total multipoles referred to origin at
           x =   0.000000,  y =    0.000000,  z =    0.000000 angstrom
                   Q00  =   1.000000

Finished at 0:4:30 on 28 Apr 2020

  DMA results are available in the Python driver through the
	  variable('DMA DISTRIBUTED MULTIPOLES')
  and
	  variable('DMA TOTAL MULTIPOLES')
  commands.

    Psi4 stopped on: Tuesday, 28 April 2020 12:04AM
    Psi4 wall time for execution: 0:13:16.65

*** Psi4 exiting successfully. Buy a developer a beer!
