                               Psi4 1.3.2 release

  ==> Input File <==

--------------------------------------------------------------------------
import numpy as np
set {scf_type pk
basis cc-pvdz
d_convergence 10
gdma_switch   0
gdma_limit    0
gdma_origin   [ 0.0,  0.0,  0.0 ]
}
molecule test {
    units Angstrom
    2 1
    --
    2 1
    C               -1.457234518533128    -3.033918546313111     1.405296177136138
    C               -1.675234518533128    -0.993918546313111     0.023296177136138
    N               -1.217234518533128    -0.233918546313111    -0.950703822863862
    N               -1.042234518533128    -2.109918546313111     0.344296177136138
    N               -2.764234518533128    -0.635918546313111     0.671296177136138
    H               -0.417234518533128    -0.575918546313111    -1.471703822863862
    H               -1.705234518533128     0.607081453686889    -1.218703822863862
    H               -0.277234518533128    -2.386918546313111    -0.271703822863862
    H               -3.210234518533128    -1.278918546313111     1.313296177136138
    H               -3.246234518533128     0.244081453686889     0.471296177136138
    H               -1.808234518533128    -3.958918546313111     0.941296177136138
    H               -2.263234518533128    -2.634918546313112     2.020296177136138
    H               -0.614334518533128    -3.269145546313111     2.071773177136138
    C                1.292765481466872     2.319081453686888     1.425296177136138
    C                1.721765481466872     1.179081453686889    -0.721703822863862
    N                1.258765481466872     2.216081453686888    -0.035703822863862
    N                1.638765481466872     1.166081453686889    -2.036703822863862
    N                2.260765481466872     0.146081453686889    -0.097703822863862
    H                0.878765481466872     2.997081453686888    -0.552703822863862
    H                1.288765481466872     1.971081453686889    -2.535703822863862
    H                2.061765481466872     0.408081453686889    -2.552703822863863
    H                2.421765481466872     0.174081453686889     0.892296177136138
    H                2.532765481466872    -0.683918546313111    -0.632703822863863
    H                1.082765481466872     3.350081453686888     1.718296177136138
    H                2.282765481466872     2.060081453686888     1.806296177136137
    H                0.526805481466872     1.662850553686889     1.864227177136138

}
e, wfn = energy('scf', return_wfn=True)
gdma(wfn)
dmavals = variable('DMA DISTRIBUTED MULTIPOLES')
charges = np.array(dmavals)
print(charges)
np.save('SSI-009ARG-128ARG-2-dimer.npy', np.array(charges))--------------------------------------------------------------------------

*** tstart() called on ds3
*** at Tue Apr 28 13:47:37 2020

   => Loading Basis Set <=

    Name: CC-PVDZ
    Role: ORBITAL
    Keyword: BASIS
    atoms 1-2, 14-15  entry C          line   138 file /theoryfs2/ds/metcalf/miniconda2/envs/tf2gpu/share/psi4/basis/cc-pvdz.gbs
    atoms 3-5, 16-18  entry N          line   168 file /theoryfs2/ds/metcalf/miniconda2/envs/tf2gpu/share/psi4/basis/cc-pvdz.gbs
    atoms 6-13, 19-26 entry H          line    22 file /theoryfs2/ds/metcalf/miniconda2/envs/tf2gpu/share/psi4/basis/cc-pvdz.gbs

         ---------------------------------------------------------
                                   SCF
               by Justin Turney, Rob Parrish, Andy Simmonett
                          and Daniel G. A. Smith
                              RHF Reference
                        1 Threads,    500 MiB Core
         ---------------------------------------------------------

  ==> Geometry <==

    Molecular point group: c1
    Full point group: C1

    Geometry (in Angstrom), charge = 2, multiplicity = 1:

       Center              X                  Y                   Z               Mass
    ------------   -----------------  -----------------  -----------------  -----------------
         C           -1.457234518533    -3.033918546313     1.405296177136    12.000000000000
         C           -1.675234518533    -0.993918546313     0.023296177136    12.000000000000
         N           -1.217234518533    -0.233918546313    -0.950703822864    14.003074004430
         N           -1.042234518533    -2.109918546313     0.344296177136    14.003074004430
         N           -2.764234518533    -0.635918546313     0.671296177136    14.003074004430
         H           -0.417234518533    -0.575918546313    -1.471703822864     1.007825032230
         H           -1.705234518533     0.607081453687    -1.218703822864     1.007825032230
         H           -0.277234518533    -2.386918546313    -0.271703822864     1.007825032230
         H           -3.210234518533    -1.278918546313     1.313296177136     1.007825032230
         H           -3.246234518533     0.244081453687     0.471296177136     1.007825032230
         H           -1.808234518533    -3.958918546313     0.941296177136     1.007825032230
         H           -2.263234518533    -2.634918546313     2.020296177136     1.007825032230
         H           -0.614334518533    -3.269145546313     2.071773177136     1.007825032230
         C            1.292765481467     2.319081453687     1.425296177136    12.000000000000
         C            1.721765481467     1.179081453687    -0.721703822864    12.000000000000
         N            1.258765481467     2.216081453687    -0.035703822864    14.003074004430
         N            1.638765481467     1.166081453687    -2.036703822864    14.003074004430
         N            2.260765481467     0.146081453687    -0.097703822864    14.003074004430
         H            0.878765481467     2.997081453687    -0.552703822864     1.007825032230
         H            1.288765481467     1.971081453687    -2.535703822864     1.007825032230
         H            2.061765481467     0.408081453687    -2.552703822864     1.007825032230
         H            2.421765481467     0.174081453687     0.892296177136     1.007825032230
         H            2.532765481467    -0.683918546313    -0.632703822864     1.007825032230
         H            1.082765481467     3.350081453687     1.718296177136     1.007825032230
         H            2.282765481467     2.060081453687     1.806296177136     1.007825032230
         H            0.526805481467     1.662850553687     1.864227177136     1.007825032230

  Running in c1 symmetry.

  Rotational constants: A =      0.05782  B =      0.01872  C =      0.01837 [cm^-1]
  Rotational constants: A =   1733.34782  B =    561.31222  C =    550.86024 [MHz]
  Nuclear repulsion =  579.030325247414453

  Charge       = 2
  Multiplicity = 1
  Electrons    = 80
  Nalpha       = 40
  Nbeta        = 40

  ==> Algorithm <==

  SCF Algorithm Type is PK.
  DIIS enabled.
  MOM disabled.
  Fractional occupation disabled.
  Guess Type is SAD.
  Energy threshold   = 1.00e-06
  Density threshold  = 1.00e-10
  Integral threshold = 0.00e+00

  ==> Primary Basis <==

  Basis Set: CC-PVDZ
    Blend: CC-PVDZ
    Number of shells: 108
    Number of basis function: 220
    Number of Cartesian functions: 230
    Spherical Harmonics?: true
    Max angular momentum: 2

  ==> Pre-Iterations <==

   -------------------------------------------------------
    Irrep   Nso     Nmo     Nalpha   Nbeta   Ndocc  Nsocc
   -------------------------------------------------------
     A        220     220       0       0       0       0
   -------------------------------------------------------
    Total     220     220      40      40      40       0
   -------------------------------------------------------

  ==> Integral Setup <==

  Using integral reordering PK algorithm.
  Sizing the integral batches needed.
  Building batch lookup table.
   Calculation information:
      Number of atoms:                  26
      Number of AO shells:             108
      Number of primitives:            300
      Number of atomic orbitals:       230
      Number of basis functions:       220

      Integral cutoff                 1.00e-12
      Number of threads:                 1

	Batch   1 pq = [       0,    9405] index = [             0,44231715] size =     44231715
	Batch   2 pq = [    9405,   13301] index = [      44231715,88464951] size =     44233236
	Batch   3 pq = [   13301,   16290] index = [      88464951,132690195] size =     44225244
	Batch   4 pq = [   16290,   18810] index = [     132690195,176917455] size =     44227260
	Batch   5 pq = [   18810,   21030] index = [     176917455,221140965] size =     44223510
	Batch   6 pq = [   21030,   23037] index = [     221140965,265363203] size =     44222238
	Batch   7 pq = [   23037,   24310] index = [     265363203,295500205] size =     30137002
  Task number: 27
  Buffer size: 11059200
  Buffer per thread: 2
  We computed 15390579 shell quartets total.
  Whereas there are 17325441 unique shell quartets.

  ==> DiskJK: Disk-Based J/K Matrices <==

    J tasked:                  Yes
    K tasked:                  Yes
    wK tasked:                  No
    Memory [MiB]:              375
    Schwarz Cutoff:          1E-12

    OpenMP threads:              1

  Minimum eigenvalue in the overlap matrix is 3.3454046657E-03.
  Using Symmetric Orthogonalization.

  SCF Guess: Superposition of Atomic Densities via on-the-fly atomic UHF.

  ==> Iterations <==

                        Total Energy        Delta E     RMS |[F,P]|

   @RHF iter SAD:  -486.88949751306302   -4.86889e+02   0.00000e+00
   @RHF iter   1:  -486.81937640949997    7.01211e-02   2.95004e-03 DIIS
   @RHF iter   2:  -487.03076897459135   -2.11393e-01   1.10381e-03 DIIS
   @RHF iter   3:  -487.05807619883080   -2.73072e-02   3.00253e-04 DIIS
   @RHF iter   4:  -487.06111231358204   -3.03611e-03   4.75154e-05 DIIS
   @RHF iter   5:  -487.06120700002452   -9.46864e-05   1.92333e-05 DIIS
   @RHF iter   6:  -487.06122095792978   -1.39579e-05   4.68209e-06 DIIS
   @RHF iter   7:  -487.06122207995469   -1.12202e-06   1.56549e-06 DIIS
   @RHF iter   8:  -487.06122217056441   -9.06097e-08   3.84514e-07 DIIS
   @RHF iter   9:  -487.06122217678364   -6.21924e-09   8.79328e-08 DIIS
   @RHF iter  10:  -487.06122217715762   -3.73973e-10   3.19875e-08 DIIS
   @RHF iter  11:  -487.06122217721037   -5.27507e-11   9.81689e-09 DIIS
   @RHF iter  12:  -487.06122217722003   -9.66338e-12   3.67921e-09 DIIS
   @RHF iter  13:  -487.06122217722032   -2.84217e-13   1.19623e-09 DIIS
   @RHF iter  14:  -487.06122217721872    1.59162e-12   3.39992e-10 DIIS
   @RHF iter  15:  -487.06122217722020   -1.47793e-12   8.39375e-11 DIIS
  Energy and wave function converged.

  ==> Post-Iterations <==

    Orbital Energies [Eh]
    ---------------------

    Doubly Occupied:

       1A    -15.903114     2A    -15.901079     3A    -15.900223
       4A    -15.894531     5A    -15.891451     6A    -15.886581
       7A    -11.701167     8A    -11.692963     9A    -11.542459
      10A    -11.533522    11A     -1.657741    12A     -1.651598
      13A     -1.512364    14A     -1.507084    15A     -1.503657
      16A     -1.493789    17A     -1.245573    18A     -1.239262
      19A     -1.147994    20A     -1.138761    21A     -1.089350
      22A     -1.079333    23A     -1.050861    24A     -1.049771
      25A     -0.971190    26A     -0.970991    27A     -0.967219
      28A     -0.953775    29A     -0.935085    30A     -0.922515
      31A     -0.898028    32A     -0.894697    33A     -0.850998
      34A     -0.839478    35A     -0.822347    36A     -0.817674
      37A     -0.732802    38A     -0.722633    39A     -0.694315
      40A     -0.684801

    Virtual:

      41A     -0.145868    42A     -0.100813    43A     -0.096123
      44A     -0.088070    45A     -0.075058    46A     -0.074176
      47A     -0.058409    48A     -0.054780    49A     -0.043556
      50A     -0.029103    51A     -0.016193    52A     -0.008997
      53A      0.008255    54A      0.023336    55A      0.029972
      56A      0.036074    57A      0.038699    58A      0.066590
      59A      0.091520    60A      0.109227    61A      0.158145
      62A      0.179558    63A      0.211083    64A      0.225759
      65A      0.232186    66A      0.243295    67A      0.321558
      68A      0.340501    69A      0.347795    70A      0.355328
      71A      0.385930    72A      0.392455    73A      0.415873
      74A      0.417275    75A      0.422024    76A      0.430493
      77A      0.437684    78A      0.449442    79A      0.452566
      80A      0.466744    81A      0.481574    82A      0.507640
      83A      0.564298    84A      0.569575    85A      0.583287
      86A      0.595189    87A      0.596952    88A      0.603961
      89A      0.610409    90A      0.623953    91A      0.627624
      92A      0.634370    93A      0.650992    94A      0.660807
      95A      0.670440    96A      0.687917    97A      0.694999
      98A      0.716749    99A      0.730614   100A      0.741819
     101A      0.755755   102A      0.772861   103A      0.790869
     104A      0.803053   105A      0.814977   106A      0.835726
     107A      0.844348   108A      0.860600   109A      0.872321
     110A      0.905587   111A      0.941416   112A      0.969880
     113A      0.993728   114A      1.010341   115A      1.022499
     116A      1.025032   117A      1.047019   118A      1.063763
     119A      1.082623   120A      1.099151   121A      1.103575
     122A      1.108020   123A      1.115654   124A      1.130937
     125A      1.180703   126A      1.201373   127A      1.263460
     128A      1.301274   129A      1.361540   130A      1.380517
     131A      1.388212   132A      1.399528   133A      1.415986
     134A      1.427922   135A      1.430334   136A      1.437849
     137A      1.440817   138A      1.494483   139A      1.502618
     140A      1.525727   141A      1.536466   142A      1.550023
     143A      1.568910   144A      1.589381   145A      1.609357
     146A      1.618248   147A      1.622969   148A      1.634942
     149A      1.638774   150A      1.651493   151A      1.664666
     152A      1.676024   153A      1.678961   154A      1.696399
     155A      1.704622   156A      1.716386   157A      1.731483
     158A      1.734892   159A      1.749292   160A      1.779499
     161A      1.784284   162A      1.815694   163A      1.885838
     164A      1.897692   165A      1.912686   166A      1.918105
     167A      1.923962   168A      1.942965   169A      2.003260
     170A      2.018491   171A      2.031329   172A      2.039676
     173A      2.062690   174A      2.076128   175A      2.129846
     176A      2.138143   177A      2.145062   178A      2.155299
     179A      2.174829   180A      2.194272   181A      2.211645
     182A      2.216809   183A      2.226646   184A      2.239121
     185A      2.254540   186A      2.274899   187A      2.319053
     188A      2.328352   189A      2.348174   190A      2.361562
     191A      2.418969   192A      2.447889   193A      2.478591
     194A      2.489358   195A      2.492176   196A      2.507940
     197A      2.535661   198A      2.538742   199A      2.589624
     200A      2.631830   201A      2.640938   202A      2.652728
     203A      2.662840   204A      2.678050   205A      2.696000
     206A      2.703890   207A      2.732891   208A      2.749661
     209A      2.782499   210A      2.813548   211A      2.944213
     212A      2.958385   213A      2.979736   214A      2.989388
     215A      3.010863   216A      3.025495   217A      3.449699
     218A      3.455080   219A      3.525404   220A      3.546484

    Final Occupation by Irrep:
              A
    DOCC [    40 ]

  @RHF Final Energy:  -487.06122217722020

   => Energetics <=

    Nuclear Repulsion Energy =            579.0303252474144529
    One-Electron Energy =               -1784.3975437520045944
    Two-Electron Energy =                 718.3059963273700532
    Total Energy =                       -487.0612221772202020

Computation Completed

Properties will be evaluated at   0.000000,   0.000000,   0.000000 [a0]

Properties computed using the SCF density matrix

  Nuclear Dipole Moment: [e a0]
     X:    -0.4371      Y:    -1.2336      Z:     3.6277

  Electronic Dipole Moment: [e a0]
     X:     0.4328      Y:     1.4353      Z:    -4.3596

  Dipole Moment: [e a0]
     X:    -0.0043      Y:     0.2017      Z:    -0.7319     Total:     0.7592

  Dipole Moment: [D]
     X:    -0.0108      Y:     0.5126      Z:    -1.8602     Total:     1.9296

*** tstop() called on ds3 at Tue Apr 28 13:49:52 2020
Module time:
	user time   =     102.31 seconds =       1.71 minutes
	system time =      38.11 seconds =       0.64 minutes
	total time  =        135 seconds =       2.25 minutes
Total time:
	user time   =     102.31 seconds =       1.71 minutes
	system time =      38.11 seconds =       0.64 minutes
	total time  =        135 seconds =       2.25 minutes
                                     G D M A

                                 by Anthony Stone

                           version 2.2.06, 22 June 2011

               Distributed Multipoles from Gaussian wavefunctions

Starting at 13:49:52 on 28 Apr 2020

Using SCF density matrix from file ./SSI/SSI-009ARG-128ARG-2-dimer.test.14624.fchk

                         Distributed Multipole Analysis

Standard DMA

Positions and radii in angstrom
Multipole moments in atomic units, ea_0^k for rank k

C          x = -1.457235  y = -3.033919  z =  1.405296 angstrom
           Maximum rank =  0   Radius =  0.650 angstrom
                   Q00  =  -0.132858

C          x = -1.675235  y = -0.993919  z =  0.023296 angstrom
           Maximum rank =  0   Radius =  0.650 angstrom
                   Q00  =   1.079632

N          x = -1.217235  y = -0.233919  z = -0.950704 angstrom
           Maximum rank =  0   Radius =  0.650 angstrom
                   Q00  =  -0.594391

N          x = -1.042235  y = -2.109919  z =  0.344296 angstrom
           Maximum rank =  0   Radius =  0.650 angstrom
                   Q00  =  -0.489067

N          x = -2.764235  y = -0.635919  z =  0.671296 angstrom
           Maximum rank =  0   Radius =  0.650 angstrom
                   Q00  =  -0.598130

H          x = -0.417235  y = -0.575919  z = -1.471704 angstrom
           Maximum rank =  0   Radius =  0.325 angstrom
                   Q00  =   0.247207

H          x = -1.705235  y =  0.607081  z = -1.218704 angstrom
           Maximum rank =  0   Radius =  0.325 angstrom
                   Q00  =   0.272162

H          x = -0.277235  y = -2.386919  z = -0.271704 angstrom
           Maximum rank =  0   Radius =  0.325 angstrom
                   Q00  =   0.225224

H          x = -3.210235  y = -1.278919  z =  1.313296 angstrom
           Maximum rank =  0   Radius =  0.325 angstrom
                   Q00  =   0.281933

H          x = -3.246235  y =  0.244081  z =  0.471296 angstrom
           Maximum rank =  0   Radius =  0.325 angstrom
                   Q00  =   0.277818

H          x = -1.808235  y = -3.958919  z =  0.941296 angstrom
           Maximum rank =  0   Radius =  0.325 angstrom
                   Q00  =   0.150890

H          x = -2.263235  y = -2.634919  z =  2.020296 angstrom
           Maximum rank =  0   Radius =  0.325 angstrom
                   Q00  =   0.124189

H          x = -0.614335  y = -3.269146  z =  2.071773 angstrom
           Maximum rank =  0   Radius =  0.325 angstrom
                   Q00  =   0.153094

C          x =  1.292765  y =  2.319081  z =  1.425296 angstrom
           Maximum rank =  0   Radius =  0.650 angstrom
                   Q00  =  -0.137476

C          x =  1.721765  y =  1.179081  z = -0.721704 angstrom
           Maximum rank =  0   Radius =  0.650 angstrom
                   Q00  =   1.071444

N          x =  1.258765  y =  2.216081  z = -0.035704 angstrom
           Maximum rank =  0   Radius =  0.650 angstrom
                   Q00  =  -0.492386

N          x =  1.638765  y =  1.166081  z = -2.036704 angstrom
           Maximum rank =  0   Radius =  0.650 angstrom
                   Q00  =  -0.607512

N          x =  2.260765  y =  0.146081  z = -0.097704 angstrom
           Maximum rank =  0   Radius =  0.650 angstrom
                   Q00  =  -0.596104

H          x =  0.878765  y =  2.997081  z = -0.552704 angstrom
           Maximum rank =  0   Radius =  0.325 angstrom
                   Q00  =   0.243309

H          x =  1.288765  y =  1.971081  z = -2.535704 angstrom
           Maximum rank =  0   Radius =  0.325 angstrom
                   Q00  =   0.280213

H          x =  2.061765  y =  0.408081  z = -2.552704 angstrom
           Maximum rank =  0   Radius =  0.325 angstrom
                   Q00  =   0.270730

H          x =  2.421765  y =  0.174081  z =  0.892296 angstrom
           Maximum rank =  0   Radius =  0.325 angstrom
                   Q00  =   0.283401

H          x =  2.532765  y = -0.683919  z = -0.632704 angstrom
           Maximum rank =  0   Radius =  0.325 angstrom
                   Q00  =   0.269506

H          x =  1.082765  y =  3.350081  z =  1.718296 angstrom
           Maximum rank =  0   Radius =  0.325 angstrom
                   Q00  =   0.182555

H          x =  2.282765  y =  2.060081  z =  1.806296 angstrom
           Maximum rank =  0   Radius =  0.325 angstrom
                   Q00  =   0.126840

H          x =  0.526805  y =  1.662851  z =  1.864227 angstrom
           Maximum rank =  0   Radius =  0.325 angstrom
                   Q00  =   0.107777

Total multipoles referred to origin at
           x =   0.000000,  y =    0.000000,  z =    0.000000 angstrom
                   Q00  =   2.000000

Finished at 13:49:52 on 28 Apr 2020

  DMA results are available in the Python driver through the
	  variable('DMA DISTRIBUTED MULTIPOLES')
  and
	  variable('DMA TOTAL MULTIPOLES')
  commands.

    Psi4 stopped on: Tuesday, 28 April 2020 01:49PM
    Psi4 wall time for execution: 0:02:14.74

*** Psi4 exiting successfully. Buy a developer a beer!
