                               Psi4 1.3.2 release

  ==> Input File <==

--------------------------------------------------------------------------
import numpy as np
set {scf_type pk
basis cc-pvdz
d_convergence 10
gdma_switch   0
gdma_limit    0
gdma_origin   [ 0.0,  0.0,  0.0 ]
}
molecule test {
    units Angstrom
    -1 1
    --
    -1 1
    C                0.717790290911960    -2.335712392556282    -0.929067455961669
    C               -0.776209709088040    -2.097712392556282    -0.754067455961669
    O               -1.616209709088040    -2.939712392556283    -1.109067455961669
    N               -1.127209709088040    -0.955712392556282    -0.210067455961669
    H               -2.101209709088040    -0.775712392556282    -0.002067455961669
    H               -0.408209709088040    -0.244712392556282    -0.044067455961669
    H                0.935790290911960    -3.329712392556282    -0.540067455961669
    H                1.289790290911960    -1.613712392556282    -0.346067455961669
    H                1.014090290911960    -2.273292392556282    -1.986569455961669
    C                1.106790290911960     3.386287607443718     0.365932544038331
    C                0.707790290911960     1.993287607443718     0.770932544038331
    O                0.964790290911960     1.033287607443718     0.009932544038331
    O                0.042790290911960     1.848287607443718     1.822932544038331
    H                1.453790290911960     3.405287607443718    -0.667067455961669
    H                1.947790290911960     3.674287607443718     0.998932544038331
    H                0.279090290911960     4.093597607443717     0.522872544038331

}
e, wfn = energy('scf', return_wfn=True)
gdma(wfn)
dmavals = variable('DMA DISTRIBUTED MULTIPOLES')
charges = np.array(dmavals)
print(charges)
np.save('SSI-017GLN-094ASP-1-dimer.npy', np.array(charges))--------------------------------------------------------------------------

*** tstart() called on ds3
*** at Mon Apr 27 07:46:14 2020

   => Loading Basis Set <=

    Name: CC-PVDZ
    Role: ORBITAL
    Keyword: BASIS
    atoms 1-2, 10-11 entry C          line   138 file /theoryfs2/ds/metcalf/miniconda2/envs/tf2gpu/share/psi4/basis/cc-pvdz.gbs
    atoms 3, 12-13   entry O          line   198 file /theoryfs2/ds/metcalf/miniconda2/envs/tf2gpu/share/psi4/basis/cc-pvdz.gbs
    atoms 4          entry N          line   168 file /theoryfs2/ds/metcalf/miniconda2/envs/tf2gpu/share/psi4/basis/cc-pvdz.gbs
    atoms 5-9, 14-16 entry H          line    22 file /theoryfs2/ds/metcalf/miniconda2/envs/tf2gpu/share/psi4/basis/cc-pvdz.gbs

         ---------------------------------------------------------
                                   SCF
               by Justin Turney, Rob Parrish, Andy Simmonett
                          and Daniel G. A. Smith
                              RHF Reference
                        1 Threads,    500 MiB Core
         ---------------------------------------------------------

  ==> Geometry <==

    Molecular point group: c1
    Full point group: C1

    Geometry (in Angstrom), charge = -1, multiplicity = 1:

       Center              X                  Y                   Z               Mass
    ------------   -----------------  -----------------  -----------------  -----------------
         C            0.717790290912    -2.335712392556    -0.929067455962    12.000000000000
         C           -0.776209709088    -2.097712392556    -0.754067455962    12.000000000000
         O           -1.616209709088    -2.939712392556    -1.109067455962    15.994914619570
         N           -1.127209709088    -0.955712392556    -0.210067455962    14.003074004430
         H           -2.101209709088    -0.775712392556    -0.002067455962     1.007825032230
         H           -0.408209709088    -0.244712392556    -0.044067455962     1.007825032230
         H            0.935790290912    -3.329712392556    -0.540067455962     1.007825032230
         H            1.289790290912    -1.613712392556    -0.346067455962     1.007825032230
         H            1.014090290912    -2.273292392556    -1.986569455962     1.007825032230
         C            1.106790290912     3.386287607444     0.365932544038    12.000000000000
         C            0.707790290912     1.993287607444     0.770932544038    12.000000000000
         O            0.964790290912     1.033287607444     0.009932544038    15.994914619570
         O            0.042790290912     1.848287607444     1.822932544038    15.994914619570
         H            1.453790290912     3.405287607444    -0.667067455962     1.007825032230
         H            1.947790290912     3.674287607444     0.998932544038     1.007825032230
         H            0.279090290912     4.093597607444     0.522872544038     1.007825032230

  Running in c1 symmetry.

  Rotational constants: A =      0.16495  B =      0.02278  C =      0.02132 [cm^-1]
  Rotational constants: A =   4945.10662  B =    682.83142  C =    639.18059 [MHz]
  Nuclear repulsion =  351.490789305389455

  Charge       = -1
  Multiplicity = 1
  Electrons    = 64
  Nalpha       = 32
  Nbeta        = 32

  ==> Algorithm <==

  SCF Algorithm Type is PK.
  DIIS enabled.
  MOM disabled.
  Fractional occupation disabled.
  Guess Type is SAD.
  Energy threshold   = 1.00e-06
  Density threshold  = 1.00e-10
  Integral threshold = 0.00e+00

  ==> Primary Basis <==

  Basis Set: CC-PVDZ
    Blend: CC-PVDZ
    Number of shells: 72
    Number of basis function: 152
    Number of Cartesian functions: 160
    Spherical Harmonics?: true
    Max angular momentum: 2

  ==> Pre-Iterations <==

   -------------------------------------------------------
    Irrep   Nso     Nmo     Nalpha   Nbeta   Ndocc  Nsocc
   -------------------------------------------------------
     A        152     152       0       0       0       0
   -------------------------------------------------------
    Total     152     152      32      32      32       0
   -------------------------------------------------------

  ==> Integral Setup <==

  Using integral reordering PK algorithm.
  Sizing the integral batches needed.
  Building batch lookup table.
   Calculation information:
      Number of atoms:                  16
      Number of AO shells:              72
      Number of primitives:            216
      Number of atomic orbitals:       160
      Number of basis functions:       152

      Integral cutoff                 1.00e-12
      Number of threads:                 1

	Batch   1 pq = [       0,    9405] index = [             0,44231715] size =     44231715
	Batch   2 pq = [    9405,   11628] index = [      44231715,67611006] size =     23379291
  Task number: 7
  Buffer size: 11059200
  Buffer per thread: 2
  We computed 2659061 shell quartets total.
  Whereas there are 3454506 unique shell quartets.

  ==> DiskJK: Disk-Based J/K Matrices <==

    J tasked:                  Yes
    K tasked:                  Yes
    wK tasked:                  No
    Memory [MiB]:              375
    Schwarz Cutoff:          1E-12

    OpenMP threads:              1

  Minimum eigenvalue in the overlap matrix is 4.5518151896E-03.
  Using Symmetric Orthogonalization.

  SCF Guess: Superposition of Atomic Densities via on-the-fly atomic UHF.

  ==> Iterations <==

                        Total Energy        Delta E     RMS |[F,P]|

   @RHF iter SAD:  -433.49981561984686   -4.33500e+02   0.00000e+00
   @RHF iter   1:  -434.95703203140101   -1.45722e+00   5.39381e-03 DIIS
   @RHF iter   2:  -435.18578937957943   -2.28757e-01   3.13403e-03 DIIS
   @RHF iter   3:  -435.26478566982053   -7.89963e-02   4.74175e-04 DIIS
   @RHF iter   4:  -435.26799292294180   -3.20725e-03   1.84839e-04 DIIS
   @RHF iter   5:  -435.26853469734976   -5.41774e-04   3.84925e-05 DIIS
   @RHF iter   6:  -435.26856086628169   -2.61689e-05   1.86766e-05 DIIS
   @RHF iter   7:  -435.26856671677950   -5.85050e-06   4.84770e-06 DIIS
   @RHF iter   8:  -435.26856752283265   -8.06053e-07   2.18373e-06 DIIS
   @RHF iter   9:  -435.26856766398413   -1.41151e-07   8.97949e-07 DIIS
   @RHF iter  10:  -435.26856768725867   -2.32745e-08   2.34301e-07 DIIS
   @RHF iter  11:  -435.26856768864536   -1.38670e-09   1.04265e-07 DIIS
   @RHF iter  12:  -435.26856768880265   -1.57286e-10   2.55962e-08 DIIS
   @RHF iter  13:  -435.26856768881947   -1.68257e-11   6.43106e-09 DIIS
   @RHF iter  14:  -435.26856768882061   -1.13687e-12   2.07496e-09 DIIS
   @RHF iter  15:  -435.26856768882010    5.11591e-13   6.99674e-10 DIIS
   @RHF iter  16:  -435.26856768882078   -6.82121e-13   2.57460e-10 DIIS
   @RHF iter  17:  -435.26856768882124   -4.54747e-13   1.17875e-10 DIIS
   @RHF iter  18:  -435.26856768882141   -1.70530e-13   5.14783e-11 DIIS
  Energy and wave function converged.

  ==> Post-Iterations <==

    Orbital Energies [Eh]
    ---------------------

    Doubly Occupied:

       1A    -20.356893     2A    -20.298200     3A    -20.284550
       4A    -15.421198     5A    -11.202093     6A    -11.145467
       7A    -11.103776     8A    -11.072557     9A     -1.217172
      10A     -1.183614    11A     -1.067599    12A     -1.056476
      13A     -0.856607    14A     -0.824232    15A     -0.643289
      16A     -0.568519    17A     -0.526578    18A     -0.509542
      19A     -0.471705    20A     -0.440746    21A     -0.436421
      22A     -0.433786    23A     -0.417682    24A     -0.413446
      25A     -0.378602    26A     -0.368214    27A     -0.332801
      28A     -0.268707    29A     -0.249179    30A     -0.218677
      31A     -0.201302    32A     -0.193920

    Virtual:

      33A      0.320516    34A      0.334953    35A      0.336934
      36A      0.355293    37A      0.373246    38A      0.398816
      39A      0.404461    40A      0.423445    41A      0.454952
      42A      0.494947    43A      0.547880    44A      0.556617
      45A      0.600537    46A      0.676550    47A      0.709543
      48A      0.734242    49A      0.773770    50A      0.798446
      51A      0.820646    52A      0.838001    53A      0.850909
      54A      0.860510    55A      0.881675    56A      0.906112
      57A      0.937182    58A      0.959471    59A      0.981468
      60A      0.994423    61A      1.008658    62A      1.012636
      63A      1.018566    64A      1.042852    65A      1.059686
      66A      1.075352    67A      1.078886    68A      1.111762
      69A      1.168475    70A      1.178838    71A      1.196840
      72A      1.206281    73A      1.267826    74A      1.304125
      75A      1.318275    76A      1.356906    77A      1.430202
      78A      1.472053    79A      1.494254    80A      1.510212
      81A      1.522893    82A      1.548363    83A      1.561672
      84A      1.570446    85A      1.579295    86A      1.599523
      87A      1.613158    88A      1.666305    89A      1.698585
      90A      1.703127    91A      1.736817    92A      1.785021
      93A      1.800924    94A      1.817612    95A      1.837378
      96A      1.872237    97A      1.980543    98A      1.999160
      99A      2.019387   100A      2.027887   101A      2.051868
     102A      2.055780   103A      2.084729   104A      2.086860
     105A      2.098511   106A      2.113043   107A      2.158497
     108A      2.181012   109A      2.205822   110A      2.236751
     111A      2.248562   112A      2.301708   113A      2.344332
     114A      2.370361   115A      2.407240   116A      2.423092
     117A      2.452032   118A      2.550576   119A      2.557693
     120A      2.596324   121A      2.613492   122A      2.642863
     123A      2.674709   124A      2.729089   125A      2.757268
     126A      2.784663   127A      2.800089   128A      2.885473
     129A      2.898020   130A      2.922642   131A      2.939585
     132A      2.940769   133A      2.975473   134A      2.981482
     135A      3.142322   136A      3.213455   137A      3.235715
     138A      3.249823   139A      3.266157   140A      3.286861
     141A      3.333005   142A      3.501167   143A      3.613721
     144A      3.643224   145A      3.674517   146A      3.754245
     147A      3.792300   148A      3.996615   149A      4.043424
     150A      4.043656   151A      4.057423   152A      4.188860

    Final Occupation by Irrep:
              A
    DOCC [    32 ]

  @RHF Final Energy:  -435.26856768882141

   => Energetics <=

    Nuclear Repulsion Energy =            351.4907893053894554
    One-Electron Energy =               -1305.1916165628213093
    Two-Electron Energy =                 518.4322595686105615
    Total Energy =                       -435.2685676888213493

Computation Completed

Properties will be evaluated at   0.000000,   0.000000,   0.000000 [a0]

Properties computed using the SCF density matrix

  Nuclear Dipole Moment: [e a0]
     X:     4.1355      Y:     2.7549      Z:    -1.9309

  Electronic Dipole Moment: [e a0]
     X:    -3.7078      Y:    -2.8681      Z:     1.0963

  Dipole Moment: [e a0]
     X:     0.4277      Y:    -0.1132      Z:    -0.8346     Total:     0.9446

  Dipole Moment: [D]
     X:     1.0871      Y:    -0.2877      Z:    -2.1214     Total:     2.4010

*** tstop() called on ds3 at Mon Apr 27 07:46:49 2020
Module time:
	user time   =      24.00 seconds =       0.40 minutes
	system time =      11.81 seconds =       0.20 minutes
	total time  =         35 seconds =       0.58 minutes
Total time:
	user time   =      24.00 seconds =       0.40 minutes
	system time =      11.81 seconds =       0.20 minutes
	total time  =         35 seconds =       0.58 minutes
                                     G D M A

                                 by Anthony Stone

                           version 2.2.06, 22 June 2011

               Distributed Multipoles from Gaussian wavefunctions

Starting at 7:46:49 on 27 Apr 2020

Using SCF density matrix from file ./SSI/SSI-017GLN-094ASP-1-dimer.test.32611.fchk

                         Distributed Multipole Analysis

Standard DMA

Positions and radii in angstrom
Multipole moments in atomic units, ea_0^k for rank k

C          x =  0.717790  y = -2.335712  z = -0.929067 angstrom
           Maximum rank =  0   Radius =  0.650 angstrom
                   Q00  =  -0.259510

C          x = -0.776210  y = -2.097712  z = -0.754067 angstrom
           Maximum rank =  0   Radius =  0.650 angstrom
                   Q00  =   0.841762

O          x = -1.616210  y = -2.939712  z = -1.109067 angstrom
           Maximum rank =  0   Radius =  0.650 angstrom
                   Q00  =  -0.882120

N          x = -1.127210  y = -0.955712  z = -0.210067 angstrom
           Maximum rank =  0   Radius =  0.650 angstrom
                   Q00  =  -0.538341

H          x = -2.101210  y = -0.775712  z = -0.002067 angstrom
           Maximum rank =  0   Radius =  0.325 angstrom
                   Q00  =   0.191860

H          x = -0.408210  y = -0.244712  z = -0.044067 angstrom
           Maximum rank =  0   Radius =  0.325 angstrom
                   Q00  =   0.307233

H          x =  0.935790  y = -3.329712  z = -0.540067 angstrom
           Maximum rank =  0   Radius =  0.325 angstrom
                   Q00  =   0.089789

H          x =  1.289790  y = -1.613712  z = -0.346067 angstrom
           Maximum rank =  0   Radius =  0.325 angstrom
                   Q00  =   0.122747

H          x =  1.014090  y = -2.273292  z = -1.986569 angstrom
           Maximum rank =  0   Radius =  0.325 angstrom
                   Q00  =   0.105415

C          x =  1.106790  y =  3.386288  z =  0.365933 angstrom
           Maximum rank =  0   Radius =  0.650 angstrom
                   Q00  =  -0.268228

C          x =  0.707790  y =  1.993288  z =  0.770933 angstrom
           Maximum rank =  0   Radius =  0.650 angstrom
                   Q00  =   0.937063

O          x =  0.964790  y =  1.033288  z =  0.009933 angstrom
           Maximum rank =  0   Radius =  0.650 angstrom
                   Q00  =  -0.950376

O          x =  0.042790  y =  1.848288  z =  1.822933 angstrom
           Maximum rank =  0   Radius =  0.650 angstrom
                   Q00  =  -0.913835

H          x =  1.453790  y =  3.405288  z = -0.667067 angstrom
           Maximum rank =  0   Radius =  0.325 angstrom
                   Q00  =   0.059235

H          x =  1.947790  y =  3.674288  z =  0.998933 angstrom
           Maximum rank =  0   Radius =  0.325 angstrom
                   Q00  =   0.084238

H          x =  0.279090  y =  4.093598  z =  0.522873 angstrom
           Maximum rank =  0   Radius =  0.325 angstrom
                   Q00  =   0.073069

Total multipoles referred to origin at
           x =   0.000000,  y =    0.000000,  z =    0.000000 angstrom
                   Q00  =  -1.000000

Finished at 7:46:49 on 27 Apr 2020

  DMA results are available in the Python driver through the
	  variable('DMA DISTRIBUTED MULTIPOLES')
  and
	  variable('DMA TOTAL MULTIPOLES')
  commands.

    Psi4 stopped on: Monday, 27 April 2020 07:46AM
    Psi4 wall time for execution: 0:00:34.94

*** Psi4 exiting successfully. Buy a developer a beer!
