                               Psi4 1.3.2 release

  ==> Input File <==

--------------------------------------------------------------------------
import numpy as np
set {scf_type pk
basis cc-pvdz
d_convergence 10
gdma_switch   0
gdma_limit    0
gdma_origin   [ 0.0,  0.0,  0.0 ]
}
molecule test {
    units Angstrom
    0 1
    --
    0 1
    C               -0.244214183749831     0.260316695781916     3.026924743456394
    C               -0.892214183749831    -1.313683304218084     1.033924743456394
    C               -0.041214183749831    -0.782683304218084     1.955924743456394
    C                1.095785816250169    -2.211683304218083     0.722924743456394
    N               -0.151214183749831    -2.180683304218083     0.269924743456394
    N                1.199785816250169    -1.355683304218084     1.740924743456393
    H               -1.927214183749831    -1.066683304218084     0.876924743456394
    H               -0.412214183749831    -2.376683304218083    -0.681075256543606
    H                0.333785816250169     1.137316695781916     2.731924743456393
    H                0.176785816250169    -0.113683304218084     3.956924743456393
    H                1.929785816250169    -2.728683304218084     0.261924743456394
    H               -1.284984183749831     0.570166695781916     3.202434743456394
    C                0.823785816250169     1.237316695781916    -0.924075256543606
    C               -1.706214183749831     1.577316695781916    -2.012075256543607
    S                0.041785816250169     1.910316695781916    -2.390075256543606
    H                0.597785816250169     0.175316695781916    -0.845075256543606
    H                1.903785816250169     1.361316695781916    -1.001075256543607
    H                0.473785816250169     1.758316695781917    -0.033075256543606
    H               -1.822214183749831     0.514316695781916    -1.795075256543607
    H               -2.288214183749831     1.809316695781916    -2.906075256543606
    H               -2.094124183749831     2.174926695781917    -1.173985256543606

}
e, wfn = energy('scf', return_wfn=True)
gdma(wfn)
dmavals = variable('DMA DISTRIBUTED MULTIPOLES')
charges = np.array(dmavals)
print(charges)
np.save('SSI-033HIE-060MET-2-dimer.npy', np.array(charges))--------------------------------------------------------------------------

*** tstart() called on ds3
*** at Tue Apr 28 11:44:50 2020

   => Loading Basis Set <=

    Name: CC-PVDZ
    Role: ORBITAL
    Keyword: BASIS
    atoms 1-4, 13-14  entry C          line   138 file /theoryfs2/ds/metcalf/miniconda2/envs/tf2gpu/share/psi4/basis/cc-pvdz.gbs
    atoms 5-6         entry N          line   168 file /theoryfs2/ds/metcalf/miniconda2/envs/tf2gpu/share/psi4/basis/cc-pvdz.gbs
    atoms 7-12, 16-21 entry H          line    22 file /theoryfs2/ds/metcalf/miniconda2/envs/tf2gpu/share/psi4/basis/cc-pvdz.gbs
    atoms 15          entry S          line   598 file /theoryfs2/ds/metcalf/miniconda2/envs/tf2gpu/share/psi4/basis/cc-pvdz.gbs

         ---------------------------------------------------------
                                   SCF
               by Justin Turney, Rob Parrish, Andy Simmonett
                          and Daniel G. A. Smith
                              RHF Reference
                        1 Threads,    500 MiB Core
         ---------------------------------------------------------

  ==> Geometry <==

    Molecular point group: c1
    Full point group: C1

    Geometry (in Angstrom), charge = 0, multiplicity = 1:

       Center              X                  Y                   Z               Mass
    ------------   -----------------  -----------------  -----------------  -----------------
         C           -0.244214183750     0.260316695782     3.026924743456    12.000000000000
         C           -0.892214183750    -1.313683304218     1.033924743456    12.000000000000
         C           -0.041214183750    -0.782683304218     1.955924743456    12.000000000000
         C            1.095785816250    -2.211683304218     0.722924743456    12.000000000000
         N           -0.151214183750    -2.180683304218     0.269924743456    14.003074004430
         N            1.199785816250    -1.355683304218     1.740924743456    14.003074004430
         H           -1.927214183750    -1.066683304218     0.876924743456     1.007825032230
         H           -0.412214183750    -2.376683304218    -0.681075256544     1.007825032230
         H            0.333785816250     1.137316695782     2.731924743456     1.007825032230
         H            0.176785816250    -0.113683304218     3.956924743456     1.007825032230
         H            1.929785816250    -2.728683304218     0.261924743456     1.007825032230
         H           -1.284984183750     0.570166695782     3.202434743456     1.007825032230
         C            0.823785816250     1.237316695782    -0.924075256544    12.000000000000
         C           -1.706214183750     1.577316695782    -2.012075256544    12.000000000000
         S            0.041785816250     1.910316695782    -2.390075256544    31.972071174400
         H            0.597785816250     0.175316695782    -0.845075256544     1.007825032230
         H            1.903785816250     1.361316695782    -1.001075256544     1.007825032230
         H            0.473785816250     1.758316695782    -0.033075256544     1.007825032230
         H           -1.822214183750     0.514316695782    -1.795075256544     1.007825032230
         H           -2.288214183750     1.809316695782    -2.906075256544     1.007825032230
         H           -2.094124183750     2.174926695782    -1.173985256544     1.007825032230

  Running in c1 symmetry.

  Rotational constants: A =      0.06742  B =      0.01984  C =      0.01877 [cm^-1]
  Rotational constants: A =   2021.07543  B =    594.75920  C =    562.75122 [MHz]
  Nuclear repulsion =  504.393380051717770

  Charge       = 0
  Multiplicity = 1
  Electrons    = 78
  Nalpha       = 39
  Nbeta        = 39

  ==> Algorithm <==

  SCF Algorithm Type is PK.
  DIIS enabled.
  MOM disabled.
  Fractional occupation disabled.
  Guess Type is SAD.
  Energy threshold   = 1.00e-06
  Density threshold  = 1.00e-10
  Integral threshold = 0.00e+00

  ==> Primary Basis <==

  Basis Set: CC-PVDZ
    Blend: CC-PVDZ
    Number of shells: 92
    Number of basis function: 190
    Number of Cartesian functions: 199
    Spherical Harmonics?: true
    Max angular momentum: 2

  ==> Pre-Iterations <==

   -------------------------------------------------------
    Irrep   Nso     Nmo     Nalpha   Nbeta   Ndocc  Nsocc
   -------------------------------------------------------
     A        190     190       0       0       0       0
   -------------------------------------------------------
    Total     190     190      39      39      39       0
   -------------------------------------------------------

  ==> Integral Setup <==

  Using integral reordering PK algorithm.
  Sizing the integral batches needed.
  Building batch lookup table.
   Calculation information:
      Number of atoms:                  21
      Number of AO shells:              92
      Number of primitives:            286
      Number of atomic orbitals:       199
      Number of basis functions:       190

      Integral cutoff                 1.00e-12
      Number of threads:                 1

	Batch   1 pq = [       0,    9405] index = [             0,44231715] size =     44231715
	Batch   2 pq = [    9405,   13301] index = [      44231715,88464951] size =     44233236
	Batch   3 pq = [   13301,   16290] index = [      88464951,132690195] size =     44225244
	Batch   4 pq = [   16290,   18145] index = [     132690195,164629585] size =     31939390
  Task number: 15
  Buffer size: 11059200
  Buffer per thread: 2
  We computed 8231570 shell quartets total.
  Whereas there are 9152781 unique shell quartets.

  ==> DiskJK: Disk-Based J/K Matrices <==

    J tasked:                  Yes
    K tasked:                  Yes
    wK tasked:                  No
    Memory [MiB]:              375
    Schwarz Cutoff:          1E-12

    OpenMP threads:              1

  Minimum eigenvalue in the overlap matrix is 1.1279494980E-03.
  Using Symmetric Orthogonalization.

  SCF Guess: Superposition of Atomic Densities via on-the-fly atomic UHF.

  ==> Iterations <==

                        Total Energy        Delta E     RMS |[F,P]|

   @RHF iter SAD:  -739.73951101624607   -7.39740e+02   0.00000e+00
   @RHF iter   1:  -740.42465720982489   -6.85146e-01   2.86323e-03 DIIS
   @RHF iter   2:  -740.58533848496506   -1.60681e-01   1.42476e-03 DIIS
   @RHF iter   3:  -740.61959706822279   -3.42586e-02   4.17593e-04 DIIS
   @RHF iter   4:  -740.62353776132340   -3.94069e-03   1.49583e-04 DIIS
   @RHF iter   5:  -740.62401901179521   -4.81250e-04   2.73790e-05 DIIS
   @RHF iter   6:  -740.62404403524067   -2.50234e-05   1.10796e-05 DIIS
   @RHF iter   7:  -740.62404851829888   -4.48306e-06   4.05649e-06 DIIS
   @RHF iter   8:  -740.62404948347887   -9.65180e-07   1.64337e-06 DIIS
   @RHF iter   9:  -740.62404968717226   -2.03693e-07   5.85474e-07 DIIS
   @RHF iter  10:  -740.62404970612693   -1.89547e-08   1.92037e-07 DIIS
   @RHF iter  11:  -740.62404970866680   -2.53988e-09   7.76927e-08 DIIS
   @RHF iter  12:  -740.62404970900502   -3.38218e-10   3.31701e-08 DIIS
   @RHF iter  13:  -740.62404970905823   -5.32054e-11   1.07314e-08 DIIS
   @RHF iter  14:  -740.62404970906766   -9.43601e-12   3.49788e-09 DIIS
   @RHF iter  15:  -740.62404970906789   -2.27374e-13   1.26249e-09 DIIS
   @RHF iter  16:  -740.62404970906641    1.47793e-12   4.62178e-10 DIIS
   @RHF iter  17:  -740.62404970906653   -1.13687e-13   1.59284e-10 DIIS
   @RHF iter  18:  -740.62404970906471    1.81899e-12   5.31530e-11 DIIS
  Energy and wave function converged.

  ==> Post-Iterations <==

    Orbital Energies [Eh]
    ---------------------

    Doubly Occupied:

       1A    -91.934365     2A    -15.622945     3A    -15.538030
       4A    -11.301071     5A    -11.259650     6A    -11.255149
       7A    -11.251415     8A    -11.248550     9A    -11.230420
      10A     -8.937972    11A     -6.620045    12A     -6.618464
      13A     -6.616232    14A     -1.349684    15A     -1.160453
      16A     -1.058890    17A     -1.034907    18A     -0.949265
      19A     -0.947216    20A     -0.823733    21A     -0.803424
      22A     -0.770569    23A     -0.745025    24A     -0.626686
      25A     -0.609664    26A     -0.603955    27A     -0.597303
      28A     -0.593881    29A     -0.570007    30A     -0.563899
      31A     -0.553687    32A     -0.540941    33A     -0.529157
      34A     -0.493733    35A     -0.425318    36A     -0.419596
      37A     -0.385251    38A     -0.330737    39A     -0.316752

    Virtual:

      40A      0.148157    41A      0.169912    42A      0.180995
      43A      0.185993    44A      0.211058    45A      0.217257
      46A      0.226592    47A      0.233738    48A      0.245534
      49A      0.252779    50A      0.262772    51A      0.271055
      52A      0.280441    53A      0.289809    54A      0.316002
      55A      0.336233    56A      0.378314    57A      0.386281
      58A      0.407637    59A      0.481409    60A      0.487591
      61A      0.500090    62A      0.566034    63A      0.578105
      64A      0.599151    65A      0.614607    66A      0.627799
      67A      0.634397    68A      0.658297    69A      0.671342
      70A      0.698699    71A      0.705035    72A      0.725240
      73A      0.734029    74A      0.750424    75A      0.766659
      76A      0.768711    77A      0.794512    78A      0.804310
      79A      0.816135    80A      0.834030    81A      0.841192
      82A      0.852211    83A      0.870810    84A      0.876162
      85A      0.881572    86A      0.891184    87A      0.895273
      88A      0.899392    89A      0.908466    90A      0.916286
      91A      0.928634    92A      0.939859    93A      0.950508
      94A      0.954064    95A      0.969471    96A      0.981023
      97A      1.002137    98A      1.028059    99A      1.076294
     100A      1.100231   101A      1.116076   102A      1.128472
     103A      1.143825   104A      1.171678   105A      1.220677
     106A      1.227527   107A      1.253509   108A      1.280668
     109A      1.296269   110A      1.304194   111A      1.307993
     112A      1.314920   113A      1.337213   114A      1.378189
     115A      1.394163   116A      1.430924   117A      1.437745
     118A      1.472852   119A      1.475483   120A      1.504233
     121A      1.517512   122A      1.587174   123A      1.596234
     124A      1.651782   125A      1.667533   126A      1.676983
     127A      1.689312   128A      1.714454   129A      1.770010
     130A      1.797973   131A      1.811510   132A      1.854246
     133A      1.873277   134A      1.888882   135A      1.894858
     136A      1.911125   137A      1.916570   138A      1.923985
     139A      1.940537   140A      1.949801   141A      1.962333
     142A      1.975746   143A      1.988998   144A      1.994081
     145A      2.012372   146A      2.018064   147A      2.044522
     148A      2.055302   149A      2.068475   150A      2.104203
     151A      2.118334   152A      2.133259   153A      2.140428
     154A      2.188161   155A      2.222174   156A      2.229150
     157A      2.245139   158A      2.285056   159A      2.364181
     160A      2.400317   161A      2.404577   162A      2.426790
     163A      2.437077   164A      2.451201   165A      2.475856
     166A      2.501107   167A      2.512200   168A      2.522031
     169A      2.597261   170A      2.677071   171A      2.706549
     172A      2.718259   173A      2.728070   174A      2.766065
     175A      2.768837   176A      2.782521   177A      2.791240
     178A      2.799177   179A      2.818181   180A      2.837465
     181A      2.847690   182A      2.864960   183A      2.899629
     184A      2.951103   185A      3.026011   186A      3.069816
     187A      3.161870   188A      3.233136   189A      3.453697
     190A      3.720412

    Final Occupation by Irrep:
              A
    DOCC [    39 ]

  @RHF Final Energy:  -740.62404970906471

   => Energetics <=

    Nuclear Repulsion Energy =            504.3933800517177701
    One-Electron Energy =               -2015.5587795382484728
    Two-Electron Energy =                 770.5413497774660527
    Total Energy =                       -740.6240497090647068

Computation Completed

Properties will be evaluated at   0.000000,   0.000000,   0.000000 [a0]

Properties computed using the SCF density matrix

  Nuclear Dipole Moment: [e a0]
     X:    -4.1392      Y:     3.0749      Z:     2.3635

  Electronic Dipole Moment: [e a0]
     X:     3.2200      Y:    -3.6971      Z:    -2.7748

  Dipole Moment: [e a0]
     X:    -0.9192      Y:    -0.6222      Z:    -0.4112     Total:     1.1838

  Dipole Moment: [D]
     X:    -2.3365      Y:    -1.5816      Z:    -1.0453     Total:     3.0088

*** tstop() called on ds3 at Tue Apr 28 11:46:25 2020
Module time:
	user time   =      70.69 seconds =       1.18 minutes
	system time =      26.94 seconds =       0.45 minutes
	total time  =         95 seconds =       1.58 minutes
Total time:
	user time   =      70.69 seconds =       1.18 minutes
	system time =      26.94 seconds =       0.45 minutes
	total time  =         95 seconds =       1.58 minutes
                                     G D M A

                                 by Anthony Stone

                           version 2.2.06, 22 June 2011

               Distributed Multipoles from Gaussian wavefunctions

Starting at 11:46:25 on 28 Apr 2020

Using SCF density matrix from file ./SSI/SSI-033HIE-060MET-2-dimer.test.28207.fchk

                         Distributed Multipole Analysis

Standard DMA

Positions and radii in angstrom
Multipole moments in atomic units, ea_0^k for rank k

C          x = -0.244214  y =  0.260317  z =  3.026925 angstrom
           Maximum rank =  0   Radius =  0.650 angstrom
                   Q00  =  -0.197637

C          x = -0.892214  y = -1.313683  z =  1.033925 angstrom
           Maximum rank =  0   Radius =  0.650 angstrom
                   Q00  =  -0.000168

C          x = -0.041214  y = -0.782683  z =  1.955925 angstrom
           Maximum rank =  0   Radius =  0.650 angstrom
                   Q00  =   0.222452

C          x =  1.095786  y = -2.211683  z =  0.722925 angstrom
           Maximum rank =  0   Radius =  0.650 angstrom
                   Q00  =   0.460362

N          x = -0.151214  y = -2.180683  z =  0.269925 angstrom
           Maximum rank =  0   Radius =  0.650 angstrom
                   Q00  =  -0.469055

N          x =  1.199786  y = -1.355683  z =  1.740925 angstrom
           Maximum rank =  0   Radius =  0.650 angstrom
                   Q00  =  -0.765606

H          x = -1.927214  y = -1.066683  z =  0.876925 angstrom
           Maximum rank =  0   Radius =  0.325 angstrom
                   Q00  =   0.101030

H          x = -0.412214  y = -2.376683  z = -0.681075 angstrom
           Maximum rank =  0   Radius =  0.325 angstrom
                   Q00  =   0.212544

H          x =  0.333786  y =  1.137317  z =  2.731925 angstrom
           Maximum rank =  0   Radius =  0.325 angstrom
                   Q00  =   0.105817

H          x =  0.176786  y = -0.113683  z =  3.956925 angstrom
           Maximum rank =  0   Radius =  0.325 angstrom
                   Q00  =   0.120582

H          x =  1.929786  y = -2.728683  z =  0.261925 angstrom
           Maximum rank =  0   Radius =  0.325 angstrom
                   Q00  =   0.127267

H          x = -1.284984  y =  0.570167  z =  3.202435 angstrom
           Maximum rank =  0   Radius =  0.325 angstrom
                   Q00  =   0.094125

C          x =  0.823786  y =  1.237317  z = -0.924075 angstrom
           Maximum rank =  0   Radius =  0.650 angstrom
                   Q00  =  -0.341708

C          x = -1.706214  y =  1.577317  z = -2.012075 angstrom
           Maximum rank =  0   Radius =  0.650 angstrom
                   Q00  =  -0.360775

S          x =  0.041786  y =  1.910317  z = -2.390075 angstrom
           Maximum rank =  0   Radius =  0.650 angstrom
                   Q00  =   0.112138

H          x =  0.597786  y =  0.175317  z = -0.845075 angstrom
           Maximum rank =  0   Radius =  0.325 angstrom
                   Q00  =   0.078222

H          x =  1.903786  y =  1.361317  z = -1.001075 angstrom
           Maximum rank =  0   Radius =  0.325 angstrom
                   Q00  =   0.120500

H          x =  0.473786  y =  1.758317  z = -0.033075 angstrom
           Maximum rank =  0   Radius =  0.325 angstrom
                   Q00  =   0.090023

H          x = -1.822214  y =  0.514317  z = -1.795075 angstrom
           Maximum rank =  0   Radius =  0.325 angstrom
                   Q00  =   0.077327

H          x = -2.288214  y =  1.809317  z = -2.906075 angstrom
           Maximum rank =  0   Radius =  0.325 angstrom
                   Q00  =   0.119267

H          x = -2.094124  y =  2.174927  z = -1.173985 angstrom
           Maximum rank =  0   Radius =  0.325 angstrom
                   Q00  =   0.093294

Total multipoles referred to origin at
           x =   0.000000,  y =    0.000000,  z =    0.000000 angstrom
                   Q00  =  -0.000000

Finished at 11:46:25 on 28 Apr 2020

  DMA results are available in the Python driver through the
	  variable('DMA DISTRIBUTED MULTIPOLES')
  and
	  variable('DMA TOTAL MULTIPOLES')
  commands.

    Psi4 stopped on: Tuesday, 28 April 2020 11:46AM
    Psi4 wall time for execution: 0:01:35.01

*** Psi4 exiting successfully. Buy a developer a beer!
