                               Psi4 1.3.2 release

  ==> Input File <==

--------------------------------------------------------------------------
import numpy as np
set {scf_type pk
basis cc-pvdz
d_convergence 10
gdma_switch   0
gdma_limit    0
gdma_origin   [ 0.0,  0.0,  0.0 ]
}
molecule test {
    units Angstrom
    0 1
    --
    0 1
    C               -1.053647602785673     1.752903292269997     2.030567003539608
    C                0.439352397214327    -0.181096707730003     0.989567003539607
    C                0.069352397214327     0.733903292269997     2.043567003539608
    C                1.595352397214327    -0.888096707730003     1.423567003539607
    C                0.979352397214327     0.542903292269997     3.040567003539607
    C               -0.084647602785673    -0.475096707730003    -0.277432996460393
    C                0.543352397214327    -1.447096707730003    -1.064432996460393
    C                1.686352397214327    -2.124096707730003    -0.608432996460393
    C                2.224352397214327    -1.854096707730003     0.640567003539607
    N                1.892352397214327    -0.420096707730003     2.675567003539607
    H               -0.984647602785673     0.011903292269997    -0.609432996460393
    H                0.101352397214327    -1.717096707730003    -2.011432996460393
    H                2.145352397214327    -2.873096707730003    -1.241432996460393
    H               -0.886647602785673     2.436903292269997     1.197567003539607
    H               -0.980647602785673     2.336903292269997     2.949567003539607
    H                0.993352397214327     1.093903292269997     3.976567003539607
    H                2.671352397214327    -0.716096707730003     3.255567003539607
    H                3.103352397214327    -2.370096707730003     0.998567003539607
    H               -2.074317602785673     1.350213292269997     1.952607003539607
    C               -2.204647602785673     0.956903292269997    -2.855432996460392
    C               -3.634647602785673     0.776903292269997    -3.313432996460393
    C               -1.454647602785673     1.891903292269997    -3.783432996460392
    H               -2.226647602785673     1.397903292269997    -1.857432996460393
    H               -1.702647602785673    -0.010096707730003    -2.819432996460392
    H               -3.654647602785673     0.288903292269997    -4.291432996460394
    H               -4.073647602785673     1.770903292269997    -3.429432996460393
    H               -1.207647602785673     1.359903292269997    -4.704432996460393
    H               -2.076647602785673     2.759903292269997    -4.013432996460392
    H               -4.244487602785672     0.209493292269997    -2.595002996460393
    H               -0.541247602785673     2.247273292269997    -3.284032996460393

}
e, wfn = energy('scf', return_wfn=True)
gdma(wfn)
dmavals = variable('DMA DISTRIBUTED MULTIPOLES')
charges = np.array(dmavals)
print(charges)
np.save('SSI-006TRP-040LYS-1-dimer.npy', np.array(charges))--------------------------------------------------------------------------

*** tstart() called on ds3
*** at Sun Apr 26 22:33:06 2020

   => Loading Basis Set <=

    Name: CC-PVDZ
    Role: ORBITAL
    Keyword: BASIS
    atoms 1-9, 20-22   entry C          line   138 file /theoryfs2/ds/metcalf/miniconda2/envs/tf2gpu/share/psi4/basis/cc-pvdz.gbs
    atoms 10           entry N          line   168 file /theoryfs2/ds/metcalf/miniconda2/envs/tf2gpu/share/psi4/basis/cc-pvdz.gbs
    atoms 11-19, 23-30 entry H          line    22 file /theoryfs2/ds/metcalf/miniconda2/envs/tf2gpu/share/psi4/basis/cc-pvdz.gbs

         ---------------------------------------------------------
                                   SCF
               by Justin Turney, Rob Parrish, Andy Simmonett
                          and Daniel G. A. Smith
                              RHF Reference
                        1 Threads,    500 MiB Core
         ---------------------------------------------------------

  ==> Geometry <==

    Molecular point group: c1
    Full point group: C1

    Geometry (in Angstrom), charge = 0, multiplicity = 1:

       Center              X                  Y                   Z               Mass
    ------------   -----------------  -----------------  -----------------  -----------------
         C           -1.053647602786     1.752903292270     2.030567003540    12.000000000000
         C            0.439352397214    -0.181096707730     0.989567003540    12.000000000000
         C            0.069352397214     0.733903292270     2.043567003540    12.000000000000
         C            1.595352397214    -0.888096707730     1.423567003540    12.000000000000
         C            0.979352397214     0.542903292270     3.040567003540    12.000000000000
         C           -0.084647602786    -0.475096707730    -0.277432996460    12.000000000000
         C            0.543352397214    -1.447096707730    -1.064432996460    12.000000000000
         C            1.686352397214    -2.124096707730    -0.608432996460    12.000000000000
         C            2.224352397214    -1.854096707730     0.640567003540    12.000000000000
         N            1.892352397214    -0.420096707730     2.675567003540    14.003074004430
         H           -0.984647602786     0.011903292270    -0.609432996460     1.007825032230
         H            0.101352397214    -1.717096707730    -2.011432996460     1.007825032230
         H            2.145352397214    -2.873096707730    -1.241432996460     1.007825032230
         H           -0.886647602786     2.436903292270     1.197567003540     1.007825032230
         H           -0.980647602786     2.336903292270     2.949567003540     1.007825032230
         H            0.993352397214     1.093903292270     3.976567003540     1.007825032230
         H            2.671352397214    -0.716096707730     3.255567003540     1.007825032230
         H            3.103352397214    -2.370096707730     0.998567003540     1.007825032230
         H           -2.074317602786     1.350213292270     1.952607003540     1.007825032230
         C           -2.204647602786     0.956903292270    -2.855432996460    12.000000000000
         C           -3.634647602786     0.776903292270    -3.313432996460    12.000000000000
         C           -1.454647602786     1.891903292270    -3.783432996460    12.000000000000
         H           -2.226647602786     1.397903292270    -1.857432996460     1.007825032230
         H           -1.702647602786    -0.010096707730    -2.819432996460     1.007825032230
         H           -3.654647602786     0.288903292270    -4.291432996460     1.007825032230
         H           -4.073647602786     1.770903292270    -3.429432996460     1.007825032230
         H           -1.207647602786     1.359903292270    -4.704432996460     1.007825032230
         H           -2.076647602786     2.759903292270    -4.013432996460     1.007825032230
         H           -4.244487602786     0.209493292270    -2.595002996460     1.007825032230
         H           -0.541247602786     2.247273292270    -3.284032996460     1.007825032230

  Running in c1 symmetry.

  Rotational constants: A =      0.03678  B =      0.01249  C =      0.00993 [cm^-1]
  Rotational constants: A =   1102.61662  B =    374.40591  C =    297.78923 [MHz]
  Nuclear repulsion =  731.291434863307131

  Charge       = 0
  Multiplicity = 1
  Electrons    = 96
  Nalpha       = 48
  Nbeta        = 48

  ==> Algorithm <==

  SCF Algorithm Type is PK.
  DIIS enabled.
  MOM disabled.
  Fractional occupation disabled.
  Guess Type is SAD.
  Energy threshold   = 1.00e-06
  Density threshold  = 1.00e-10
  Integral threshold = 0.00e+00

  ==> Primary Basis <==

  Basis Set: CC-PVDZ
    Blend: CC-PVDZ
    Number of shells: 129
    Number of basis function: 267
    Number of Cartesian functions: 280
    Spherical Harmonics?: true
    Max angular momentum: 2

  ==> Pre-Iterations <==

   -------------------------------------------------------
    Irrep   Nso     Nmo     Nalpha   Nbeta   Ndocc  Nsocc
   -------------------------------------------------------
     A        267     267       0       0       0       0
   -------------------------------------------------------
    Total     267     267      48      48      48       0
   -------------------------------------------------------

  ==> Integral Setup <==

  Using integral reordering PK algorithm.
  Sizing the integral batches needed.
  Building batch lookup table.
   Calculation information:
      Number of atoms:                  30
      Number of AO shells:             129
      Number of primitives:            371
      Number of atomic orbitals:       280
      Number of basis functions:       267

      Integral cutoff                 1.00e-12
      Number of threads:                 1

	Batch   1 pq = [       0,    9405] index = [             0,44231715] size =     44231715
	Batch   2 pq = [    9405,   13301] index = [      44231715,88464951] size =     44233236
	Batch   3 pq = [   13301,   16290] index = [      88464951,132690195] size =     44225244
	Batch   4 pq = [   16290,   18810] index = [     132690195,176917455] size =     44227260
	Batch   5 pq = [   18810,   21030] index = [     176917455,221140965] size =     44223510
	Batch   6 pq = [   21030,   23037] index = [     221140965,265363203] size =     44222238
	Batch   7 pq = [   23037,   24883] index = [     265363203,309594286] size =     44231083
	Batch   8 pq = [   24883,   26601] index = [     309594286,353819901] size =     44225615
	Batch   9 pq = [   26601,   28214] index = [     353819901,398029005] size =     44209104
	Batch  10 pq = [   28214,   29740] index = [     398029005,442248670] size =     44219665
	Batch  11 pq = [   29740,   31191] index = [     442248670,486454836] size =     44206166
	Batch  12 pq = [   31191,   32578] index = [     486454836,530679331] size =     44224495
	Batch  13 pq = [   32578,   33908] index = [     530679331,574893186] size =     44213855
	Batch  14 pq = [   33908,   35188] index = [     574893186,619115266] size =     44222080
	Batch  15 pq = [   35188,   35778] index = [     619115266,640050531] size =     20935265
  Task number: 58
  Buffer size: 11059200
  Buffer per thread: 2
  We computed 30741067 shell quartets total.
  Whereas there are 35158305 unique shell quartets.

  ==> DiskJK: Disk-Based J/K Matrices <==

    J tasked:                  Yes
    K tasked:                  Yes
    wK tasked:                  No
    Memory [MiB]:              375
    Schwarz Cutoff:          1E-12

    OpenMP threads:              1

  Minimum eigenvalue in the overlap matrix is 2.3188931155E-04.
  Using Symmetric Orthogonalization.

  SCF Guess: Superposition of Atomic Densities via on-the-fly atomic UHF.

  ==> Iterations <==

                        Total Energy        Delta E     RMS |[F,P]|

   @RHF iter SAD:  -518.03633018075470   -5.18036e+02   0.00000e+00
   @RHF iter   1:  -518.49155626632262   -4.55226e-01   2.49893e-03 DIIS
   @RHF iter   2:  -518.75111160688721   -2.59555e-01   1.10938e-03 DIIS
   @RHF iter   3:  -518.79772938739154   -4.66178e-02   2.83904e-04 DIIS
   @RHF iter   4:  -518.80187825373741   -4.14887e-03   1.28981e-04 DIIS
   @RHF iter   5:  -518.80254240122417   -6.64147e-04   1.97599e-05 DIIS
   @RHF iter   6:  -518.80257406840678   -3.16672e-05   8.65876e-06 DIIS
   @RHF iter   7:  -518.80258050014004   -6.43173e-06   3.47882e-06 DIIS
   @RHF iter   8:  -518.80258219020720   -1.69007e-06   1.47210e-06 DIIS
   @RHF iter   9:  -518.80258256676495   -3.76558e-07   6.46934e-07 DIIS
   @RHF iter  10:  -518.80258264466033   -7.78954e-08   2.86318e-07 DIIS
   @RHF iter  11:  -518.80258266251064   -1.78503e-08   1.09004e-07 DIIS
   @RHF iter  12:  -518.80258266496753   -2.45689e-09   4.07164e-08 DIIS
   @RHF iter  13:  -518.80258266517444   -2.06910e-10   1.14635e-08 DIIS
   @RHF iter  14:  -518.80258266518695   -1.25056e-11   4.29365e-09 DIIS
   @RHF iter  15:  -518.80258266519206   -5.11591e-12   2.26046e-09 DIIS
   @RHF iter  16:  -518.80258266519286   -7.95808e-13   9.91664e-10 DIIS
   @RHF iter  17:  -518.80258266519036    2.50111e-12   4.38801e-10 DIIS
   @RHF iter  18:  -518.80258266518751    2.84217e-12   1.70348e-10 DIIS
   @RHF iter  19:  -518.80258266519070   -3.18323e-12   6.11918e-11 DIIS
  Energy and wave function converged.

  ==> Post-Iterations <==

    Orbital Energies [Eh]
    ---------------------

    Doubly Occupied:

       1A    -15.600918     2A    -11.264971     3A    -11.264135
       4A    -11.230460     5A    -11.229333     6A    -11.229236
       7A    -11.228599     8A    -11.220774     9A    -11.220695
      10A    -11.219815    11A    -11.216131    12A    -11.213608
      13A    -11.213217    14A     -1.293762    15A     -1.124921
      16A     -1.069609    17A     -1.059322    18A     -0.994264
      19A     -0.986031    20A     -0.929714    21A     -0.921106
      22A     -0.838704    23A     -0.801942    24A     -0.795095
      25A     -0.751936    26A     -0.718158    27A     -0.662895
      28A     -0.640274    29A     -0.630926    30A     -0.602507
      31A     -0.596587    32A     -0.589451    33A     -0.586307
      34A     -0.564675    35A     -0.551640    36A     -0.545488
      37A     -0.536437    38A     -0.528526    39A     -0.527942
      40A     -0.494660    41A     -0.474974    42A     -0.469575
      43A     -0.468325    44A     -0.461836    45A     -0.458758
      46A     -0.371506    47A     -0.293114    48A     -0.275418

    Virtual:

      49A      0.126154    50A      0.168579    51A      0.172312
      52A      0.181150    53A      0.190850    54A      0.205516
      55A      0.216409    56A      0.227581    57A      0.230078
      58A      0.231052    59A      0.245381    60A      0.256091
      61A      0.262279    62A      0.276650    63A      0.284179
      64A      0.290435    65A      0.298136    66A      0.312665
      67A      0.331054    68A      0.341589    69A      0.370834
      70A      0.378324    71A      0.392632    72A      0.406606
      73A      0.425399    74A      0.430475    75A      0.453546
      76A      0.480151    77A      0.483932    78A      0.509429
      79A      0.519404    80A      0.584251    81A      0.593171
      82A      0.604641    83A      0.616297    84A      0.619748
      85A      0.620394    86A      0.631063    87A      0.635366
      88A      0.670236    89A      0.689560    90A      0.699851
      91A      0.710816    92A      0.727265    93A      0.728486
      94A      0.736634    95A      0.744786    96A      0.746139
      97A      0.757089    98A      0.772367    99A      0.778109
     100A      0.784756   101A      0.792095   102A      0.801210
     103A      0.806326   104A      0.811017   105A      0.832875
     106A      0.844536   107A      0.870105   108A      0.880604
     109A      0.884979   110A      0.889180   111A      0.892204
     112A      0.896575   113A      0.899283   114A      0.902215
     115A      0.903609   116A      0.908493   117A      0.913653
     118A      0.915417   119A      0.924024   120A      0.947119
     121A      0.956855   122A      0.966577   123A      0.977232
     124A      0.989526   125A      0.994059   126A      0.998378
     127A      1.016543   128A      1.035018   129A      1.067626
     130A      1.069822   131A      1.090167   132A      1.119809
     133A      1.124848   134A      1.134593   135A      1.141765
     136A      1.155576   137A      1.169782   138A      1.204029
     139A      1.208351   140A      1.224927   141A      1.231425
     142A      1.239525   143A      1.244050   144A      1.262385
     145A      1.285370   146A      1.297268   147A      1.303622
     148A      1.328321   149A      1.334247   150A      1.358566
     151A      1.378249   152A      1.386969   153A      1.431243
     154A      1.451493   155A      1.479813   156A      1.498935
     157A      1.519480   158A      1.545130   159A      1.573164
     160A      1.589141   161A      1.595946   162A      1.623052
     163A      1.645882   164A      1.655392   165A      1.667932
     166A      1.675017   167A      1.684193   168A      1.694409
     169A      1.695277   170A      1.711974   171A      1.738981
     172A      1.759259   173A      1.780622   174A      1.788546
     175A      1.808377   176A      1.822585   177A      1.826109
     178A      1.866020   179A      1.872955   180A      1.882229
     181A      1.889005   182A      1.897176   183A      1.907092
     184A      1.914481   185A      1.916682   186A      1.926054
     187A      1.929702   188A      1.939728   189A      1.945417
     190A      1.957081   191A      1.964012   192A      1.967377
     193A      1.978642   194A      1.986228   195A      1.994594
     196A      1.999242   197A      2.002605   198A      2.011303
     199A      2.028663   200A      2.034342   201A      2.047321
     202A      2.065781   203A      2.075654   204A      2.083883
     205A      2.088713   206A      2.100513   207A      2.107621
     208A      2.121300   209A      2.134691   210A      2.137728
     211A      2.158837   212A      2.165085   213A      2.181259
     214A      2.193005   215A      2.237495   216A      2.243493
     217A      2.292750   218A      2.294594   219A      2.301905
     220A      2.309228   221A      2.321726   222A      2.326232
     223A      2.334714   224A      2.353726   225A      2.360802
     226A      2.394238   227A      2.428609   228A      2.453005
     229A      2.468596   230A      2.504575   231A      2.529870
     232A      2.550114   233A      2.571607   234A      2.580765
     235A      2.601668   236A      2.623485   237A      2.634272
     238A      2.644916   239A      2.655087   240A      2.679765
     241A      2.694197   242A      2.760038   243A      2.767952
     244A      2.775628   245A      2.783589   246A      2.788419
     247A      2.789491   248A      2.807012   249A      2.821800
     250A      2.828430   251A      2.873562   252A      2.878802
     253A      2.899196   254A      2.912748   255A      2.960455
     256A      2.969684   257A      2.978513   258A      3.029272
     259A      3.049407   260A      3.069531   261A      3.103488
     262A      3.118826   263A      3.202006   264A      3.298195
     265A      3.374942   266A      3.733528   267A      3.940130

    Final Occupation by Irrep:
              A
    DOCC [    48 ]

  @RHF Final Energy:  -518.80258266519070

   => Energetics <=

    Nuclear Repulsion Energy =            731.2914348633071313
    One-Electron Energy =               -2152.2514788139665143
    Two-Electron Energy =                 902.1574612854686848
    Total Energy =                       -518.8025826651906982

Computation Completed

Properties will be evaluated at   0.000000,   0.000000,   0.000000 [a0]

Properties computed using the SCF density matrix

  Nuclear Dipole Moment: [e a0]
     X:   -14.6667      Y:     8.9800      Z:   -15.5009

  Electronic Dipole Moment: [e a0]
     X:    15.0756      Y:    -8.8840      Z:    16.2079

  Dipole Moment: [e a0]
     X:     0.4089      Y:     0.0959      Z:     0.7071     Total:     0.8224

  Dipole Moment: [D]
     X:     1.0393      Y:     0.2438      Z:     1.7972     Total:     2.0903

*** tstop() called on ds3 at Sun Apr 26 22:44:30 2020
Module time:
	user time   =     239.56 seconds =       3.99 minutes
	system time =     102.73 seconds =       1.71 minutes
	total time  =        684 seconds =      11.40 minutes
Total time:
	user time   =     239.56 seconds =       3.99 minutes
	system time =     102.73 seconds =       1.71 minutes
	total time  =        684 seconds =      11.40 minutes
                                     G D M A

                                 by Anthony Stone

                           version 2.2.06, 22 June 2011

               Distributed Multipoles from Gaussian wavefunctions

Starting at 22:44:30 on 26 Apr 2020

Using SCF density matrix from file ./SSI/SSI-006TRP-040LYS-1-dimer.test.12687.fchk

                         Distributed Multipole Analysis

Standard DMA

Positions and radii in angstrom
Multipole moments in atomic units, ea_0^k for rank k

C          x = -1.053648  y =  1.752903  z =  2.030567 angstrom
           Maximum rank =  0   Radius =  0.650 angstrom
                   Q00  =  -0.206462

C          x =  0.439352  y = -0.181097  z =  0.989567 angstrom
           Maximum rank =  0   Radius =  0.650 angstrom
                   Q00  =  -0.055421

C          x =  0.069352  y =  0.733903  z =  2.043567 angstrom
           Maximum rank =  0   Radius =  0.650 angstrom
                   Q00  =  -0.127729

C          x =  1.595352  y = -0.888097  z =  1.423567 angstrom
           Maximum rank =  0   Radius =  0.650 angstrom
                   Q00  =   0.293899

C          x =  0.979352  y =  0.542903  z =  3.040567 angstrom
           Maximum rank =  0   Radius =  0.650 angstrom
                   Q00  =   0.073203

C          x = -0.084648  y = -0.475097  z = -0.277433 angstrom
           Maximum rank =  0   Radius =  0.650 angstrom
                   Q00  =  -0.089367

C          x =  0.543352  y = -1.447097  z = -1.064433 angstrom
           Maximum rank =  0   Radius =  0.650 angstrom
                   Q00  =  -0.087651

C          x =  1.686352  y = -2.124097  z = -0.608433 angstrom
           Maximum rank =  0   Radius =  0.650 angstrom
                   Q00  =  -0.072202

C          x =  2.224352  y = -1.854097  z =  0.640567 angstrom
           Maximum rank =  0   Radius =  0.650 angstrom
                   Q00  =  -0.122357

N          x =  1.892352  y = -0.420097  z =  2.675567 angstrom
           Maximum rank =  0   Radius =  0.650 angstrom
                   Q00  =  -0.496047

H          x = -0.984648  y =  0.011903  z = -0.609433 angstrom
           Maximum rank =  0   Radius =  0.325 angstrom
                   Q00  =   0.073978

H          x =  0.101352  y = -1.717097  z = -2.011433 angstrom
           Maximum rank =  0   Radius =  0.325 angstrom
                   Q00  =   0.057906

H          x =  2.145352  y = -2.873097  z = -1.241433 angstrom
           Maximum rank =  0   Radius =  0.325 angstrom
                   Q00  =   0.064947

H          x = -0.886648  y =  2.436903  z =  1.197567 angstrom
           Maximum rank =  0   Radius =  0.325 angstrom
                   Q00  =   0.098035

H          x = -0.980648  y =  2.336903  z =  2.949567 angstrom
           Maximum rank =  0   Radius =  0.325 angstrom
                   Q00  =   0.103215

H          x =  0.993352  y =  1.093903  z =  3.976567 angstrom
           Maximum rank =  0   Radius =  0.325 angstrom
                   Q00  =   0.101479

H          x =  2.671352  y = -0.716097  z =  3.255567 angstrom
           Maximum rank =  0   Radius =  0.325 angstrom
                   Q00  =   0.216346

H          x =  3.103352  y = -2.370097  z =  0.998567 angstrom
           Maximum rank =  0   Radius =  0.325 angstrom
                   Q00  =   0.073258

H          x = -2.074318  y =  1.350213  z =  1.952607 angstrom
           Maximum rank =  0   Radius =  0.325 angstrom
                   Q00  =   0.099521

C          x = -2.204648  y =  0.956903  z = -2.855433 angstrom
           Maximum rank =  0   Radius =  0.650 angstrom
                   Q00  =  -0.077066

C          x = -3.634648  y =  0.776903  z = -3.313433 angstrom
           Maximum rank =  0   Radius =  0.650 angstrom
                   Q00  =  -0.233365

C          x = -1.454648  y =  1.891903  z = -3.783433 angstrom
           Maximum rank =  0   Radius =  0.650 angstrom
                   Q00  =  -0.234241

H          x = -2.226648  y =  1.397903  z = -1.857433 angstrom
           Maximum rank =  0   Radius =  0.325 angstrom
                   Q00  =   0.036674

H          x = -1.702648  y = -0.010097  z = -2.819433 angstrom
           Maximum rank =  0   Radius =  0.325 angstrom
                   Q00  =   0.047069

H          x = -3.654648  y =  0.288903  z = -4.291433 angstrom
           Maximum rank =  0   Radius =  0.325 angstrom
                   Q00  =   0.073764

H          x = -4.073648  y =  1.770903  z = -3.429433 angstrom
           Maximum rank =  0   Radius =  0.325 angstrom
                   Q00  =   0.070754

H          x = -1.207648  y =  1.359903  z = -4.704433 angstrom
           Maximum rank =  0   Radius =  0.325 angstrom
                   Q00  =   0.077942

H          x = -2.076648  y =  2.759903  z = -4.013433 angstrom
           Maximum rank =  0   Radius =  0.325 angstrom
                   Q00  =   0.072990

H          x = -4.244488  y =  0.209493  z = -2.595003 angstrom
           Maximum rank =  0   Radius =  0.325 angstrom
                   Q00  =   0.082757

H          x = -0.541248  y =  2.247273  z = -3.284033 angstrom
           Maximum rank =  0   Radius =  0.325 angstrom
                   Q00  =   0.084170

Total multipoles referred to origin at
           x =   0.000000,  y =    0.000000,  z =    0.000000 angstrom
                   Q00  =  -0.000000

Finished at 22:44:30 on 26 Apr 2020

  DMA results are available in the Python driver through the
	  variable('DMA DISTRIBUTED MULTIPOLES')
  and
	  variable('DMA TOTAL MULTIPOLES')
  commands.

    Psi4 stopped on: Sunday, 26 April 2020 10:44PM
    Psi4 wall time for execution: 0:11:23.82

*** Psi4 exiting successfully. Buy a developer a beer!
