                               Psi4 1.3.2 release

  ==> Input File <==

--------------------------------------------------------------------------
import numpy as np
set {scf_type pk
basis cc-pvdz
d_convergence 10
gdma_switch   0
gdma_limit    0
gdma_origin   [ 0.0,  0.0,  0.0 ]
}
molecule test {
    units Angstrom
    1 1
    --
    1 1
    C                0.461996993425350    -1.551987539694272     1.983380697738176
    C               -0.492003006574651     0.425012460305729     0.828380697738175
    N               -0.514003006574650    -0.868987539694272     1.122380697738176
    N                0.452996993425349     1.207012460305729     1.321380697738176
    N               -1.409003006574651     0.936012460305728     0.027380697738176
    H               -1.211003006574650    -1.441987539694271     0.643380697738176
    H                1.141996993425350     0.826012460305729     1.946380697738176
    H                0.465996993425350     2.191012460305729     1.104380697738176
    H               -2.111003006574650     0.310012460305729    -0.375619302261824
    H               -1.426003006574651     1.919012460305729    -0.183619302261824
    H                0.006996993425350    -2.454987539694272     2.392380697738175
    H                0.717996993425350    -0.924987539694271     2.839380697738175
    H                1.382236993425350    -1.812554539694271     1.439990697738176
    C                1.311996993425350     0.271012460305729    -2.269619302261825
    C                0.150996993425350    -0.465987539694271    -2.938619302261825
    H                1.992996993425350     0.649012460305728    -3.031619302261825
    H                0.934996993425349     1.112012460305728    -1.690619302261824
    H                1.854996993425349    -0.403987539694271    -1.610619302261824
    H               -0.532003006574650    -0.796987539694271    -2.158619302261824
    H                0.532246993425350    -1.337407539694272    -3.491139302261825
    H               -0.387973006574650     0.204137460305729    -3.624509302261825

}
e, wfn = energy('scf', return_wfn=True)
gdma(wfn)
dmavals = variable('DMA DISTRIBUTED MULTIPOLES')
charges = np.array(dmavals)
print(charges)
np.save('SSI-073ARG-076LEU-1-dimer.npy', np.array(charges))--------------------------------------------------------------------------

*** tstart() called on ds3
*** at Tue Apr 28 12:18:29 2020

   => Loading Basis Set <=

    Name: CC-PVDZ
    Role: ORBITAL
    Keyword: BASIS
    atoms 1-2, 14-15  entry C          line   138 file /theoryfs2/ds/metcalf/miniconda2/envs/tf2gpu/share/psi4/basis/cc-pvdz.gbs
    atoms 3-5         entry N          line   168 file /theoryfs2/ds/metcalf/miniconda2/envs/tf2gpu/share/psi4/basis/cc-pvdz.gbs
    atoms 6-13, 16-21 entry H          line    22 file /theoryfs2/ds/metcalf/miniconda2/envs/tf2gpu/share/psi4/basis/cc-pvdz.gbs

         ---------------------------------------------------------
                                   SCF
               by Justin Turney, Rob Parrish, Andy Simmonett
                          and Daniel G. A. Smith
                              RHF Reference
                        1 Threads,    500 MiB Core
         ---------------------------------------------------------

  ==> Geometry <==

    Molecular point group: c1
    Full point group: C1

    Geometry (in Angstrom), charge = 1, multiplicity = 1:

       Center              X                  Y                   Z               Mass
    ------------   -----------------  -----------------  -----------------  -----------------
         C            0.461996993425    -1.551987539694     1.983380697738    12.000000000000
         C           -0.492003006575     0.425012460306     0.828380697738    12.000000000000
         N           -0.514003006575    -0.868987539694     1.122380697738    14.003074004430
         N            0.452996993425     1.207012460306     1.321380697738    14.003074004430
         N           -1.409003006575     0.936012460306     0.027380697738    14.003074004430
         H           -1.211003006575    -1.441987539694     0.643380697738     1.007825032230
         H            1.141996993425     0.826012460306     1.946380697738     1.007825032230
         H            0.465996993425     2.191012460306     1.104380697738     1.007825032230
         H           -2.111003006575     0.310012460306    -0.375619302262     1.007825032230
         H           -1.426003006575     1.919012460306    -0.183619302262     1.007825032230
         H            0.006996993425    -2.454987539694     2.392380697738     1.007825032230
         H            0.717996993425    -0.924987539694     2.839380697738     1.007825032230
         H            1.382236993425    -1.812554539694     1.439990697738     1.007825032230
         C            1.311996993425     0.271012460306    -2.269619302262    12.000000000000
         C            0.150996993425    -0.465987539694    -2.938619302262    12.000000000000
         H            1.992996993425     0.649012460306    -3.031619302262     1.007825032230
         H            0.934996993425     1.112012460306    -1.690619302262     1.007825032230
         H            1.854996993425    -0.403987539694    -1.610619302262     1.007825032230
         H           -0.532003006575    -0.796987539694    -2.158619302262     1.007825032230
         H            0.532246993425    -1.337407539694    -3.491139302262     1.007825032230
         H           -0.387973006575     0.204137460306    -3.624509302262     1.007825032230

  Running in c1 symmetry.

  Rotational constants: A =      0.09446  B =      0.04166  C =      0.03769 [cm^-1]
  Rotational constants: A =   2831.86148  B =   1248.79053  C =   1129.87831 [MHz]
  Nuclear repulsion =  330.867834583974172

  Charge       = 1
  Multiplicity = 1
  Electrons    = 58
  Nalpha       = 29
  Nbeta        = 29

  ==> Algorithm <==

  SCF Algorithm Type is PK.
  DIIS enabled.
  MOM disabled.
  Fractional occupation disabled.
  Guess Type is SAD.
  Energy threshold   = 1.00e-06
  Density threshold  = 1.00e-10
  Integral threshold = 0.00e+00

  ==> Primary Basis <==

  Basis Set: CC-PVDZ
    Blend: CC-PVDZ
    Number of shells: 84
    Number of basis function: 168
    Number of Cartesian functions: 175
    Spherical Harmonics?: true
    Max angular momentum: 2

  ==> Pre-Iterations <==

   -------------------------------------------------------
    Irrep   Nso     Nmo     Nalpha   Nbeta   Ndocc  Nsocc
   -------------------------------------------------------
     A        168     168       0       0       0       0
   -------------------------------------------------------
    Total     168     168      29      29      29       0
   -------------------------------------------------------

  ==> Integral Setup <==

  Using integral reordering PK algorithm.
  Sizing the integral batches needed.
  Building batch lookup table.
   Calculation information:
      Number of atoms:                  21
      Number of AO shells:              84
      Number of primitives:            224
      Number of atomic orbitals:       175
      Number of basis functions:       168

      Integral cutoff                 1.00e-12
      Number of threads:                 1

	Batch   1 pq = [       0,    9405] index = [             0,44231715] size =     44231715
	Batch   2 pq = [    9405,   13301] index = [      44231715,88464951] size =     44233236
	Batch   3 pq = [   13301,   14196] index = [      88464951,100770306] size =     12305355
  Task number: 10
  Buffer size: 11059200
  Buffer per thread: 2
  We computed 6372437 shell quartets total.
  Whereas there are 6374235 unique shell quartets.

  ==> DiskJK: Disk-Based J/K Matrices <==

    J tasked:                  Yes
    K tasked:                  Yes
    wK tasked:                  No
    Memory [MiB]:              375
    Schwarz Cutoff:          1E-12

    OpenMP threads:              1

  Minimum eigenvalue in the overlap matrix is 3.4942716376E-03.
  Using Symmetric Orthogonalization.

  SCF Guess: Superposition of Atomic Densities via on-the-fly atomic UHF.

  ==> Iterations <==

                        Total Energy        Delta E     RMS |[F,P]|

   @RHF iter SAD:  -322.09993765400549   -3.22100e+02   0.00000e+00
   @RHF iter   1:  -322.61564349582886   -5.15706e-01   3.41726e-03 DIIS
   @RHF iter   2:  -322.78798980275292   -1.72346e-01   1.34548e-03 DIIS
   @RHF iter   3:  -322.81337237095215   -2.53826e-02   3.19995e-04 DIIS
   @RHF iter   4:  -322.81579020164315   -2.41783e-03   4.94362e-05 DIIS
   @RHF iter   5:  -322.81585131268224   -6.11110e-05   2.03449e-05 DIIS
   @RHF iter   6:  -322.81585961386145   -8.30118e-06   4.15909e-06 DIIS
   @RHF iter   7:  -322.81586021839780   -6.04536e-07   1.36381e-06 DIIS
   @RHF iter   8:  -322.81586026278552   -4.43877e-08   4.04301e-07 DIIS
   @RHF iter   9:  -322.81586026671511   -3.92959e-09   9.94663e-08 DIIS
   @RHF iter  10:  -322.81586026696925   -2.54147e-10   2.78205e-08 DIIS
   @RHF iter  11:  -322.81586026698966   -2.04068e-11   7.59856e-09 DIIS
   @RHF iter  12:  -322.81586026699119   -1.53477e-12   2.49170e-09 DIIS
   @RHF iter  13:  -322.81586026699176   -5.68434e-13   1.00107e-09 DIIS
   @RHF iter  14:  -322.81586026699142    3.41061e-13   3.07123e-10 DIIS
   @RHF iter  15:  -322.81586026699176   -3.41061e-13   7.18402e-11 DIIS
  Energy and wave function converged.

  ==> Post-Iterations <==

    Orbital Energies [Eh]
    ---------------------

    Doubly Occupied:

       1A    -15.789398     2A    -15.789209     3A    -15.789066
       4A    -11.590874     5A    -11.444233     6A    -11.334578
       7A    -11.333657     8A     -1.545067     9A     -1.401193
      10A     -1.391648    11A     -1.142644    12A     -1.135567
      13A     -1.037698    14A     -0.976891    15A     -0.952852
      16A     -0.942817    17A     -0.859929    18A     -0.855673
      19A     -0.825529    20A     -0.795976    21A     -0.747228
      22A     -0.723659    23A     -0.714564    24A     -0.714097
      25A     -0.619781    26A     -0.614340    27A     -0.603680
      28A     -0.601043    29A     -0.586621

    Virtual:

      30A     -0.016436    31A      0.020979    32A      0.023583
      33A      0.027580    34A      0.060203    35A      0.068932
      36A      0.090999    37A      0.112919    38A      0.116343
      39A      0.127775    40A      0.143044    41A      0.159783
      42A      0.172399    43A      0.182334    44A      0.188226
      45A      0.202473    46A      0.273327    47A      0.280069
      48A      0.334276    49A      0.341619    50A      0.424956
      51A      0.439754    52A      0.473345    53A      0.484313
      54A      0.487981    55A      0.517479    56A      0.519635
      57A      0.535099    58A      0.538559    59A      0.553142
      60A      0.565199    61A      0.595489    62A      0.660659
      63A      0.681120    64A      0.696515    65A      0.704141
      66A      0.725907    67A      0.733782    68A      0.737833
      69A      0.745259    70A      0.764573    71A      0.772980
      72A      0.776801    73A      0.781096    74A      0.798869
      75A      0.824887    76A      0.846006    77A      0.861154
      78A      0.881440    79A      0.899852    80A      0.916551
      81A      0.930410    82A      0.950943    83A      1.004238
      84A      1.014037    85A      1.026322    86A      1.070370
      87A      1.117468    88A      1.130611    89A      1.137537
      90A      1.158593    91A      1.195300    92A      1.213892
      93A      1.235938    94A      1.279232    95A      1.357065
      96A      1.367597    97A      1.390670    98A      1.424627
      99A      1.477758   100A      1.496343   101A      1.522610
     102A      1.547611   103A      1.569682   104A      1.575679
     105A      1.604649   106A      1.637064   107A      1.668969
     108A      1.688391   109A      1.716623   110A      1.728242
     111A      1.743501   112A      1.754042   113A      1.759803
     114A      1.783996   115A      1.791871   116A      1.794300
     117A      1.814695   118A      1.823616   119A      1.832075
     120A      1.837229   121A      1.844640   122A      1.845683
     123A      1.855053   124A      1.881182   125A      1.888161
     126A      1.980866   127A      1.992557   128A      2.008332
     129A      2.023965   130A      2.040034   131A      2.118249
     132A      2.143983   133A      2.171677   134A      2.179560
     135A      2.201375   136A      2.236858   137A      2.271012
     138A      2.284966   139A      2.314072   140A      2.327738
     141A      2.339789   142A      2.354273   143A      2.382470
     144A      2.428476   145A      2.448942   146A      2.454072
     147A      2.463329   148A      2.531984   149A      2.581084
     150A      2.597368   151A      2.618294   152A      2.656867
     153A      2.685734   154A      2.727942   155A      2.736517
     156A      2.742420   157A      2.753558   158A      2.794822
     159A      2.805920   160A      2.824017   161A      2.845074
     162A      2.870592   163A      2.887758   164A      3.059913
     165A      3.103893   166A      3.127161   167A      3.548269
     168A      3.641062

    Final Occupation by Irrep:
              A
    DOCC [    29 ]

  @RHF Final Energy:  -322.81586026699176

   => Energetics <=

    Nuclear Repulsion Energy =            330.8678345839741723
    One-Electron Energy =               -1081.6483654272169588
    Two-Electron Energy =                 427.9646705762510237
    Total Energy =                       -322.8158602669917627

Computation Completed

Properties will be evaluated at   0.000000,   0.000000,   0.000000 [a0]

Properties computed using the SCF density matrix

  Nuclear Dipole Moment: [e a0]
     X:     3.1565      Y:    -1.8427      Z:    -5.4449

  Electronic Dipole Moment: [e a0]
     X:    -3.8209      Y:     2.3188      Z:     6.9429

  Dipole Moment: [e a0]
     X:    -0.6644      Y:     0.4761      Z:     1.4979     Total:     1.7064

  Dipole Moment: [D]
     X:    -1.6887      Y:     1.2101      Z:     3.8073     Total:     4.3373

*** tstop() called on ds3 at Tue Apr 28 12:20:19 2020
Module time:
	user time   =      38.39 seconds =       0.64 minutes
	system time =      12.09 seconds =       0.20 minutes
	total time  =        110 seconds =       1.83 minutes
Total time:
	user time   =      38.39 seconds =       0.64 minutes
	system time =      12.09 seconds =       0.20 minutes
	total time  =        110 seconds =       1.83 minutes
                                     G D M A

                                 by Anthony Stone

                           version 2.2.06, 22 June 2011

               Distributed Multipoles from Gaussian wavefunctions

Starting at 12:20:19 on 28 Apr 2020

Using SCF density matrix from file ./SSI/SSI-073ARG-076LEU-1-dimer.test.14688.fchk

                         Distributed Multipole Analysis

Standard DMA

Positions and radii in angstrom
Multipole moments in atomic units, ea_0^k for rank k

C          x =  0.461997  y = -1.551988  z =  1.983381 angstrom
           Maximum rank =  0   Radius =  0.650 angstrom
                   Q00  =  -0.126994

C          x = -0.492003  y =  0.425012  z =  0.828381 angstrom
           Maximum rank =  0   Radius =  0.650 angstrom
                   Q00  =   1.077886

N          x = -0.514003  y = -0.868988  z =  1.122381 angstrom
           Maximum rank =  0   Radius =  0.650 angstrom
                   Q00  =  -0.500239

N          x =  0.452997  y =  1.207012  z =  1.321381 angstrom
           Maximum rank =  0   Radius =  0.650 angstrom
                   Q00  =  -0.579043

N          x = -1.409003  y =  0.936012  z =  0.027381 angstrom
           Maximum rank =  0   Radius =  0.650 angstrom
                   Q00  =  -0.592977

H          x = -1.211003  y = -1.441988  z =  0.643381 angstrom
           Maximum rank =  0   Radius =  0.325 angstrom
                   Q00  =   0.238721

H          x =  1.141997  y =  0.826012  z =  1.946381 angstrom
           Maximum rank =  0   Radius =  0.325 angstrom
                   Q00  =   0.271271

H          x =  0.465997  y =  2.191012  z =  1.104381 angstrom
           Maximum rank =  0   Radius =  0.325 angstrom
                   Q00  =   0.268510

H          x = -2.111003  y =  0.310012  z = -0.375619 angstrom
           Maximum rank =  0   Radius =  0.325 angstrom
                   Q00  =   0.271101

H          x = -1.426003  y =  1.919012  z = -0.183619 angstrom
           Maximum rank =  0   Radius =  0.325 angstrom
                   Q00  =   0.270591

H          x =  0.006997  y = -2.454988  z =  2.392381 angstrom
           Maximum rank =  0   Radius =  0.325 angstrom
                   Q00  =   0.162899

H          x =  0.717997  y = -0.924988  z =  2.839381 angstrom
           Maximum rank =  0   Radius =  0.325 angstrom
                   Q00  =   0.113193

H          x =  1.382237  y = -1.812555  z =  1.439991 angstrom
           Maximum rank =  0   Radius =  0.325 angstrom
                   Q00  =   0.128180

C          x =  1.311997  y =  0.271012  z = -2.269619 angstrom
           Maximum rank =  0   Radius =  0.650 angstrom
                   Q00  =  -0.239624

C          x =  0.150997  y = -0.465988  z = -2.938619 angstrom
           Maximum rank =  0   Radius =  0.650 angstrom
                   Q00  =  -0.217674

H          x =  1.992997  y =  0.649012  z = -3.031619 angstrom
           Maximum rank =  0   Radius =  0.325 angstrom
                   Q00  =   0.113938

H          x =  0.934997  y =  1.112012  z = -1.690619 angstrom
           Maximum rank =  0   Radius =  0.325 angstrom
                   Q00  =   0.038723

H          x =  1.854997  y = -0.403988  z = -1.610619 angstrom
           Maximum rank =  0   Radius =  0.325 angstrom
                   Q00  =   0.073137

H          x = -0.532003  y = -0.796988  z = -2.158619 angstrom
           Maximum rank =  0   Radius =  0.325 angstrom
                   Q00  =   0.025166

H          x =  0.532247  y = -1.337408  z = -3.491139 angstrom
           Maximum rank =  0   Radius =  0.325 angstrom
                   Q00  =   0.107833

H          x = -0.387973  y =  0.204137  z = -3.624509 angstrom
           Maximum rank =  0   Radius =  0.325 angstrom
                   Q00  =   0.095403

Total multipoles referred to origin at
           x =   0.000000,  y =    0.000000,  z =    0.000000 angstrom
                   Q00  =   1.000000

Finished at 12:20:19 on 28 Apr 2020

  DMA results are available in the Python driver through the
	  variable('DMA DISTRIBUTED MULTIPOLES')
  and
	  variable('DMA TOTAL MULTIPOLES')
  commands.

    Psi4 stopped on: Tuesday, 28 April 2020 12:20PM
    Psi4 wall time for execution: 0:01:50.65

*** Psi4 exiting successfully. Buy a developer a beer!
