                               Psi4 1.3.2 release

  ==> Input File <==

--------------------------------------------------------------------------
import numpy as np
set {scf_type pk
basis cc-pvdz
d_convergence 10
gdma_switch   0
gdma_limit    0
gdma_origin   [ 0.0,  0.0,  0.0 ]
}
molecule test {
    units Angstrom
    0 1
    --
    0 1
    C               -0.529649172073463    -1.480473011595374    -2.477288632720688
    C                0.198350827926537     0.294526988404626    -0.671288632720687
    C                0.474350827926537    -0.739473011595374    -1.633288632720687
    C                1.439350827926537     0.688526988404626    -0.106288632720687
    C                1.828350827926537    -0.920473011595374    -1.615288632720687
    C               -0.970649172073463     0.923526988404626    -0.226288632720687
    C                1.533350827926537     1.669526988404626     0.867711367279313
    C               -0.874649172073463     1.913526988404626     0.746711367279313
    C                0.364350827926537     2.280526988404626     1.281711367279313
    N                2.407350827926538    -0.068473011595374    -0.707288632720687
    H               -1.923649172073463     0.657526988404626    -0.653288632720687
    H               -1.288649172073463    -1.910473011595374    -1.823288632720687
    H               -0.007649172073463    -2.310473011595374    -2.954288632720687
    H                2.365350827926537    -1.632473011595374    -2.233288632720687
    H                3.409350827926537    -0.035473011595374    -0.522288632720687
    H                2.489350827926538     1.949526988404626     1.285711367279313
    H               -1.770649172073463     2.411526988404626     1.093711367279313
    H                0.408350827926537     3.054526988404626     2.037711367279313
    H               -1.026751172073463    -0.873622011595374    -3.248405632720687
    C               -2.104649172073462    -1.701473011595374     1.545711367279313
    C               -3.089649172073463    -2.022473011595374     2.643711367279313
    H               -2.589649172073463    -1.110473011595374     0.776711367279313
    H               -1.271649172073463    -1.131473011595374     1.956711367279313
    H               -1.737649172073463    -2.623473011595374     1.097711367279313
    H               -3.521649172073463    -1.103473011595374     3.015711367279313
    H               -2.485649172073463    -2.461473011595374     3.432711367279313
    H               -3.884987172073463    -2.714009011595374     2.328726067279312

}
e, wfn = energy('scf', return_wfn=True)
gdma(wfn)
dmavals = variable('DMA DISTRIBUTED MULTIPOLES')
charges = np.array(dmavals)
print(charges)
np.save('SSI-022TRP-043ILE-1-dimer.npy', np.array(charges))--------------------------------------------------------------------------

*** tstart() called on ds3
*** at Mon Apr 27 20:36:02 2020

   => Loading Basis Set <=

    Name: CC-PVDZ
    Role: ORBITAL
    Keyword: BASIS
    atoms 1-9, 20-21   entry C          line   138 file /theoryfs2/ds/metcalf/miniconda2/envs/tf2gpu/share/psi4/basis/cc-pvdz.gbs
    atoms 10           entry N          line   168 file /theoryfs2/ds/metcalf/miniconda2/envs/tf2gpu/share/psi4/basis/cc-pvdz.gbs
    atoms 11-19, 22-27 entry H          line    22 file /theoryfs2/ds/metcalf/miniconda2/envs/tf2gpu/share/psi4/basis/cc-pvdz.gbs

         ---------------------------------------------------------
                                   SCF
               by Justin Turney, Rob Parrish, Andy Simmonett
                          and Daniel G. A. Smith
                              RHF Reference
                        1 Threads,    500 MiB Core
         ---------------------------------------------------------

  ==> Geometry <==

    Molecular point group: c1
    Full point group: C1

    Geometry (in Angstrom), charge = 0, multiplicity = 1:

       Center              X                  Y                   Z               Mass
    ------------   -----------------  -----------------  -----------------  -----------------
         C           -0.529649172073    -1.480473011595    -2.477288632721    12.000000000000
         C            0.198350827927     0.294526988405    -0.671288632721    12.000000000000
         C            0.474350827927    -0.739473011595    -1.633288632721    12.000000000000
         C            1.439350827927     0.688526988405    -0.106288632721    12.000000000000
         C            1.828350827927    -0.920473011595    -1.615288632721    12.000000000000
         C           -0.970649172073     0.923526988405    -0.226288632721    12.000000000000
         C            1.533350827927     1.669526988405     0.867711367279    12.000000000000
         C           -0.874649172073     1.913526988405     0.746711367279    12.000000000000
         C            0.364350827927     2.280526988405     1.281711367279    12.000000000000
         N            2.407350827927    -0.068473011595    -0.707288632721    14.003074004430
         H           -1.923649172073     0.657526988405    -0.653288632721     1.007825032230
         H           -1.288649172073    -1.910473011595    -1.823288632721     1.007825032230
         H           -0.007649172073    -2.310473011595    -2.954288632721     1.007825032230
         H            2.365350827927    -1.632473011595    -2.233288632721     1.007825032230
         H            3.409350827927    -0.035473011595    -0.522288632721     1.007825032230
         H            2.489350827927     1.949526988405     1.285711367279     1.007825032230
         H           -1.770649172073     2.411526988405     1.093711367279     1.007825032230
         H            0.408350827927     3.054526988405     2.037711367279     1.007825032230
         H           -1.026751172073    -0.873622011595    -3.248405632721     1.007825032230
         C           -2.104649172073    -1.701473011595     1.545711367279    12.000000000000
         C           -3.089649172073    -2.022473011595     2.643711367279    12.000000000000
         H           -2.589649172073    -1.110473011595     0.776711367279     1.007825032230
         H           -1.271649172073    -1.131473011595     1.956711367279     1.007825032230
         H           -1.737649172073    -2.623473011595     1.097711367279     1.007825032230
         H           -3.521649172073    -1.103473011595     3.015711367279     1.007825032230
         H           -2.485649172073    -2.461473011595     3.432711367279     1.007825032230
         H           -3.884987172073    -2.714009011595     2.328726067279     1.007825032230

  Running in c1 symmetry.

  Rotational constants: A =      0.03334  B =      0.02220  C =      0.01612 [cm^-1]
  Rotational constants: A =    999.59027  B =    665.62490  C =    483.31625 [MHz]
  Nuclear repulsion =  661.995544197115464

  Charge       = 0
  Multiplicity = 1
  Electrons    = 88
  Nalpha       = 44
  Nbeta        = 44

  ==> Algorithm <==

  SCF Algorithm Type is PK.
  DIIS enabled.
  MOM disabled.
  Fractional occupation disabled.
  Guess Type is SAD.
  Energy threshold   = 1.00e-06
  Density threshold  = 1.00e-10
  Integral threshold = 0.00e+00

  ==> Primary Basis <==

  Basis Set: CC-PVDZ
    Blend: CC-PVDZ
    Number of shells: 117
    Number of basis function: 243
    Number of Cartesian functions: 255
    Spherical Harmonics?: true
    Max angular momentum: 2

  ==> Pre-Iterations <==

   -------------------------------------------------------
    Irrep   Nso     Nmo     Nalpha   Nbeta   Ndocc  Nsocc
   -------------------------------------------------------
     A        243     243       0       0       0       0
   -------------------------------------------------------
    Total     243     243      44      44      44       0
   -------------------------------------------------------

  ==> Integral Setup <==

  Using integral reordering PK algorithm.
  Sizing the integral batches needed.
  Building batch lookup table.
   Calculation information:
      Number of atoms:                  27
      Number of AO shells:             117
      Number of primitives:            339
      Number of atomic orbitals:       255
      Number of basis functions:       243

      Integral cutoff                 1.00e-12
      Number of threads:                 1

	Batch   1 pq = [       0,    9405] index = [             0,44231715] size =     44231715
	Batch   2 pq = [    9405,   13301] index = [      44231715,88464951] size =     44233236
	Batch   3 pq = [   13301,   16290] index = [      88464951,132690195] size =     44225244
	Batch   4 pq = [   16290,   18810] index = [     132690195,176917455] size =     44227260
	Batch   5 pq = [   18810,   21030] index = [     176917455,221140965] size =     44223510
	Batch   6 pq = [   21030,   23037] index = [     221140965,265363203] size =     44222238
	Batch   7 pq = [   23037,   24883] index = [     265363203,309594286] size =     44231083
	Batch   8 pq = [   24883,   26601] index = [     309594286,353819901] size =     44225615
	Batch   9 pq = [   26601,   28214] index = [     353819901,398029005] size =     44209104
	Batch  10 pq = [   28214,   29646] index = [     398029005,439457481] size =     41428476
  Task number: 40
  Buffer size: 11059200
  Buffer per thread: 2
  We computed 23383267 shell quartets total.
  Whereas there are 23829156 unique shell quartets.

  ==> DiskJK: Disk-Based J/K Matrices <==

    J tasked:                  Yes
    K tasked:                  Yes
    wK tasked:                  No
    Memory [MiB]:              375
    Schwarz Cutoff:          1E-12

    OpenMP threads:              1

  Minimum eigenvalue in the overlap matrix is 2.4046522959E-04.
  Using Symmetric Orthogonalization.

  SCF Guess: Superposition of Atomic Densities via on-the-fly atomic UHF.

  ==> Iterations <==

                        Total Energy        Delta E     RMS |[F,P]|

   @RHF iter SAD:  -479.09374825956303   -4.79094e+02   0.00000e+00
   @RHF iter   1:  -479.48284042236844   -3.89092e-01   2.62572e-03 DIIS
   @RHF iter   2:  -479.71786941668097   -2.35029e-01   1.16937e-03 DIIS
   @RHF iter   3:  -479.76050971000427   -4.26403e-02   3.05794e-04 DIIS
   @RHF iter   4:  -479.76435113848186   -3.84143e-03   1.42050e-04 DIIS
   @RHF iter   5:  -479.76502728274215   -6.76144e-04   2.04286e-05 DIIS
   @RHF iter   6:  -479.76505779814624   -3.05154e-05   9.52291e-06 DIIS
   @RHF iter   7:  -479.76506430591678   -6.50777e-06   3.97223e-06 DIIS
   @RHF iter   8:  -479.76506622739930   -1.92148e-06   1.60229e-06 DIIS
   @RHF iter   9:  -479.76506661677467   -3.89375e-07   7.12002e-07 DIIS
   @RHF iter  10:  -479.76506669565049   -7.88758e-08   3.22912e-07 DIIS
   @RHF iter  11:  -479.76506671340860   -1.77581e-08   1.17273e-07 DIIS
   @RHF iter  12:  -479.76506671565937   -2.25077e-09   3.86994e-08 DIIS
   @RHF iter  13:  -479.76506671582371   -1.64334e-10   1.12581e-08 DIIS
   @RHF iter  14:  -479.76506671583087   -7.16227e-12   5.02947e-09 DIIS
   @RHF iter  15:  -479.76506671583832   -7.44649e-12   2.33709e-09 DIIS
   @RHF iter  16:  -479.76506671584303   -4.71800e-12   9.89656e-10 DIIS
   @RHF iter  17:  -479.76506671583888    4.14957e-12   4.40753e-10 DIIS
   @RHF iter  18:  -479.76506671583536    3.52429e-12   1.61637e-10 DIIS
   @RHF iter  19:  -479.76506671583843   -3.06954e-12   5.38336e-11 DIIS
  Energy and wave function converged.

  ==> Post-Iterations <==

    Orbital Energies [Eh]
    ---------------------

    Doubly Occupied:

       1A    -15.601525     2A    -11.264385     3A    -11.263064
       4A    -11.229287     5A    -11.228978     6A    -11.227729
       7A    -11.226864     8A    -11.219595     9A    -11.219248
      10A    -11.218181    11A    -11.206720    12A    -11.201964
      13A     -1.295290    14A     -1.128735    15A     -1.070934
      16A     -1.015589    17A     -0.997034    18A     -0.987076
      19A     -0.929565    20A     -0.840125    21A     -0.825481
      22A     -0.802743    23A     -0.752381    24A     -0.719258
      25A     -0.662434    26A     -0.641356    27A     -0.602695
      28A     -0.594861    29A     -0.593274    30A     -0.590761
      31A     -0.588461    32A     -0.565769    33A     -0.552046
      34A     -0.536834    35A     -0.527036    36A     -0.494858
      37A     -0.494317    38A     -0.478375    39A     -0.474382
      40A     -0.467219    41A     -0.458461    42A     -0.371466
      43A     -0.295167    44A     -0.274206

    Virtual:

      45A      0.127122    46A      0.169521    47A      0.178899
      48A      0.180600    49A      0.198781    50A      0.206440
      51A      0.222888    52A      0.227885    53A      0.231607
      54A      0.249868    55A      0.259855    56A      0.265234
      57A      0.269252    58A      0.282059    59A      0.285822
      60A      0.299071    61A      0.314822    62A      0.341319
      63A      0.374121    64A      0.392943    65A      0.404230
      66A      0.410835    67A      0.424397    68A      0.444620
      69A      0.474788    70A      0.482832    71A      0.497880
      72A      0.511464    73A      0.588674    74A      0.594491
      75A      0.610735    76A      0.614851    77A      0.616951
      78A      0.639481    79A      0.642908    80A      0.659353
      81A      0.667463    82A      0.695121    83A      0.702637
      84A      0.710061    85A      0.727032    86A      0.731860
      87A      0.736746    88A      0.741793    89A      0.746126
      90A      0.760112    91A      0.773952    92A      0.787732
      93A      0.790969    94A      0.796552    95A      0.814443
      96A      0.842231    97A      0.872154    98A      0.878916
      99A      0.884673   100A      0.890442   101A      0.893964
     102A      0.897875   103A      0.902143   104A      0.908121
     105A      0.913864   106A      0.920768   107A      0.935257
     108A      0.943956   109A      0.949309   110A      0.956131
     111A      0.960630   112A      0.971170   113A      0.994342
     114A      1.004137   115A      1.010407   116A      1.029339
     117A      1.067778   118A      1.072671   119A      1.089591
     120A      1.121266   121A      1.133696   122A      1.141955
     123A      1.144812   124A      1.150825   125A      1.172577
     126A      1.188808   127A      1.208786   128A      1.229191
     129A      1.230876   130A      1.237097   131A      1.248313
     132A      1.274318   133A      1.284057   134A      1.298290
     135A      1.305476   136A      1.327830   137A      1.334604
     138A      1.363418   139A      1.372339   140A      1.400166
     141A      1.443638   142A      1.479647   143A      1.499950
     144A      1.527866   145A      1.552908   146A      1.575886
     147A      1.592420   148A      1.600447   149A      1.631475
     150A      1.648096   151A      1.658937   152A      1.687096
     153A      1.689103   154A      1.701407   155A      1.718910
     156A      1.746075   157A      1.767746   158A      1.778681
     159A      1.786798   160A      1.805339   161A      1.824847
     162A      1.830750   163A      1.872480   164A      1.877067
     165A      1.887909   166A      1.901659   167A      1.911239
     168A      1.918113   169A      1.923724   170A      1.933491
     171A      1.936003   172A      1.943983   173A      1.957669
     174A      1.959482   175A      1.972720   176A      1.977205
     177A      1.982738   178A      1.990244   179A      2.006594
     180A      2.013805   181A      2.029073   182A      2.036025
     183A      2.065744   184A      2.077204   185A      2.080775
     186A      2.088147   187A      2.104714   188A      2.109248
     189A      2.120229   190A      2.127381   191A      2.146060
     192A      2.156537   193A      2.166197   194A      2.172912
     195A      2.188712   196A      2.225164   197A      2.245344
     198A      2.291201   199A      2.298037   200A      2.318885
     201A      2.323701   202A      2.332315   203A      2.339978
     204A      2.358100   205A      2.399303   206A      2.420298
     207A      2.454269   208A      2.466147   209A      2.474656
     210A      2.500745   211A      2.530916   212A      2.579514
     213A      2.582884   214A      2.606770   215A      2.614116
     216A      2.641460   217A      2.665586   218A      2.679747
     219A      2.697311   220A      2.770040   221A      2.780973
     222A      2.790813   223A      2.793714   224A      2.802625
     225A      2.815460   226A      2.826576   227A      2.853917
     228A      2.877926   229A      2.882236   230A      2.885519
     231A      2.907764   232A      2.961061   233A      2.975666
     234A      2.987169   235A      3.036755   236A      3.058322
     237A      3.077733   238A      3.123304   239A      3.203516
     240A      3.310234   241A      3.381183   242A      3.737610
     243A      3.959342

    Final Occupation by Irrep:
              A
    DOCC [    44 ]

  @RHF Final Energy:  -479.76506671583843

   => Energetics <=

    Nuclear Repulsion Energy =            661.9955441971154642
    One-Electron Energy =               -1962.0497577359506067
    Two-Electron Energy =                 820.2891468229965994
    Total Energy =                       -479.7650667158384294

Computation Completed

Properties will be evaluated at   0.000000,   0.000000,   0.000000 [a0]

Properties computed using the SCF density matrix

  Nuclear Dipole Moment: [e a0]
     X:   -12.0405      Y:    -9.2187      Z:     5.2430

  Electronic Dipole Moment: [e a0]
     X:    12.8343      Y:     8.9647      Z:    -5.4184

  Dipole Moment: [e a0]
     X:     0.7938      Y:    -0.2540      Z:    -0.1754     Total:     0.8517

  Dipole Moment: [D]
     X:     2.0176      Y:    -0.6456      Z:    -0.4458     Total:     2.1648

*** tstop() called on ds3 at Mon Apr 27 20:41:02 2020
Module time:
	user time   =     183.41 seconds =       3.06 minutes
	system time =      70.93 seconds =       1.18 minutes
	total time  =        300 seconds =       5.00 minutes
Total time:
	user time   =     183.41 seconds =       3.06 minutes
	system time =      70.93 seconds =       1.18 minutes
	total time  =        300 seconds =       5.00 minutes
                                     G D M A

                                 by Anthony Stone

                           version 2.2.06, 22 June 2011

               Distributed Multipoles from Gaussian wavefunctions

Starting at 20:41:2 on 27 Apr 2020

Using SCF density matrix from file ./SSI/SSI-022TRP-043ILE-1-dimer.test.15702.fchk

                         Distributed Multipole Analysis

Standard DMA

Positions and radii in angstrom
Multipole moments in atomic units, ea_0^k for rank k

C          x = -0.529649  y = -1.480473  z = -2.477289 angstrom
           Maximum rank =  0   Radius =  0.650 angstrom
                   Q00  =  -0.205559

C          x =  0.198351  y =  0.294527  z = -0.671289 angstrom
           Maximum rank =  0   Radius =  0.650 angstrom
                   Q00  =  -0.053826

C          x =  0.474351  y = -0.739473  z = -1.633289 angstrom
           Maximum rank =  0   Radius =  0.650 angstrom
                   Q00  =  -0.128223

C          x =  1.439351  y =  0.688527  z = -0.106289 angstrom
           Maximum rank =  0   Radius =  0.650 angstrom
                   Q00  =   0.278066

C          x =  1.828351  y = -0.920473  z = -1.615289 angstrom
           Maximum rank =  0   Radius =  0.650 angstrom
                   Q00  =   0.071375

C          x = -0.970649  y =  0.923527  z = -0.226289 angstrom
           Maximum rank =  0   Radius =  0.650 angstrom
                   Q00  =  -0.088489

C          x =  1.533351  y =  1.669527  z =  0.867711 angstrom
           Maximum rank =  0   Radius =  0.650 angstrom
                   Q00  =  -0.121600

C          x = -0.874649  y =  1.913527  z =  0.746711 angstrom
           Maximum rank =  0   Radius =  0.650 angstrom
                   Q00  =  -0.111669

C          x =  0.364351  y =  2.280527  z =  1.281711 angstrom
           Maximum rank =  0   Radius =  0.650 angstrom
                   Q00  =  -0.028662

N          x =  2.407351  y = -0.068473  z = -0.707289 angstrom
           Maximum rank =  0   Radius =  0.650 angstrom
                   Q00  =  -0.496162

H          x = -1.923649  y =  0.657527  z = -0.653289 angstrom
           Maximum rank =  0   Radius =  0.325 angstrom
                   Q00  =   0.071035

H          x = -1.288649  y = -1.910473  z = -1.823289 angstrom
           Maximum rank =  0   Radius =  0.325 angstrom
                   Q00  =   0.100892

H          x = -0.007649  y = -2.310473  z = -2.954289 angstrom
           Maximum rank =  0   Radius =  0.325 angstrom
                   Q00  =   0.101838

H          x =  2.365351  y = -1.632473  z = -2.233289 angstrom
           Maximum rank =  0   Radius =  0.325 angstrom
                   Q00  =   0.101149

H          x =  3.409351  y = -0.035473  z = -0.522289 angstrom
           Maximum rank =  0   Radius =  0.325 angstrom
                   Q00  =   0.218152

H          x =  2.489351  y =  1.949527  z =  1.285711 angstrom
           Maximum rank =  0   Radius =  0.325 angstrom
                   Q00  =   0.072266

H          x = -1.770649  y =  2.411527  z =  1.093711 angstrom
           Maximum rank =  0   Radius =  0.325 angstrom
                   Q00  =   0.058955

H          x =  0.408351  y =  3.054527  z =  2.037711 angstrom
           Maximum rank =  0   Radius =  0.325 angstrom
                   Q00  =   0.063356

H          x = -1.026751  y = -0.873622  z = -3.248406 angstrom
           Maximum rank =  0   Radius =  0.325 angstrom
                   Q00  =   0.098805

C          x = -2.104649  y = -1.701473  z =  1.545711 angstrom
           Maximum rank =  0   Radius =  0.650 angstrom
                   Q00  =  -0.221137

C          x = -3.089649  y = -2.022473  z =  2.643711 angstrom
           Maximum rank =  0   Radius =  0.650 angstrom
                   Q00  =  -0.230012

H          x = -2.589649  y = -1.110473  z =  0.776711 angstrom
           Maximum rank =  0   Radius =  0.325 angstrom
                   Q00  =   0.066651

H          x = -1.271649  y = -1.131473  z =  1.956711 angstrom
           Maximum rank =  0   Radius =  0.325 angstrom
                   Q00  =   0.089069

H          x = -1.737649  y = -2.623473  z =  1.097711 angstrom
           Maximum rank =  0   Radius =  0.325 angstrom
                   Q00  =   0.071135

H          x = -3.521649  y = -1.103473  z =  3.015711 angstrom
           Maximum rank =  0   Radius =  0.325 angstrom
                   Q00  =   0.076371

H          x = -2.485649  y = -2.461473  z =  3.432711 angstrom
           Maximum rank =  0   Radius =  0.325 angstrom
                   Q00  =   0.070676

H          x = -3.884987  y = -2.714009  z =  2.328726 angstrom
           Maximum rank =  0   Radius =  0.325 angstrom
                   Q00  =   0.075548

Total multipoles referred to origin at
           x =   0.000000,  y =    0.000000,  z =    0.000000 angstrom
                   Q00  =  -0.000000

Finished at 20:41:2 on 27 Apr 2020

  DMA results are available in the Python driver through the
	  variable('DMA DISTRIBUTED MULTIPOLES')
  and
	  variable('DMA TOTAL MULTIPOLES')
  commands.

    Psi4 stopped on: Monday, 27 April 2020 08:41PM
    Psi4 wall time for execution: 0:05:00.61

*** Psi4 exiting successfully. Buy a developer a beer!
