                               Psi4 1.3.2 release

  ==> Input File <==

--------------------------------------------------------------------------
import numpy as np
set {scf_type pk
basis cc-pvdz
d_convergence 10
gdma_switch   0
gdma_limit    0
gdma_origin   [ 0.0,  0.0,  0.0 ]
}
molecule test {
    units Angstrom
    -1 1
    --
    -1 1
    C                0.427672287808448    -1.176017208660056    -2.673028677837983
    C               -0.308327712191552    -2.266017208660056    -3.454028677837983
    H                0.480672287808448    -1.446017208660056    -1.617028677837983
    H                1.440672287808447    -1.069017208660056    -3.059028677837983
    H               -0.083327712191552    -0.220017208660056    -2.779028677837983
    H               -0.400327712191552    -1.928017208660056    -4.485028677837983
    H               -1.315027712191553    -2.475657208660055    -3.063368677837983
    H                0.274142287808448    -3.198987208660056    -3.471368677837983
    C               -0.592327712191552     0.862982791339944     0.367971322162017
    C               -1.700327712191552     1.711982791339944     0.946971322162017
    C                0.429672287808448     0.437982791339944     1.397971322162017
    O                1.018672287808448     1.299982791339944     2.083971322162017
    O                0.706672287808448    -0.777017208660056     1.465971322162017
    H               -1.046327712191552    -0.012017208660056    -0.103028677837983
    H               -0.050327712191552     1.404982791339944    -0.408028677837983
    H               -1.282327712191553     2.474982791339944     1.604971322162017
    H               -2.355327712191552     1.073982791339944     1.536971322162017
    H               -2.283757712191552     2.204992791339945     0.155421322162017

}
e, wfn = energy('scf', return_wfn=True)
gdma(wfn)
dmavals = variable('DMA DISTRIBUTED MULTIPOLES')
charges = np.array(dmavals)
print(charges)
np.save('SSI-026LEU-040GLU-1-dimer.npy', np.array(charges))--------------------------------------------------------------------------

*** tstart() called on ds3
*** at Tue Apr 28 00:44:46 2020

   => Loading Basis Set <=

    Name: CC-PVDZ
    Role: ORBITAL
    Keyword: BASIS
    atoms 1-2, 9-11  entry C          line   138 file /theoryfs2/ds/metcalf/miniconda2/envs/tf2gpu/share/psi4/basis/cc-pvdz.gbs
    atoms 3-8, 14-18 entry H          line    22 file /theoryfs2/ds/metcalf/miniconda2/envs/tf2gpu/share/psi4/basis/cc-pvdz.gbs
    atoms 12-13      entry O          line   198 file /theoryfs2/ds/metcalf/miniconda2/envs/tf2gpu/share/psi4/basis/cc-pvdz.gbs

         ---------------------------------------------------------
                                   SCF
               by Justin Turney, Rob Parrish, Andy Simmonett
                          and Daniel G. A. Smith
                              RHF Reference
                        1 Threads,    500 MiB Core
         ---------------------------------------------------------

  ==> Geometry <==

    Molecular point group: c1
    Full point group: C1

    Geometry (in Angstrom), charge = -1, multiplicity = 1:

       Center              X                  Y                   Z               Mass
    ------------   -----------------  -----------------  -----------------  -----------------
         C            0.427672287808    -1.176017208660    -2.673028677838    12.000000000000
         C           -0.308327712192    -2.266017208660    -3.454028677838    12.000000000000
         H            0.480672287808    -1.446017208660    -1.617028677838     1.007825032230
         H            1.440672287808    -1.069017208660    -3.059028677838     1.007825032230
         H           -0.083327712192    -0.220017208660    -2.779028677838     1.007825032230
         H           -0.400327712192    -1.928017208660    -4.485028677838     1.007825032230
         H           -1.315027712192    -2.475657208660    -3.063368677838     1.007825032230
         H            0.274142287808    -3.198987208660    -3.471368677838     1.007825032230
         C           -0.592327712192     0.862982791340     0.367971322162    12.000000000000
         C           -1.700327712192     1.711982791340     0.946971322162    12.000000000000
         C            0.429672287808     0.437982791340     1.397971322162    12.000000000000
         O            1.018672287808     1.299982791340     2.083971322162    15.994914619570
         O            0.706672287808    -0.777017208660     1.465971322162    15.994914619570
         H           -1.046327712192    -0.012017208660    -0.103028677838     1.007825032230
         H           -0.050327712192     1.404982791340    -0.408028677838     1.007825032230
         H           -1.282327712192     2.474982791340     1.604971322162     1.007825032230
         H           -2.355327712192     1.073982791340     1.536971322162     1.007825032230
         H           -2.283757712192     2.204992791340     0.155421322162     1.007825032230

  Running in c1 symmetry.

  Rotational constants: A =      0.11348  B =      0.02803  C =      0.02432 [cm^-1]
  Rotational constants: A =   3402.17577  B =    840.22770  C =    729.22529 [MHz]
  Nuclear repulsion =  286.213911592289890

  Charge       = -1
  Multiplicity = 1
  Electrons    = 58
  Nalpha       = 29
  Nbeta        = 29

  ==> Algorithm <==

  SCF Algorithm Type is PK.
  DIIS enabled.
  MOM disabled.
  Fractional occupation disabled.
  Guess Type is SAD.
  Energy threshold   = 1.00e-06
  Density threshold  = 1.00e-10
  Integral threshold = 0.00e+00

  ==> Primary Basis <==

  Basis Set: CC-PVDZ
    Blend: CC-PVDZ
    Number of shells: 75
    Number of basis function: 153
    Number of Cartesian functions: 160
    Spherical Harmonics?: true
    Max angular momentum: 2

  ==> Pre-Iterations <==

   -------------------------------------------------------
    Irrep   Nso     Nmo     Nalpha   Nbeta   Ndocc  Nsocc
   -------------------------------------------------------
     A        153     153       0       0       0       0
   -------------------------------------------------------
    Total     153     153      29      29      29       0
   -------------------------------------------------------

  ==> Integral Setup <==

  Using integral reordering PK algorithm.
  Sizing the integral batches needed.
  Building batch lookup table.
   Calculation information:
      Number of atoms:                  18
      Number of AO shells:              75
      Number of primitives:            209
      Number of atomic orbitals:       160
      Number of basis functions:       153

      Integral cutoff                 1.00e-12
      Number of threads:                 1

	Batch   1 pq = [       0,    9405] index = [             0,44231715] size =     44231715
	Batch   2 pq = [    9405,   11781] index = [      44231715,69401871] size =     25170156
  Task number: 7
  Buffer size: 11059200
  Buffer per thread: 2
  We computed 3237860 shell quartets total.
  Whereas there are 4062675 unique shell quartets.

  ==> DiskJK: Disk-Based J/K Matrices <==

    J tasked:                  Yes
    K tasked:                  Yes
    wK tasked:                  No
    Memory [MiB]:              375
    Schwarz Cutoff:          1E-12

    OpenMP threads:              1

  Minimum eigenvalue in the overlap matrix is 4.2246902662E-03.
  Using Symmetric Orthogonalization.

  SCF Guess: Superposition of Atomic Densities via on-the-fly atomic UHF.

  ==> Iterations <==

                        Total Energy        Delta E     RMS |[F,P]|

   @RHF iter SAD:  -343.90371404628820   -3.43904e+02   0.00000e+00
   @RHF iter   1:  -345.22201429473910   -1.31830e+00   4.90518e-03 DIIS
   @RHF iter   2:  -345.44466493557513   -2.22651e-01   2.69150e-03 DIIS
   @RHF iter   3:  -345.50826776927391   -6.36028e-02   4.19905e-04 DIIS
   @RHF iter   4:  -345.51119126205725   -2.92349e-03   1.66784e-04 DIIS
   @RHF iter   5:  -345.51162102030480   -4.29758e-04   2.39777e-05 DIIS
   @RHF iter   6:  -345.51163405832267   -1.30380e-05   4.96249e-06 DIIS
   @RHF iter   7:  -345.51163462820858   -5.69886e-07   1.52530e-06 DIIS
   @RHF iter   8:  -345.51163467754293   -4.93343e-08   4.15793e-07 DIIS
   @RHF iter   9:  -345.51163468268118   -5.13825e-09   1.70732e-07 DIIS
   @RHF iter  10:  -345.51163468324609   -5.64910e-10   6.58650e-08 DIIS
   @RHF iter  11:  -345.51163468336358   -1.17495e-10   2.42701e-08 DIIS
   @RHF iter  12:  -345.51163468337973   -1.61435e-11   7.19704e-09 DIIS
   @RHF iter  13:  -345.51163468338245   -2.72848e-12   2.69515e-09 DIIS
   @RHF iter  14:  -345.51163468338086    1.59162e-12   8.27463e-10 DIIS
   @RHF iter  15:  -345.51163468338171   -8.52651e-13   2.68257e-10 DIIS
   @RHF iter  16:  -345.51163468338245   -7.38964e-13   9.23906e-11 DIIS
  Energy and wave function converged.

  ==> Post-Iterations <==

    Orbital Energies [Eh]
    ---------------------

    Doubly Occupied:

       1A    -20.255134     2A    -20.254772     3A    -11.126886
       4A    -11.108687     5A    -11.108002     6A    -11.072889
       7A    -11.048211     8A     -1.147721     9A     -1.031861
      10A     -0.917768    11A     -0.875893    12A     -0.737592
      13A     -0.702246    14A     -0.508194    15A     -0.496871
      16A     -0.496712    17A     -0.457399    18A     -0.429360
      19A     -0.403563    20A     -0.390484    21A     -0.386499
      22A     -0.379711    23A     -0.365870    24A     -0.358925
      25A     -0.320595    26A     -0.296823    27A     -0.178396
      28A     -0.166848    29A     -0.156484

    Virtual:

      30A      0.278727    31A      0.320478    32A      0.335108
      33A      0.346134    34A      0.351124    35A      0.369181
      36A      0.396901    37A      0.411793    38A      0.414418
      39A      0.422433    40A      0.439915    41A      0.474574
      42A      0.504113    43A      0.551178    44A      0.620131
      45A      0.689858    46A      0.694666    47A      0.702112
      48A      0.705165    49A      0.731312    50A      0.755614
      51A      0.758630    52A      0.782471    53A      0.829793
      54A      0.904275    55A      0.946925    56A      0.963581
      57A      0.978639    58A      0.984746    59A      0.986484
      60A      1.001905    61A      1.009585    62A      1.015516
      63A      1.027289    64A      1.035695    65A      1.055376
      66A      1.056463    67A      1.065328    68A      1.070959
      69A      1.089661    70A      1.097321    71A      1.123130
      72A      1.158038    73A      1.221099    74A      1.239771
      75A      1.262178    76A      1.304468    77A      1.313752
      78A      1.335191    79A      1.401541    80A      1.503436
      81A      1.524351    82A      1.548796    83A      1.568279
      84A      1.579837    85A      1.609082    86A      1.632852
      87A      1.657625    88A      1.675079    89A      1.685557
      90A      1.689263    91A      1.742199    92A      1.778189
      93A      1.805646    94A      1.835569    95A      1.863002
      96A      1.950521    97A      1.969514    98A      1.979873
      99A      1.998750   100A      2.024671   101A      2.033834
     102A      2.047815   103A      2.048085   104A      2.052687
     105A      2.059890   106A      2.079335   107A      2.100516
     108A      2.131128   109A      2.138017   110A      2.149009
     111A      2.159651   112A      2.182718   113A      2.185653
     114A      2.221345   115A      2.236067   116A      2.291215
     117A      2.376610   118A      2.386871   119A      2.409472
     120A      2.419361   121A      2.469435   122A      2.489099
     123A      2.541366   124A      2.550786   125A      2.580019
     126A      2.629388   127A      2.652410   128A      2.665704
     129A      2.676623   130A      2.740544   131A      2.750794
     132A      2.846344   133A      2.848627   134A      2.900482
     135A      2.915530   136A      2.955838   137A      2.966855
     138A      2.997399   139A      3.009255   140A      3.048299
     141A      3.051827   142A      3.068977   143A      3.144581
     144A      3.251528   145A      3.290707   146A      3.305733
     147A      3.371808   148A      3.649221   149A      3.790994
     150A      3.838655   151A      4.064104   152A      4.092982
     153A      4.210152

    Final Occupation by Irrep:
              A
    DOCC [    29 ]

  @RHF Final Energy:  -345.51163468338245

   => Energetics <=

    Nuclear Repulsion Energy =            286.2139115922898895
    One-Electron Energy =               -1049.0902991211630706
    Two-Electron Energy =                 417.3647528454907842
    Total Energy =                       -345.5116346833824537

Computation Completed

Properties will be evaluated at   0.000000,   0.000000,   0.000000 [a0]

Properties computed using the SCF density matrix

  Nuclear Dipole Moment: [e a0]
     X:    -6.1989      Y:    -2.9888      Z:   -14.6905

  Electronic Dipole Moment: [e a0]
     X:     4.6391      Y:     2.5863      Z:    11.5093

  Dipole Moment: [e a0]
     X:    -1.5598      Y:    -0.4024      Z:    -3.1811     Total:     3.5658

  Dipole Moment: [D]
     X:    -3.9647      Y:    -1.0229      Z:    -8.0856     Total:     9.0632

*** tstop() called on ds3 at Tue Apr 28 00:45:19 2020
Module time:
	user time   =      22.88 seconds =       0.38 minutes
	system time =      11.89 seconds =       0.20 minutes
	total time  =         33 seconds =       0.55 minutes
Total time:
	user time   =      22.88 seconds =       0.38 minutes
	system time =      11.89 seconds =       0.20 minutes
	total time  =         33 seconds =       0.55 minutes
                                     G D M A

                                 by Anthony Stone

                           version 2.2.06, 22 June 2011

               Distributed Multipoles from Gaussian wavefunctions

Starting at 0:45:20 on 28 Apr 2020

Using SCF density matrix from file ./SSI/SSI-026LEU-040GLU-1-dimer.test.17112.fchk

                         Distributed Multipole Analysis

Standard DMA

Positions and radii in angstrom
Multipole moments in atomic units, ea_0^k for rank k

C          x =  0.427672  y = -1.176017  z = -2.673029 angstrom
           Maximum rank =  0   Radius =  0.650 angstrom
                   Q00  =  -0.192297

C          x = -0.308328  y = -2.266017  z = -3.454029 angstrom
           Maximum rank =  0   Radius =  0.650 angstrom
                   Q00  =  -0.245847

H          x =  0.480672  y = -1.446017  z = -1.617029 angstrom
           Maximum rank =  0   Radius =  0.325 angstrom
                   Q00  =   0.101086

H          x =  1.440672  y = -1.069017  z = -3.059029 angstrom
           Maximum rank =  0   Radius =  0.325 angstrom
                   Q00  =   0.061574

H          x = -0.083328  y = -0.220017  z = -2.779029 angstrom
           Maximum rank =  0   Radius =  0.325 angstrom
                   Q00  =   0.074718

H          x = -0.400328  y = -1.928017  z = -4.485029 angstrom
           Maximum rank =  0   Radius =  0.325 angstrom
                   Q00  =   0.050343

H          x = -1.315028  y = -2.475657  z = -3.063369 angstrom
           Maximum rank =  0   Radius =  0.325 angstrom
                   Q00  =   0.078543

H          x =  0.274142  y = -3.198987  z = -3.471369 angstrom
           Maximum rank =  0   Radius =  0.325 angstrom
                   Q00  =   0.067498

C          x = -0.592328  y =  0.862983  z =  0.367971 angstrom
           Maximum rank =  0   Radius =  0.650 angstrom
                   Q00  =  -0.116373

C          x = -1.700328  y =  1.711983  z =  0.946971 angstrom
           Maximum rank =  0   Radius =  0.650 angstrom
                   Q00  =  -0.191053

C          x =  0.429672  y =  0.437983  z =  1.397971 angstrom
           Maximum rank =  0   Radius =  0.650 angstrom
                   Q00  =   0.974958

O          x =  1.018672  y =  1.299983  z =  2.083971 angstrom
           Maximum rank =  0   Radius =  0.650 angstrom
                   Q00  =  -0.946713

O          x =  0.706672  y = -0.777017  z =  1.465971 angstrom
           Maximum rank =  0   Radius =  0.650 angstrom
                   Q00  =  -0.931880

H          x = -1.046328  y = -0.012017  z = -0.103029 angstrom
           Maximum rank =  0   Radius =  0.325 angstrom
                   Q00  =   0.015647

H          x = -0.050328  y =  1.404983  z = -0.408029 angstrom
           Maximum rank =  0   Radius =  0.325 angstrom
                   Q00  =   0.039113

H          x = -1.282328  y =  2.474983  z =  1.604971 angstrom
           Maximum rank =  0   Radius =  0.325 angstrom
                   Q00  =   0.085039

H          x = -2.355328  y =  1.073983  z =  1.536971 angstrom
           Maximum rank =  0   Radius =  0.325 angstrom
                   Q00  =   0.054023

H          x = -2.283758  y =  2.204993  z =  0.155421 angstrom
           Maximum rank =  0   Radius =  0.325 angstrom
                   Q00  =   0.021621

Total multipoles referred to origin at
           x =   0.000000,  y =    0.000000,  z =    0.000000 angstrom
                   Q00  =  -1.000000

Finished at 0:45:20 on 28 Apr 2020

  DMA results are available in the Python driver through the
	  variable('DMA DISTRIBUTED MULTIPOLES')
  and
	  variable('DMA TOTAL MULTIPOLES')
  commands.

    Psi4 stopped on: Tuesday, 28 April 2020 12:45AM
    Psi4 wall time for execution: 0:00:33.74

*** Psi4 exiting successfully. Buy a developer a beer!
