                               Psi4 1.3.2 release

  ==> Input File <==

--------------------------------------------------------------------------
import numpy as np
set {scf_type pk
basis cc-pvdz
d_convergence 10
gdma_switch   0
gdma_limit    0
gdma_origin   [ 0.0,  0.0,  0.0 ]
}
molecule test {
    units Angstrom
    0 1
    --
    0 1
    C               -0.875692381344790    -1.034561542750734    -2.069017322297841
    C               -2.338692381344790    -0.850561542750733    -2.473017322297841
    C               -0.533692381344790    -2.513561542750733    -1.774017322297841
    H               -0.210692381344790    -0.668561542750733    -2.850017322297841
    H               -0.691692381344790    -0.458561542750733    -1.164017322297841
    H               -2.960692381344790    -1.493561542750733    -1.848017322297841
    H               -2.469692381344790    -1.166561542750733    -3.509017322297841
    H                0.531307618655210    -2.558561542750733    -1.527017322297841
    H               -1.083692381344790    -2.816561542750733    -0.876017322297841
    H               -2.707482381344790     0.178398457249267    -2.349600322297841
    H               -0.742674381344790    -3.227461542750734    -2.584371322297841
    C                0.443307618655210     3.383438457249266    -0.130017322297841
    C                0.516307618655210    -0.694561542750733     1.310982677702159
    C                1.535307618655210    -0.267561542750733     0.457982677702159
    C               -0.455692381344790     0.181438457249267     1.748982677702159
    C                1.488307618655210     1.056438457249266    -0.035017322297841
    C               -0.512692381344790     1.491438457249267     1.262982677702159
    C                0.455307618655210     1.940438457249267     0.343982677702159
    O                0.557307618655210    -1.950561542750733     1.806982677702159
    H                2.332307618655210    -0.933561542750733     0.157982677702159
    H                1.295307618655210    -2.457561542750733     1.452982677702159
    H               -1.084692381344790    -0.236561542750733     2.493982677702158
    H                2.269307618655210     1.402438457249267    -0.694017322297841
    H               -1.325692381344790     2.140438457249267     1.541982677702159
    H               -0.535692381344790     3.830438457249266     0.047982677702159
    H                0.627307618655210     3.394438457249267    -1.203017322297841
    H                1.221472618655210     3.970428457249267     0.379792677702159

}
e, wfn = energy('scf', return_wfn=True)
gdma(wfn)
dmavals = variable('DMA DISTRIBUTED MULTIPOLES')
charges = np.array(dmavals)
print(charges)
np.save('SSI-152LYS-277TYR-1-dimer.npy', np.array(charges))--------------------------------------------------------------------------

*** tstart() called on ds3
*** at Mon Apr 27 23:30:58 2020

   => Loading Basis Set <=

    Name: CC-PVDZ
    Role: ORBITAL
    Keyword: BASIS
    atoms 1-3, 12-18  entry C          line   138 file /theoryfs2/ds/metcalf/miniconda2/envs/tf2gpu/share/psi4/basis/cc-pvdz.gbs
    atoms 4-11, 20-27 entry H          line    22 file /theoryfs2/ds/metcalf/miniconda2/envs/tf2gpu/share/psi4/basis/cc-pvdz.gbs
    atoms 19          entry O          line   198 file /theoryfs2/ds/metcalf/miniconda2/envs/tf2gpu/share/psi4/basis/cc-pvdz.gbs

         ---------------------------------------------------------
                                   SCF
               by Justin Turney, Rob Parrish, Andy Simmonett
                          and Daniel G. A. Smith
                              RHF Reference
                        1 Threads,    500 MiB Core
         ---------------------------------------------------------

  ==> Geometry <==

    Molecular point group: c1
    Full point group: C1

    Geometry (in Angstrom), charge = 0, multiplicity = 1:

       Center              X                  Y                   Z               Mass
    ------------   -----------------  -----------------  -----------------  -----------------
         C           -0.875692381345    -1.034561542751    -2.069017322298    12.000000000000
         C           -2.338692381345    -0.850561542751    -2.473017322298    12.000000000000
         C           -0.533692381345    -2.513561542751    -1.774017322298    12.000000000000
         H           -0.210692381345    -0.668561542751    -2.850017322298     1.007825032230
         H           -0.691692381345    -0.458561542751    -1.164017322298     1.007825032230
         H           -2.960692381345    -1.493561542751    -1.848017322298     1.007825032230
         H           -2.469692381345    -1.166561542751    -3.509017322298     1.007825032230
         H            0.531307618655    -2.558561542751    -1.527017322298     1.007825032230
         H           -1.083692381345    -2.816561542751    -0.876017322298     1.007825032230
         H           -2.707482381345     0.178398457249    -2.349600322298     1.007825032230
         H           -0.742674381345    -3.227461542751    -2.584371322298     1.007825032230
         C            0.443307618655     3.383438457249    -0.130017322298    12.000000000000
         C            0.516307618655    -0.694561542751     1.310982677702    12.000000000000
         C            1.535307618655    -0.267561542751     0.457982677702    12.000000000000
         C           -0.455692381345     0.181438457249     1.748982677702    12.000000000000
         C            1.488307618655     1.056438457249    -0.035017322298    12.000000000000
         C           -0.512692381345     1.491438457249     1.262982677702    12.000000000000
         C            0.455307618655     1.940438457249     0.343982677702    12.000000000000
         O            0.557307618655    -1.950561542751     1.806982677702    15.994914619570
         H            2.332307618655    -0.933561542751     0.157982677702     1.007825032230
         H            1.295307618655    -2.457561542751     1.452982677702     1.007825032230
         H           -1.084692381345    -0.236561542751     2.493982677702     1.007825032230
         H            2.269307618655     1.402438457249    -0.694017322298     1.007825032230
         H           -1.325692381345     2.140438457249     1.541982677702     1.007825032230
         H           -0.535692381345     3.830438457249     0.047982677702     1.007825032230
         H            0.627307618655     3.394438457249    -1.203017322298     1.007825032230
         H            1.221472618655     3.970428457249     0.379792677702     1.007825032230

  Running in c1 symmetry.

  Rotational constants: A =      0.03721  B =      0.02496  C =      0.01864 [cm^-1]
  Rotational constants: A =   1115.62225  B =    748.18294  C =    558.70808 [MHz]
  Nuclear repulsion =  600.924468460458229

  Charge       = 0
  Multiplicity = 1
  Electrons    = 84
  Nalpha       = 42
  Nbeta        = 42

  ==> Algorithm <==

  SCF Algorithm Type is PK.
  DIIS enabled.
  MOM disabled.
  Fractional occupation disabled.
  Guess Type is SAD.
  Energy threshold   = 1.00e-06
  Density threshold  = 1.00e-10
  Integral threshold = 0.00e+00

  ==> Primary Basis <==

  Basis Set: CC-PVDZ
    Blend: CC-PVDZ
    Number of shells: 114
    Number of basis function: 234
    Number of Cartesian functions: 245
    Spherical Harmonics?: true
    Max angular momentum: 2

  ==> Pre-Iterations <==

   -------------------------------------------------------
    Irrep   Nso     Nmo     Nalpha   Nbeta   Ndocc  Nsocc
   -------------------------------------------------------
     A        234     234       0       0       0       0
   -------------------------------------------------------
    Total     234     234      42      42      42       0
   -------------------------------------------------------

  ==> Integral Setup <==

  Using integral reordering PK algorithm.
  Sizing the integral batches needed.
  Building batch lookup table.
   Calculation information:
      Number of atoms:                  27
      Number of AO shells:             114
      Number of primitives:            322
      Number of atomic orbitals:       245
      Number of basis functions:       234

      Integral cutoff                 1.00e-12
      Number of threads:                 1

	Batch   1 pq = [       0,    9405] index = [             0,44231715] size =     44231715
	Batch   2 pq = [    9405,   13301] index = [      44231715,88464951] size =     44233236
	Batch   3 pq = [   13301,   16290] index = [      88464951,132690195] size =     44225244
	Batch   4 pq = [   16290,   18810] index = [     132690195,176917455] size =     44227260
	Batch   5 pq = [   18810,   21030] index = [     176917455,221140965] size =     44223510
	Batch   6 pq = [   21030,   23037] index = [     221140965,265363203] size =     44222238
	Batch   7 pq = [   23037,   24883] index = [     265363203,309594286] size =     44231083
	Batch   8 pq = [   24883,   26601] index = [     309594286,353819901] size =     44225615
	Batch   9 pq = [   26601,   27495] index = [     353819901,378001260] size =     24181359
  Task number: 35
  Buffer size: 11059200
  Buffer per thread: 2
  We computed 22646266 shell quartets total.
  Whereas there are 21487290 unique shell quartets.
     5.39 percent of shell quartets recomputed by reordering.

  ==> DiskJK: Disk-Based J/K Matrices <==

    J tasked:                  Yes
    K tasked:                  Yes
    wK tasked:                  No
    Memory [MiB]:              375
    Schwarz Cutoff:          1E-12

    OpenMP threads:              1

  Minimum eigenvalue in the overlap matrix is 3.5069738839E-04.
  Using Symmetric Orthogonalization.

  SCF Guess: Superposition of Atomic Densities via on-the-fly atomic UHF.

  ==> Iterations <==

                        Total Energy        Delta E     RMS |[F,P]|

   @RHF iter SAD:  -461.62390499400402   -4.61624e+02   0.00000e+00
   @RHF iter   1:  -462.60520409866888   -9.81299e-01   2.78977e-03 DIIS
   @RHF iter   2:  -462.84456268446189   -2.39359e-01   1.17357e-03 DIIS
   @RHF iter   3:  -462.88276737987098   -3.82047e-02   2.61485e-04 DIIS
   @RHF iter   4:  -462.88594067895315   -3.17330e-03   9.47698e-05 DIIS
   @RHF iter   5:  -462.88622662175101   -2.85943e-04   2.05892e-05 DIIS
   @RHF iter   6:  -462.88624578200506   -1.91603e-05   6.36098e-06 DIIS
   @RHF iter   7:  -462.88624771596074   -1.93396e-06   1.90852e-06 DIIS
   @RHF iter   8:  -462.88624796731978   -2.51359e-07   7.54878e-07 DIIS
   @RHF iter   9:  -462.88624801284425   -4.55245e-08   3.31785e-07 DIIS
   @RHF iter  10:  -462.88624802324966   -1.04054e-08   1.44720e-07 DIIS
   @RHF iter  11:  -462.88624802655477   -3.30510e-09   6.27787e-08 DIIS
   @RHF iter  12:  -462.88624802714241   -5.87647e-10   2.91987e-08 DIIS
   @RHF iter  13:  -462.88624802723285   -9.04379e-11   8.47474e-09 DIIS
   @RHF iter  14:  -462.88624802723780   -4.94538e-12   2.08781e-09 DIIS
   @RHF iter  15:  -462.88624802723939   -1.59162e-12   7.09458e-10 DIIS
   @RHF iter  16:  -462.88624802723956   -1.70530e-13   2.09509e-10 DIIS
   @RHF iter  17:  -462.88624802723609    3.46745e-12   7.47519e-11 DIIS
  Energy and wave function converged.

  ==> Post-Iterations <==

    Orbital Energies [Eh]
    ---------------------

    Doubly Occupied:

       1A    -20.584400     2A    -11.297451     3A    -11.244286
       4A    -11.243756     5A    -11.239552     6A    -11.236798
       7A    -11.230818     8A    -11.228012     9A    -11.212397
      10A    -11.209289    11A    -11.207580    12A     -1.406619
      13A     -1.146494    14A     -1.041396    15A     -1.036593
      16A     -1.015904    17A     -0.927198    18A     -0.915571
      19A     -0.849294    20A     -0.799969    21A     -0.789556
      22A     -0.734635    23A     -0.664528    24A     -0.648735
      25A     -0.617801    26A     -0.609244    27A     -0.592505
      28A     -0.586674    29A     -0.581046    30A     -0.572835
      31A     -0.568461    32A     -0.540289    33A     -0.527880
      34A     -0.523076    35A     -0.499824    36A     -0.484520
      37A     -0.475890    38A     -0.464668    39A     -0.457190
      40A     -0.447624    41A     -0.337252    42A     -0.301687

    Virtual:

      43A      0.123499    44A      0.153706    45A      0.166641
      46A      0.181915    47A      0.202109    48A      0.216480
      49A      0.218418    50A      0.242804    51A      0.247705
      52A      0.255368    53A      0.260387    54A      0.265926
      55A      0.273963    56A      0.279742    57A      0.290179
      58A      0.301938    59A      0.309570    60A      0.334762
      61A      0.363390    62A      0.369941    63A      0.385086
      64A      0.427324    65A      0.432049    66A      0.451955
      67A      0.476870    68A      0.487248    69A      0.501559
      70A      0.581961    71A      0.594260    72A      0.602214
      73A      0.610648    74A      0.618979    75A      0.620645
      76A      0.638324    77A      0.650912    78A      0.665018
      79A      0.695453    80A      0.703071    81A      0.726803
      82A      0.743467    83A      0.744269    84A      0.765990
      85A      0.770416    86A      0.777315    87A      0.797910
      88A      0.802951    89A      0.820393    90A      0.833308
      91A      0.838478    92A      0.862414    93A      0.865014
      94A      0.869050    95A      0.878298    96A      0.884463
      97A      0.891268    98A      0.897826    99A      0.904130
     100A      0.907123   101A      0.911977   102A      0.917318
     103A      0.923456   104A      0.929177   105A      0.933565
     106A      0.944203   107A      0.947064   108A      0.968962
     109A      0.978369   110A      0.992919   111A      0.995999
     112A      1.025470   113A      1.052949   114A      1.110921
     115A      1.113770   116A      1.129980   117A      1.136293
     118A      1.149573   119A      1.163172   120A      1.176318
     121A      1.205460   122A      1.222099   123A      1.236835
     124A      1.259629   125A      1.276114   126A      1.286981
     127A      1.299208   128A      1.314522   129A      1.327513
     130A      1.362300   131A      1.376887   132A      1.395249
     133A      1.412329   134A      1.455202   135A      1.480121
     136A      1.486272   137A      1.513199   138A      1.532772
     139A      1.547292   140A      1.565318   141A      1.619190
     142A      1.625398   143A      1.652231   144A      1.678030
     145A      1.684610   146A      1.689054   147A      1.696377
     148A      1.722528   149A      1.727576   150A      1.749498
     151A      1.778543   152A      1.809563   153A      1.829941
     154A      1.849131   155A      1.855979   156A      1.871737
     157A      1.883949   158A      1.889318   159A      1.891664
     160A      1.911584   161A      1.917902   162A      1.924988
     163A      1.935423   164A      1.941850   165A      1.943031
     166A      1.951471   167A      1.964723   168A      1.970510
     169A      1.974912   170A      1.985001   171A      1.993009
     172A      2.005375   173A      2.007627   174A      2.026255
     175A      2.033240   176A      2.046826   177A      2.050907
     178A      2.066440   179A      2.070446   180A      2.100166
     181A      2.118988   182A      2.131848   183A      2.153041
     184A      2.166736   185A      2.187465   186A      2.214573
     187A      2.227616   188A      2.249341   189A      2.278013
     190A      2.298794   191A      2.303068   192A      2.318915
     193A      2.330671   194A      2.342060   195A      2.362212
     196A      2.393765   197A      2.401647   198A      2.463131
     199A      2.476411   200A      2.491047   201A      2.497598
     202A      2.516887   203A      2.545626   204A      2.569143
     205A      2.590179   206A      2.600547   207A      2.629801
     208A      2.636512   209A      2.655703   210A      2.743860
     211A      2.758572   212A      2.770458   213A      2.781827
     214A      2.791254   215A      2.797408   216A      2.826271
     217A      2.829349   218A      2.840949   219A      2.877870
     220A      2.917095   221A      2.933098   222A      2.978948
     223A      2.994988   224A      3.019040   225A      3.067345
     226A      3.090957   227A      3.097370   228A      3.252880
     229A      3.288814   230A      3.353614   231A      3.589086
     232A      3.670228   233A      3.966165   234A      4.190770

    Final Occupation by Irrep:
              A
    DOCC [    42 ]

  @RHF Final Energy:  -462.88624802723609

   => Energetics <=

    Nuclear Repulsion Energy =            600.9244684604582289
    One-Electron Energy =               -1819.4228365465269235
    Two-Electron Energy =                 755.6121200588326019
    Total Energy =                       -462.8862480272360926

Computation Completed

Properties will be evaluated at   0.000000,   0.000000,   0.000000 [a0]

Properties computed using the SCF density matrix

  Nuclear Dipole Moment: [e a0]
     X:    -5.1869      Y:    -1.0415      Z:   -11.7382

  Electronic Dipole Moment: [e a0]
     X:     5.6951      Y:     1.1934      Z:    11.5158

  Dipole Moment: [e a0]
     X:     0.5083      Y:     0.1520      Z:    -0.2224     Total:     0.5752

  Dipole Moment: [D]
     X:     1.2919      Y:     0.3863      Z:    -0.5653     Total:     1.4621

*** tstop() called on ds3 at Mon Apr 27 23:35:04 2020
Module time:
	user time   =     188.64 seconds =       3.14 minutes
	system time =      66.17 seconds =       1.10 minutes
	total time  =        246 seconds =       4.10 minutes
Total time:
	user time   =     188.64 seconds =       3.14 minutes
	system time =      66.17 seconds =       1.10 minutes
	total time  =        246 seconds =       4.10 minutes
                                     G D M A

                                 by Anthony Stone

                           version 2.2.06, 22 June 2011

               Distributed Multipoles from Gaussian wavefunctions

Starting at 23:35:4 on 27 Apr 2020

Using SCF density matrix from file ./SSI/SSI-152LYS-277TYR-1-dimer.test.3075.fchk

                         Distributed Multipole Analysis

Standard DMA

Positions and radii in angstrom
Multipole moments in atomic units, ea_0^k for rank k

C          x = -0.875692  y = -1.034562  z = -2.069017 angstrom
           Maximum rank =  0   Radius =  0.650 angstrom
                   Q00  =  -0.073237

C          x = -2.338692  y = -0.850562  z = -2.473017 angstrom
           Maximum rank =  0   Radius =  0.650 angstrom
                   Q00  =  -0.246663

C          x = -0.533692  y = -2.513562  z = -1.774017 angstrom
           Maximum rank =  0   Radius =  0.650 angstrom
                   Q00  =  -0.249482

H          x = -0.210692  y = -0.668562  z = -2.850017 angstrom
           Maximum rank =  0   Radius =  0.325 angstrom
                   Q00  =   0.040341

H          x = -0.691692  y = -0.458562  z = -1.164017 angstrom
           Maximum rank =  0   Radius =  0.325 angstrom
                   Q00  =   0.066176

H          x = -2.960692  y = -1.493562  z = -1.848017 angstrom
           Maximum rank =  0   Radius =  0.325 angstrom
                   Q00  =   0.071203

H          x = -2.469692  y = -1.166562  z = -3.509017 angstrom
           Maximum rank =  0   Radius =  0.325 angstrom
                   Q00  =   0.073214

H          x =  0.531308  y = -2.558562  z = -1.527017 angstrom
           Maximum rank =  0   Radius =  0.325 angstrom
                   Q00  =   0.067112

H          x = -1.083692  y = -2.816562  z = -0.876017 angstrom
           Maximum rank =  0   Radius =  0.325 angstrom
                   Q00  =   0.080784

H          x = -2.707482  y =  0.178398  z = -2.349600 angstrom
           Maximum rank =  0   Radius =  0.325 angstrom
                   Q00  =   0.080988

H          x = -0.742674  y = -3.227462  z = -2.584371 angstrom
           Maximum rank =  0   Radius =  0.325 angstrom
                   Q00  =   0.079007

C          x =  0.443308  y =  3.383438  z = -0.130017 angstrom
           Maximum rank =  0   Radius =  0.650 angstrom
                   Q00  =  -0.192412

C          x =  0.516308  y = -0.694562  z =  1.310983 angstrom
           Maximum rank =  0   Radius =  0.650 angstrom
                   Q00  =   0.353240

C          x =  1.535308  y = -0.267562  z =  0.457983 angstrom
           Maximum rank =  0   Radius =  0.650 angstrom
                   Q00  =  -0.187514

C          x = -0.455692  y =  0.181438  z =  1.748983 angstrom
           Maximum rank =  0   Radius =  0.650 angstrom
                   Q00  =  -0.024110

C          x =  1.488308  y =  1.056438  z = -0.035017 angstrom
           Maximum rank =  0   Radius =  0.650 angstrom
                   Q00  =  -0.068393

C          x = -0.512692  y =  1.491438  z =  1.262983 angstrom
           Maximum rank =  0   Radius =  0.650 angstrom
                   Q00  =  -0.058262

C          x =  0.455308  y =  1.940438  z =  0.343983 angstrom
           Maximum rank =  0   Radius =  0.650 angstrom
                   Q00  =  -0.143436

O          x =  0.557308  y = -1.950562  z =  1.806983 angstrom
           Maximum rank =  0   Radius =  0.650 angstrom
                   Q00  =  -0.671179

H          x =  2.332308  y = -0.933562  z =  0.157983 angstrom
           Maximum rank =  0   Radius =  0.325 angstrom
                   Q00  =   0.074849

H          x =  1.295308  y = -2.457562  z =  1.452983 angstrom
           Maximum rank =  0   Radius =  0.325 angstrom
                   Q00  =   0.409508

H          x = -1.084692  y = -0.236562  z =  2.493983 angstrom
           Maximum rank =  0   Radius =  0.325 angstrom
                   Q00  =   0.081770

H          x =  2.269308  y =  1.402438  z = -0.694017 angstrom
           Maximum rank =  0   Radius =  0.325 angstrom
                   Q00  =   0.070540

H          x = -1.325692  y =  2.140438  z =  1.541983 angstrom
           Maximum rank =  0   Radius =  0.325 angstrom
                   Q00  =   0.069601

H          x = -0.535692  y =  3.830438  z =  0.047983 angstrom
           Maximum rank =  0   Radius =  0.325 angstrom
                   Q00  =   0.098464

H          x =  0.627308  y =  3.394438  z = -1.203017 angstrom
           Maximum rank =  0   Radius =  0.325 angstrom
                   Q00  =   0.097504

H          x =  1.221473  y =  3.970428  z =  0.379793 angstrom
           Maximum rank =  0   Radius =  0.325 angstrom
                   Q00  =   0.100388

Total multipoles referred to origin at
           x =   0.000000,  y =    0.000000,  z =    0.000000 angstrom
                   Q00  =  -0.000000

Finished at 23:35:4 on 27 Apr 2020

  DMA results are available in the Python driver through the
	  variable('DMA DISTRIBUTED MULTIPOLES')
  and
	  variable('DMA TOTAL MULTIPOLES')
  commands.

    Psi4 stopped on: Monday, 27 April 2020 11:35PM
    Psi4 wall time for execution: 0:04:06.14

*** Psi4 exiting successfully. Buy a developer a beer!
