                               Psi4 1.3.2 release

  ==> Input File <==

--------------------------------------------------------------------------
import numpy as np
set {scf_type pk
basis cc-pvdz
d_convergence 10
gdma_switch   0
gdma_limit    0
gdma_origin   [ 0.0,  0.0,  0.0 ]
}
molecule test {
    units Angstrom
    0 1
    --
    0 1
    C                1.774920362976507    -0.352197334292319    -0.461333809152736
    C                2.373920362976508    -1.733197334292319    -0.232333809152736
    H                0.701920362976507    -0.424197334292319    -0.571333809152736
    H                2.023920362976507     0.312802665707681     0.365666190847264
    H                2.182920362976507     0.064802665707681    -1.383333809152737
    H                3.446920362976507    -1.664197334292319    -0.416333809152736
    H                1.951580362976507    -2.479805334292319    -0.920963809152736
    H                2.237160362976507    -2.056949334292319     0.810006190847264
    C               -1.357079637023493     0.856802665707681     0.458666190847264
    C               -2.801079637023492     1.224802665707681     0.238666190847264
    H               -1.236079637023493    -0.220197334292319     0.347666190847264
    H               -0.728079637023493     1.387802665707681    -0.257333809152736
    H               -1.056079637023493     1.144802665707681     1.466666190847264
    H               -2.912079637023492     2.300802665707681     0.378666190847264
    H               -3.465239637023493     0.703523665707681     0.943756190847264
    H               -3.035909637023492     0.975928665707681    -0.806763809152736

}
e, wfn = energy('scf', return_wfn=True)
gdma(wfn)
dmavals = variable('DMA DISTRIBUTED MULTIPOLES')
charges = np.array(dmavals)
print(charges)
np.save('SSI-055THR-072THR-1-dimer.npy', np.array(charges))--------------------------------------------------------------------------

*** tstart() called on ds3
*** at Tue Apr 28 11:54:19 2020

   => Loading Basis Set <=

    Name: CC-PVDZ
    Role: ORBITAL
    Keyword: BASIS
    atoms 1-2, 9-10  entry C          line   138 file /theoryfs2/ds/metcalf/miniconda2/envs/tf2gpu/share/psi4/basis/cc-pvdz.gbs
    atoms 3-8, 11-16 entry H          line    22 file /theoryfs2/ds/metcalf/miniconda2/envs/tf2gpu/share/psi4/basis/cc-pvdz.gbs

         ---------------------------------------------------------
                                   SCF
               by Justin Turney, Rob Parrish, Andy Simmonett
                          and Daniel G. A. Smith
                              RHF Reference
                        1 Threads,    500 MiB Core
         ---------------------------------------------------------

  ==> Geometry <==

    Molecular point group: c1
    Full point group: C1

    Geometry (in Angstrom), charge = 0, multiplicity = 1:

       Center              X                  Y                   Z               Mass
    ------------   -----------------  -----------------  -----------------  -----------------
         C            1.774920362977    -0.352197334292    -0.461333809153    12.000000000000
         C            2.373920362977    -1.733197334292    -0.232333809153    12.000000000000
         H            0.701920362977    -0.424197334292    -0.571333809153     1.007825032230
         H            2.023920362977     0.312802665708     0.365666190847     1.007825032230
         H            2.182920362977     0.064802665708    -1.383333809153     1.007825032230
         H            3.446920362977    -1.664197334292    -0.416333809153     1.007825032230
         H            1.951580362977    -2.479805334292    -0.920963809153     1.007825032230
         H            2.237160362977    -2.056949334292     0.810006190847     1.007825032230
         C           -1.357079637023     0.856802665708     0.458666190847    12.000000000000
         C           -2.801079637023     1.224802665708     0.238666190847    12.000000000000
         H           -1.236079637023    -0.220197334292     0.347666190847     1.007825032230
         H           -0.728079637023     1.387802665708    -0.257333809153     1.007825032230
         H           -1.056079637023     1.144802665708     1.466666190847     1.007825032230
         H           -2.912079637023     2.300802665708     0.378666190847     1.007825032230
         H           -3.465239637023     0.703523665708     0.943756190847     1.007825032230
         H           -3.035909637023     0.975928665708    -0.806763809153     1.007825032230

  Running in c1 symmetry.

  Rotational constants: A =      0.71518  B =      0.04525  C =      0.04446 [cm^-1]
  Rotational constants: A =  21440.67045  B =   1356.65807  C =   1332.79209 [MHz]
  Nuclear repulsion =  122.592367311168076

  Charge       = 0
  Multiplicity = 1
  Electrons    = 36
  Nalpha       = 18
  Nbeta        = 18

  ==> Algorithm <==

  SCF Algorithm Type is PK.
  DIIS enabled.
  MOM disabled.
  Fractional occupation disabled.
  Guess Type is SAD.
  Energy threshold   = 1.00e-06
  Density threshold  = 1.00e-10
  Integral threshold = 0.00e+00

  ==> Primary Basis <==

  Basis Set: CC-PVDZ
    Blend: CC-PVDZ
    Number of shells: 60
    Number of basis function: 116
    Number of Cartesian functions: 120
    Spherical Harmonics?: true
    Max angular momentum: 2

  ==> Pre-Iterations <==

   -------------------------------------------------------
    Irrep   Nso     Nmo     Nalpha   Nbeta   Ndocc  Nsocc
   -------------------------------------------------------
     A        116     116       0       0       0       0
   -------------------------------------------------------
    Total     116     116      18      18      18       0
   -------------------------------------------------------

  ==> Integral Setup <==

  Using integral reordering PK algorithm.
  Sizing the integral batches needed.
  Building batch lookup table.
   Calculation information:
      Number of atoms:                  16
      Number of AO shells:              60
      Number of primitives:            148
      Number of atomic orbitals:       120
      Number of basis functions:       116

      Integral cutoff                 1.00e-12
      Number of threads:                 1

	Batch   1 pq = [       0,    6786] index = [             0,23028291] size =     23028291
  Task number: 3
  Buffer size: 11059200
  Buffer per thread: 2
  We computed 1411047 shell quartets total.
  Whereas there are 1675365 unique shell quartets.

  ==> DiskJK: Disk-Based J/K Matrices <==

    J tasked:                  Yes
    K tasked:                  Yes
    wK tasked:                  No
    Memory [MiB]:              375
    Schwarz Cutoff:          1E-12

    OpenMP threads:              1

  Minimum eigenvalue in the overlap matrix is 6.2679896241E-03.
  Using Symmetric Orthogonalization.

  SCF Guess: Superposition of Atomic Densities via on-the-fly atomic UHF.

  ==> Iterations <==

                        Total Energy        Delta E     RMS |[F,P]|

   @RHF iter SAD:  -157.42712486321582   -1.57427e+02   0.00000e+00
   @RHF iter   1:  -158.30018168788706   -8.73057e-01   4.25902e-03 DIIS
   @RHF iter   2:  -158.43627023209783   -1.36089e-01   1.81096e-03 DIIS
   @RHF iter   3:  -158.46004675162797   -2.37765e-02   3.53619e-04 DIIS
   @RHF iter   4:  -158.46191676989739   -1.87002e-03   3.97850e-05 DIIS
   @RHF iter   5:  -158.46194152361940   -2.47537e-05   7.43705e-06 DIIS
   @RHF iter   6:  -158.46194227509463   -7.51475e-07   1.59683e-06 DIIS
   @RHF iter   7:  -158.46194229882678   -2.37322e-08   3.25593e-07 DIIS
   @RHF iter   8:  -158.46194229996416   -1.13738e-09   4.55664e-08 DIIS
   @RHF iter   9:  -158.46194229999821   -3.40492e-11   1.04207e-08 DIIS
   @RHF iter  10:  -158.46194230000035   -2.13163e-12   3.01029e-09 DIIS
   @RHF iter  11:  -158.46194230000029    5.68434e-14   8.72551e-10 DIIS
   @RHF iter  12:  -158.46194230000083   -5.40012e-13   1.82572e-10 DIIS
   @RHF iter  13:  -158.46194230000032    5.11591e-13   2.75163e-11 DIIS
  Energy and wave function converged.

  ==> Post-Iterations <==

    Orbital Energies [Eh]
    ---------------------

    Doubly Occupied:

       1A    -11.217179     2A    -11.216879     3A    -11.214517
       4A    -11.211970     5A     -1.025384     6A     -1.017491
       7A     -0.839371     8A     -0.828868     9A     -0.605970
      10A     -0.602798    11A     -0.596979    12A     -0.594011
      13A     -0.509956    14A     -0.497352    15A     -0.487646
      16A     -0.485192    17A     -0.482087    18A     -0.471418

    Virtual:

      19A      0.177426    20A      0.194410    21A      0.224226
      22A      0.241082    23A      0.247875    24A      0.256736
      25A      0.263389    26A      0.277463    27A      0.282375
      28A      0.289083    29A      0.296585    30A      0.346637
      31A      0.393850    32A      0.412895    33A      0.565226
      34A      0.597686    35A      0.602018    36A      0.605056
      37A      0.614107    38A      0.632471    39A      0.682549
      40A      0.688543    41A      0.712553    42A      0.789558
      43A      0.853998    44A      0.879793    45A      0.887654
      46A      0.893111    47A      0.894080    48A      0.896287
      49A      0.902581    50A      0.910204    51A      0.916793
      52A      0.923619    53A      0.927555    54A      0.951881
      55A      0.977686    56A      0.990809    57A      1.121767
      58A      1.127425    59A      1.132049    60A      1.181793
      61A      1.237656    62A      1.264738    63A      1.476682
      64A      1.480353    65A      1.485874    66A      1.502708
      67A      1.566442    68A      1.597858    69A      1.672479
      70A      1.685402    71A      1.689621    72A      1.705825
      73A      1.846845    74A      1.865291    75A      1.871054
      76A      1.881981    77A      1.899940    78A      1.920075
      79A      1.937403    80A      1.938761    81A      1.943602
      82A      1.946843    83A      1.952285    84A      1.965664
      85A      1.972668    86A      1.986400    87A      2.009996
      88A      2.048081    89A      2.095016    90A      2.116607
      91A      2.130862    92A      2.174394    93A      2.300362
      94A      2.306037    95A      2.315820    96A      2.333179
      97A      2.436481    98A      2.451975    99A      2.466889
     100A      2.490855   101A      2.563800   102A      2.574802
     103A      2.588873   104A      2.602927   105A      2.761363
     106A      2.763017   107A      2.789077   108A      2.799111
     109A      2.833581   110A      2.849821   111A      2.859514
     112A      2.863041   113A      2.947550   114A      2.956382
     115A      2.964752   116A      2.988058

    Final Occupation by Irrep:
              A
    DOCC [    18 ]

  @RHF Final Energy:  -158.46194230000032

   => Energetics <=

    Nuclear Repulsion Energy =            122.5923673111680756
    One-Electron Energy =                -454.2984822045930287
    Two-Electron Energy =                 173.2441725934246506
    Total Energy =                       -158.4619423000003167

Computation Completed

Properties will be evaluated at   0.000000,   0.000000,   0.000000 [a0]

Properties computed using the SCF density matrix

  Nuclear Dipole Moment: [e a0]
     X:     0.1040      Y:     0.0423      Z:    -0.0409

  Electronic Dipole Moment: [e a0]
     X:    -0.1179      Y:    -0.0138      Z:     0.0439

  Dipole Moment: [e a0]
     X:    -0.0139      Y:     0.0285      Z:     0.0030     Total:     0.0318

  Dipole Moment: [D]
     X:    -0.0352      Y:     0.0724      Z:     0.0076     Total:     0.0809

*** tstop() called on ds3 at Tue Apr 28 11:54:31 2020
Module time:
	user time   =       8.04 seconds =       0.13 minutes
	system time =       3.43 seconds =       0.06 minutes
	total time  =         12 seconds =       0.20 minutes
Total time:
	user time   =       8.04 seconds =       0.13 minutes
	system time =       3.43 seconds =       0.06 minutes
	total time  =         12 seconds =       0.20 minutes
                                     G D M A

                                 by Anthony Stone

                           version 2.2.06, 22 June 2011

               Distributed Multipoles from Gaussian wavefunctions

Starting at 11:54:31 on 28 Apr 2020

Using SCF density matrix from file ./SSI/SSI-055THR-072THR-1-dimer.test.19087.fchk

                         Distributed Multipole Analysis

Standard DMA

Positions and radii in angstrom
Multipole moments in atomic units, ea_0^k for rank k

C          x =  1.774920  y = -0.352197  z = -0.461334 angstrom
           Maximum rank =  0   Radius =  0.650 angstrom
                   Q00  =  -0.234594

C          x =  2.373920  y = -1.733197  z = -0.232334 angstrom
           Maximum rank =  0   Radius =  0.650 angstrom
                   Q00  =  -0.236338

H          x =  0.701920  y = -0.424197  z = -0.571334 angstrom
           Maximum rank =  0   Radius =  0.325 angstrom
                   Q00  =   0.086514

H          x =  2.023920  y =  0.312803  z =  0.365666 angstrom
           Maximum rank =  0   Radius =  0.325 angstrom
                   Q00  =   0.078728

H          x =  2.182920  y =  0.064803  z = -1.383334 angstrom
           Maximum rank =  0   Radius =  0.325 angstrom
                   Q00  =   0.073447

H          x =  3.446920  y = -1.664197  z = -0.416334 angstrom
           Maximum rank =  0   Radius =  0.325 angstrom
                   Q00  =   0.074431

H          x =  1.951580  y = -2.479805  z = -0.920964 angstrom
           Maximum rank =  0   Radius =  0.325 angstrom
                   Q00  =   0.078633

H          x =  2.237160  y = -2.056949  z =  0.810006 angstrom
           Maximum rank =  0   Radius =  0.325 angstrom
                   Q00  =   0.077181

C          x = -1.357080  y =  0.856803  z =  0.458666 angstrom
           Maximum rank =  0   Radius =  0.650 angstrom
                   Q00  =  -0.226629

C          x = -2.801080  y =  1.224803  z =  0.238666 angstrom
           Maximum rank =  0   Radius =  0.650 angstrom
                   Q00  =  -0.225420

H          x = -1.236080  y = -0.220197  z =  0.347666 angstrom
           Maximum rank =  0   Radius =  0.325 angstrom
                   Q00  =   0.072191

H          x = -0.728080  y =  1.387803  z = -0.257334 angstrom
           Maximum rank =  0   Radius =  0.325 angstrom
                   Q00  =   0.076913

H          x = -1.056080  y =  1.144803  z =  1.466666 angstrom
           Maximum rank =  0   Radius =  0.325 angstrom
                   Q00  =   0.076213

H          x = -2.912080  y =  2.300803  z =  0.378666 angstrom
           Maximum rank =  0   Radius =  0.325 angstrom
                   Q00  =   0.076404

H          x = -3.465240  y =  0.703524  z =  0.943756 angstrom
           Maximum rank =  0   Radius =  0.325 angstrom
                   Q00  =   0.079598

H          x = -3.035910  y =  0.975929  z = -0.806764 angstrom
           Maximum rank =  0   Radius =  0.325 angstrom
                   Q00  =   0.072725

Total multipoles referred to origin at
           x =   0.000000,  y =    0.000000,  z =    0.000000 angstrom
                   Q00  =  -0.000000

Finished at 11:54:31 on 28 Apr 2020

  DMA results are available in the Python driver through the
	  variable('DMA DISTRIBUTED MULTIPOLES')
  and
	  variable('DMA TOTAL MULTIPOLES')
  commands.

    Psi4 stopped on: Tuesday, 28 April 2020 11:54AM
    Psi4 wall time for execution: 0:00:12.14

*** Psi4 exiting successfully. Buy a developer a beer!
