                               Psi4 1.3.2 release

  ==> Input File <==

--------------------------------------------------------------------------
import numpy as np
set {scf_type pk
basis cc-pvdz
d_convergence 10
gdma_switch   0
gdma_limit    0
gdma_origin   [ 0.0,  0.0,  0.0 ]
}
molecule test {
    units Angstrom
    -1 1
    --
    -1 1
    C                0.362105013350509     1.573059242788771     0.746852924690460
    C                1.821105013350509     1.216059242788771     0.920852924690460
    C                0.025105013350509     1.980059242788771    -0.700147075309540
    O                0.910105013350509     2.120059242788770    -1.588147075309540
    O               -1.197894986649491     2.145059242788770    -0.889147075309540
    H               -0.280894986649491     0.747059242788771     1.024852924690460
    H                0.108105013350509     2.393059242788771     1.420852924690460
    H                2.200105013350509     0.735059242788771     0.020852924690460
    H                1.945865013350509     0.554979242788771     1.791140924690459
    H                2.377925013350509     2.142179242788771     1.126415924690460
    C               -0.362894986649491    -2.004940757211229     0.631852924690460
    C               -0.413894986649491    -3.345940757211229     1.378852924690460
    C                0.616105013350509    -2.037940757211229    -0.521147075309540
    C               -1.771894986649491    -1.670940757211229     0.101852924690460
    H               -0.039894986649491    -1.257940757211229     1.343852924690460
    H                0.600105013350509    -3.677940757211229     1.597852924690460
    H               -0.867894986649491    -4.090940757211230     0.724852924690460
    H                0.323105013350509    -2.805940757211229    -1.237147075309540
    H                0.630105013350509    -1.070940757211229    -1.023147075309540
    H                1.617105013350509    -2.252940757211229    -0.150147075309540
    H               -2.452894986649491    -1.431940757211229     0.915852924690460
    H               -1.716894986649491    -0.793940757211229    -0.542147075309540
    H               -2.166894986649491    -2.504940757211230    -0.479147075309540
    H               -0.992744986649491    -3.288130757211229     2.312440924690460

}
e, wfn = energy('scf', return_wfn=True)
gdma(wfn)
dmavals = variable('DMA DISTRIBUTED MULTIPOLES')
charges = np.array(dmavals)
print(charges)
np.save('SSI-114ASP-179LEU-1-dimer.npy', np.array(charges))--------------------------------------------------------------------------

*** tstart() called on ds3
*** at Tue Apr 28 15:45:50 2020

   => Loading Basis Set <=

    Name: CC-PVDZ
    Role: ORBITAL
    Keyword: BASIS
    atoms 1-3, 11-14  entry C          line   138 file /theoryfs2/ds/metcalf/miniconda2/envs/tf2gpu/share/psi4/basis/cc-pvdz.gbs
    atoms 4-5         entry O          line   198 file /theoryfs2/ds/metcalf/miniconda2/envs/tf2gpu/share/psi4/basis/cc-pvdz.gbs
    atoms 6-10, 15-24 entry H          line    22 file /theoryfs2/ds/metcalf/miniconda2/envs/tf2gpu/share/psi4/basis/cc-pvdz.gbs

         ---------------------------------------------------------
                                   SCF
               by Justin Turney, Rob Parrish, Andy Simmonett
                          and Daniel G. A. Smith
                              RHF Reference
                        1 Threads,    500 MiB Core
         ---------------------------------------------------------

  ==> Geometry <==

    Molecular point group: c1
    Full point group: C1

    Geometry (in Angstrom), charge = -1, multiplicity = 1:

       Center              X                  Y                   Z               Mass
    ------------   -----------------  -----------------  -----------------  -----------------
         C            0.362105013351     1.573059242789     0.746852924690    12.000000000000
         C            1.821105013351     1.216059242789     0.920852924690    12.000000000000
         C            0.025105013351     1.980059242789    -0.700147075310    12.000000000000
         O            0.910105013351     2.120059242789    -1.588147075310    15.994914619570
         O           -1.197894986649     2.145059242789    -0.889147075310    15.994914619570
         H           -0.280894986649     0.747059242789     1.024852924690     1.007825032230
         H            0.108105013351     2.393059242789     1.420852924690     1.007825032230
         H            2.200105013351     0.735059242789     0.020852924690     1.007825032230
         H            1.945865013351     0.554979242789     1.791140924690     1.007825032230
         H            2.377925013351     2.142179242789     1.126415924690     1.007825032230
         C           -0.362894986649    -2.004940757211     0.631852924690    12.000000000000
         C           -0.413894986649    -3.345940757211     1.378852924690    12.000000000000
         C            0.616105013351    -2.037940757211    -0.521147075310    12.000000000000
         C           -1.771894986649    -1.670940757211     0.101852924690    12.000000000000
         H           -0.039894986649    -1.257940757211     1.343852924690     1.007825032230
         H            0.600105013351    -3.677940757211     1.597852924690     1.007825032230
         H           -0.867894986649    -4.090940757211     0.724852924690     1.007825032230
         H            0.323105013351    -2.805940757211    -1.237147075310     1.007825032230
         H            0.630105013351    -1.070940757211    -1.023147075310     1.007825032230
         H            1.617105013351    -2.252940757211    -0.150147075310     1.007825032230
         H           -2.452894986649    -1.431940757211     0.915852924690     1.007825032230
         H           -1.716894986649    -0.793940757211    -0.542147075310     1.007825032230
         H           -2.166894986649    -2.504940757211    -0.479147075310     1.007825032230
         H           -0.992744986649    -3.288130757211     2.312440924690     1.007825032230

  Running in c1 symmetry.

  Rotational constants: A =      0.07257  B =      0.02356  C =      0.02131 [cm^-1]
  Rotational constants: A =   2175.56405  B =    706.26238  C =    638.75458 [MHz]
  Nuclear repulsion =  460.548021849550196

  Charge       = -1
  Multiplicity = 1
  Electrons    = 74
  Nalpha       = 37
  Nbeta        = 37

  ==> Algorithm <==

  SCF Algorithm Type is PK.
  DIIS enabled.
  MOM disabled.
  Fractional occupation disabled.
  Guess Type is SAD.
  Energy threshold   = 1.00e-06
  Density threshold  = 1.00e-10
  Integral threshold = 0.00e+00

  ==> Primary Basis <==

  Basis Set: CC-PVDZ
    Blend: CC-PVDZ
    Number of shells: 99
    Number of basis function: 201
    Number of Cartesian functions: 210
    Spherical Harmonics?: true
    Max angular momentum: 2

  ==> Pre-Iterations <==

   -------------------------------------------------------
    Irrep   Nso     Nmo     Nalpha   Nbeta   Ndocc  Nsocc
   -------------------------------------------------------
     A        201     201       0       0       0       0
   -------------------------------------------------------
    Total     201     201      37      37      37       0
   -------------------------------------------------------

  ==> Integral Setup <==

  Using integral reordering PK algorithm.
  Sizing the integral batches needed.
  Building batch lookup table.
   Calculation information:
      Number of atoms:                  24
      Number of AO shells:              99
      Number of primitives:            273
      Number of atomic orbitals:       210
      Number of basis functions:       201

      Integral cutoff                 1.00e-12
      Number of threads:                 1

	Batch   1 pq = [       0,    9405] index = [             0,44231715] size =     44231715
	Batch   2 pq = [    9405,   13301] index = [      44231715,88464951] size =     44233236
	Batch   3 pq = [   13301,   16290] index = [      88464951,132690195] size =     44225244
	Batch   4 pq = [   16290,   18810] index = [     132690195,176917455] size =     44227260
	Batch   5 pq = [   18810,   20301] index = [     176917455,206075451] size =     29157996
  Task number: 19
  Buffer size: 11059200
  Buffer per thread: 2
  We computed 11768768 shell quartets total.
  Whereas there are 12253725 unique shell quartets.

  ==> DiskJK: Disk-Based J/K Matrices <==

    J tasked:                  Yes
    K tasked:                  Yes
    wK tasked:                  No
    Memory [MiB]:              375
    Schwarz Cutoff:          1E-12

    OpenMP threads:              1

  Minimum eigenvalue in the overlap matrix is 3.5665665942E-03.
  Using Symmetric Orthogonalization.

  SCF Guess: Superposition of Atomic Densities via on-the-fly atomic UHF.

  ==> Iterations <==

                        Total Energy        Delta E     RMS |[F,P]|

   @RHF iter SAD:  -421.98356706885409   -4.21984e+02   0.00000e+00
   @RHF iter   1:  -423.22443215007871   -1.24087e+00   4.05028e-03 DIIS
   @RHF iter   2:  -423.50615102099141   -2.81719e-01   2.17434e-03 DIIS
   @RHF iter   3:  -423.58090113544779   -7.47501e-02   3.66561e-04 DIIS
   @RHF iter   4:  -423.58470910835558   -3.80797e-03   1.43049e-04 DIIS
   @RHF iter   5:  -423.58521748441518   -5.08376e-04   2.21913e-05 DIIS
   @RHF iter   6:  -423.58523317254151   -1.56881e-05   7.05033e-06 DIIS
   @RHF iter   7:  -423.58523457519095   -1.40265e-06   2.19776e-06 DIIS
   @RHF iter   8:  -423.58523470117314   -1.25982e-07   7.65390e-07 DIIS
   @RHF iter   9:  -423.58523471861145   -1.74383e-08   2.65956e-07 DIIS
   @RHF iter  10:  -423.58523472131293   -2.70148e-09   7.13829e-08 DIIS
   @RHF iter  11:  -423.58523472163967   -3.26736e-10   2.85250e-08 DIIS
   @RHF iter  12:  -423.58523472168633   -4.66684e-11   9.93832e-09 DIIS
   @RHF iter  13:  -423.58523472169566   -9.32232e-12   3.43932e-09 DIIS
   @RHF iter  14:  -423.58523472169213    3.52429e-12   1.06303e-09 DIIS
   @RHF iter  15:  -423.58523472169639   -4.26326e-12   3.01976e-10 DIIS
   @RHF iter  16:  -423.58523472169247    3.92220e-12   9.46728e-11 DIIS
  Energy and wave function converged.

  ==> Post-Iterations <==

    Orbital Energies [Eh]
    ---------------------

    Doubly Occupied:

       1A    -20.270839     2A    -20.261361     3A    -11.121936
       4A    -11.119940     5A    -11.115133     6A    -11.101671
       7A    -11.099436     8A    -11.069101     9A    -11.051833
      10A     -1.150771    11A     -1.041138    12A     -0.976858
      13A     -0.874292    14A     -0.826925    15A     -0.814349
      16A     -0.698179    17A     -0.660940    18A     -0.529145
      19A     -0.510261    20A     -0.487909    21A     -0.479990
      22A     -0.458904    23A     -0.435329    24A     -0.433802
      25A     -0.426997    26A     -0.399317    27A     -0.392960
      28A     -0.360307    29A     -0.359200    30A     -0.354049
      31A     -0.352790    32A     -0.344310    33A     -0.333001
      34A     -0.298344    35A     -0.185370    36A     -0.175438
      37A     -0.165632

    Virtual:

      38A      0.277670    39A      0.313682    40A      0.323572
      41A      0.334226    42A      0.349511    43A      0.359316
      44A      0.363676    45A      0.389347    46A      0.395626
      47A      0.402853    48A      0.410766    49A      0.424306
      50A      0.439249    51A      0.446764    52A      0.474535
      53A      0.476443    54A      0.507330    55A      0.518440
      56A      0.521895    57A      0.559295    58A      0.600347
      59A      0.659638    60A      0.680406    61A      0.702115
      62A      0.718524    63A      0.721355    64A      0.738259
      65A      0.785801    66A      0.807205    67A      0.855916
      68A      0.862712    69A      0.879914    70A      0.898226
      71A      0.908443    72A      0.937213    73A      0.946484
      74A      0.950390    75A      0.965112    76A      0.979835
      77A      0.992663    78A      0.996134    79A      1.004291
      80A      1.008665    81A      1.011979    82A      1.020214
      83A      1.033586    84A      1.038045    85A      1.047944
      86A      1.051683    87A      1.058137    88A      1.069275
      89A      1.070601    90A      1.104591    91A      1.109854
      92A      1.120397    93A      1.123896    94A      1.164998
      95A      1.172378    96A      1.188400    97A      1.231919
      98A      1.237454    99A      1.254896   100A      1.299118
     101A      1.317374   102A      1.347637   103A      1.392510
     104A      1.452249   105A      1.483818   106A      1.505318
     107A      1.517632   108A      1.521990   109A      1.554601
     110A      1.605355   111A      1.621661   112A      1.642516
     113A      1.661827   114A      1.678240   115A      1.698785
     116A      1.730232   117A      1.752511   118A      1.776911
     119A      1.796318   120A      1.803191   121A      1.810663
     122A      1.824936   123A      1.834791   124A      1.842330
     125A      1.849521   126A      1.874222   127A      1.933976
     128A      1.947882   129A      1.960342   130A      1.971529
     131A      2.020114   132A      2.036005   133A      2.045866
     134A      2.059729   135A      2.063118   136A      2.066430
     137A      2.080491   138A      2.082917   139A      2.093673
     140A      2.102342   141A      2.117077   142A      2.145149
     143A      2.150552   144A      2.172858   145A      2.176901
     146A      2.182847   147A      2.199338   148A      2.201783
     149A      2.227194   150A      2.247174   151A      2.264068
     152A      2.271383   153A      2.295469   154A      2.346184
     155A      2.370357   156A      2.374393   157A      2.411156
     158A      2.424061   159A      2.428372   160A      2.447122
     161A      2.472582   162A      2.478662   163A      2.485041
     164A      2.513051   165A      2.549818   166A      2.593355
     167A      2.616436   168A      2.668275   169A      2.685958
     170A      2.704665   171A      2.749682   172A      2.768170
     173A      2.783370   174A      2.795417   175A      2.813355
     176A      2.847260   177A      2.872256   178A      2.896655
     179A      2.904536   180A      2.914296   181A      2.933234
     182A      2.953486   183A      2.968141   184A      2.991782
     185A      3.002438   186A      3.004798   187A      3.079374
     188A      3.129834   189A      3.136285   190A      3.144037
     191A      3.240703   192A      3.249789   193A      3.283891
     194A      3.300937   195A      3.358392   196A      3.618014
     197A      3.779412   198A      3.828733   199A      4.038767
     200A      4.080022   201A      4.188835

    Final Occupation by Irrep:
              A
    DOCC [    37 ]

  @RHF Final Energy:  -423.58523472169247

   => Energetics <=

    Nuclear Repulsion Energy =            460.5480218495501958
    One-Electron Energy =               -1502.7909971595815932
    Two-Electron Energy =                 618.6577405883389247
    Total Energy =                       -423.5852347216924727

Computation Completed

Properties will be evaluated at   0.000000,   0.000000,   0.000000 [a0]

Properties computed using the SCF density matrix

  Nuclear Dipole Moment: [e a0]
     X:     1.2026      Y:   -15.5446      Z:     8.2821

  Electronic Dipole Moment: [e a0]
     X:    -0.9763      Y:    12.1193      Z:    -6.0677

  Dipole Moment: [e a0]
     X:     0.2263      Y:    -3.4253      Z:     2.2144     Total:     4.0850

  Dipole Moment: [D]
     X:     0.5751      Y:    -8.7062      Z:     5.6285     Total:    10.3831

*** tstop() called on ds3 at Tue Apr 28 15:49:18 2020
Module time:
	user time   =      74.69 seconds =       1.24 minutes
	system time =      25.98 seconds =       0.43 minutes
	total time  =        208 seconds =       3.47 minutes
Total time:
	user time   =      74.69 seconds =       1.24 minutes
	system time =      25.98 seconds =       0.43 minutes
	total time  =        208 seconds =       3.47 minutes
                                     G D M A

                                 by Anthony Stone

                           version 2.2.06, 22 June 2011

               Distributed Multipoles from Gaussian wavefunctions

Starting at 15:49:18 on 28 Apr 2020

Using SCF density matrix from file ./SSI/SSI-114ASP-179LEU-1-dimer.test.14023.fchk

                         Distributed Multipole Analysis

Standard DMA

Positions and radii in angstrom
Multipole moments in atomic units, ea_0^k for rank k

C          x =  0.362105  y =  1.573059  z =  0.746853 angstrom
           Maximum rank =  0   Radius =  0.650 angstrom
                   Q00  =  -0.137694

C          x =  1.821105  y =  1.216059  z =  0.920853 angstrom
           Maximum rank =  0   Radius =  0.650 angstrom
                   Q00  =  -0.250421

C          x =  0.025105  y =  1.980059  z = -0.700147 angstrom
           Maximum rank =  0   Radius =  0.650 angstrom
                   Q00  =   0.992950

O          x =  0.910105  y =  2.120059  z = -1.588147 angstrom
           Maximum rank =  0   Radius =  0.650 angstrom
                   Q00  =  -0.954982

O          x = -1.197895  y =  2.145059  z = -0.889147 angstrom
           Maximum rank =  0   Radius =  0.650 angstrom
                   Q00  =  -0.921997

H          x = -0.280895  y =  0.747059  z =  1.024853 angstrom
           Maximum rank =  0   Radius =  0.325 angstrom
                   Q00  =   0.040108

H          x =  0.108105  y =  2.393059  z =  1.420853 angstrom
           Maximum rank =  0   Radius =  0.325 angstrom
                   Q00  =   0.055777

H          x =  2.200105  y =  0.735059  z =  0.020853 angstrom
           Maximum rank =  0   Radius =  0.325 angstrom
                   Q00  =   0.101963

H          x =  1.945865  y =  0.554979  z =  1.791141 angstrom
           Maximum rank =  0   Radius =  0.325 angstrom
                   Q00  =   0.012164

H          x =  2.377925  y =  2.142179  z =  1.126416 angstrom
           Maximum rank =  0   Radius =  0.325 angstrom
                   Q00  =   0.064792

C          x = -0.362895  y = -2.004941  z =  0.631853 angstrom
           Maximum rank =  0   Radius =  0.650 angstrom
                   Q00  =   0.035827

C          x = -0.413895  y = -3.345941  z =  1.378853 angstrom
           Maximum rank =  0   Radius =  0.650 angstrom
                   Q00  =  -0.254358

C          x =  0.616105  y = -2.037941  z = -0.521147 angstrom
           Maximum rank =  0   Radius =  0.650 angstrom
                   Q00  =  -0.214837

C          x = -1.771895  y = -1.670941  z =  0.101853 angstrom
           Maximum rank =  0   Radius =  0.650 angstrom
                   Q00  =  -0.231198

H          x = -0.039895  y = -1.257941  z =  1.343853 angstrom
           Maximum rank =  0   Radius =  0.325 angstrom
                   Q00  =   0.025496

H          x =  0.600105  y = -3.677941  z =  1.597853 angstrom
           Maximum rank =  0   Radius =  0.325 angstrom
                   Q00  =   0.065779

H          x = -0.867895  y = -4.090941  z =  0.724853 angstrom
           Maximum rank =  0   Radius =  0.325 angstrom
                   Q00  =   0.059473

H          x =  0.323105  y = -2.805941  z = -1.237147 angstrom
           Maximum rank =  0   Radius =  0.325 angstrom
                   Q00  =   0.051484

H          x =  0.630105  y = -1.070941  z = -1.023147 angstrom
           Maximum rank =  0   Radius =  0.325 angstrom
                   Q00  =   0.111238

H          x =  1.617105  y = -2.252941  z = -0.150147 angstrom
           Maximum rank =  0   Radius =  0.325 angstrom
                   Q00  =   0.062162

H          x = -2.452895  y = -1.431941  z =  0.915853 angstrom
           Maximum rank =  0   Radius =  0.325 angstrom
                   Q00  =   0.068124

H          x = -1.716895  y = -0.793941  z = -0.542147 angstrom
           Maximum rank =  0   Radius =  0.325 angstrom
                   Q00  =   0.097958

H          x = -2.166895  y = -2.504941  z = -0.479147 angstrom
           Maximum rank =  0   Radius =  0.325 angstrom
                   Q00  =   0.050062

H          x = -0.992745  y = -3.288131  z =  2.312441 angstrom
           Maximum rank =  0   Radius =  0.325 angstrom
                   Q00  =   0.070129

Total multipoles referred to origin at
           x =   0.000000,  y =    0.000000,  z =    0.000000 angstrom
                   Q00  =  -1.000000

Finished at 15:49:18 on 28 Apr 2020

  DMA results are available in the Python driver through the
	  variable('DMA DISTRIBUTED MULTIPOLES')
  and
	  variable('DMA TOTAL MULTIPOLES')
  commands.

    Psi4 stopped on: Tuesday, 28 April 2020 03:49PM
    Psi4 wall time for execution: 0:03:28.10

*** Psi4 exiting successfully. Buy a developer a beer!
