                               Psi4 1.3.2 release

  ==> Input File <==

--------------------------------------------------------------------------
import numpy as np
set {scf_type pk
basis cc-pvdz
d_convergence 10
gdma_switch   0
gdma_limit    0
gdma_origin   [ 0.0,  0.0,  0.0 ]
}
molecule test {
    units Angstrom
    0 1
    --
    0 1
    C                1.454871575447219     2.859913285766819    -0.914649727780924
    C                1.168871575447219     2.221913285766818     0.430350272219076
    O                0.557871575447219     2.851913285766818     1.282350272219076
    N                1.626871575447219     1.006913285766818     0.672350272219076
    H                2.062871575447219     3.721913285766819    -0.738649727780925
    H                0.517871575447219     3.183913285766819    -1.369649727780924
    H                1.353871575447219     0.572913285766818     1.539350272219075
    H                2.053871575447219     0.456913285766818    -0.049649727780924
    H                1.997237575447219     2.211719285766818    -1.618699727780925
    C               -3.222128424552780     0.155913285766818     0.374350272219076
    C               -0.857128424552781    -0.947086714233182     0.162350272219076
    C               -1.995128424552780    -0.242086714233182    -0.364649727780924
    C                0.084871575447219    -1.095086714233182    -0.884649727780924
    C               -1.687128424552781     0.022913285766818    -1.666649727780924
    C               -0.545128424552781    -1.478086714233182     1.422350272219076
    C                1.300871575447219    -1.737086714233182    -0.713649727780925
    C                0.670871575447219    -2.127086714233182     1.597350272219076
    C                1.585871575447219    -2.252086714233182     0.538350272219075
    N               -0.462128424552781    -0.498086714233182    -1.992649727780925
    H               -1.242128424552781    -1.379086714233182     2.236350272219076
    H               -3.621128424552780     1.059913285766818    -0.088649727780924
    H               -2.874128424552780     0.450913285766818     1.365350272219075
    H               -2.337128424552780     0.553913285766818    -2.354649727780925
    H               -0.055128424552781    -0.462086714233182    -2.921649727780925
    H                1.997871575447219    -1.842086714233182    -1.535649727780925
    H                0.918871575447219    -2.540086714233181     2.568350272219075
    H                2.525871575447220    -2.765086714233182     0.704350272219076
    H               -4.041028424552780    -0.570241314233182     0.484350272219076

}
e, wfn = energy('scf', return_wfn=True)
gdma(wfn)
dmavals = variable('DMA DISTRIBUTED MULTIPOLES')
charges = np.array(dmavals)
print(charges)
np.save('SSI-030GLN-034TRP-2-dimer.npy', np.array(charges))--------------------------------------------------------------------------

*** tstart() called on ds3
*** at Mon Apr 27 22:45:51 2020

   => Loading Basis Set <=

    Name: CC-PVDZ
    Role: ORBITAL
    Keyword: BASIS
    atoms 1-2, 10-18 entry C          line   138 file /theoryfs2/ds/metcalf/miniconda2/envs/tf2gpu/share/psi4/basis/cc-pvdz.gbs
    atoms 3          entry O          line   198 file /theoryfs2/ds/metcalf/miniconda2/envs/tf2gpu/share/psi4/basis/cc-pvdz.gbs
    atoms 4, 19      entry N          line   168 file /theoryfs2/ds/metcalf/miniconda2/envs/tf2gpu/share/psi4/basis/cc-pvdz.gbs
    atoms 5-9, 20-28 entry H          line    22 file /theoryfs2/ds/metcalf/miniconda2/envs/tf2gpu/share/psi4/basis/cc-pvdz.gbs

         ---------------------------------------------------------
                                   SCF
               by Justin Turney, Rob Parrish, Andy Simmonett
                          and Daniel G. A. Smith
                              RHF Reference
                        1 Threads,    500 MiB Core
         ---------------------------------------------------------

  ==> Geometry <==

    Molecular point group: c1
    Full point group: C1

    Geometry (in Angstrom), charge = 0, multiplicity = 1:

       Center              X                  Y                   Z               Mass
    ------------   -----------------  -----------------  -----------------  -----------------
         C            1.454871575447     2.859913285767    -0.914649727781    12.000000000000
         C            1.168871575447     2.221913285767     0.430350272219    12.000000000000
         O            0.557871575447     2.851913285767     1.282350272219    15.994914619570
         N            1.626871575447     1.006913285767     0.672350272219    14.003074004430
         H            2.062871575447     3.721913285767    -0.738649727781     1.007825032230
         H            0.517871575447     3.183913285767    -1.369649727781     1.007825032230
         H            1.353871575447     0.572913285767     1.539350272219     1.007825032230
         H            2.053871575447     0.456913285767    -0.049649727781     1.007825032230
         H            1.997237575447     2.211719285767    -1.618699727781     1.007825032230
         C           -3.222128424553     0.155913285767     0.374350272219    12.000000000000
         C           -0.857128424553    -0.947086714233     0.162350272219    12.000000000000
         C           -1.995128424553    -0.242086714233    -0.364649727781    12.000000000000
         C            0.084871575447    -1.095086714233    -0.884649727781    12.000000000000
         C           -1.687128424553     0.022913285767    -1.666649727781    12.000000000000
         C           -0.545128424553    -1.478086714233     1.422350272219    12.000000000000
         C            1.300871575447    -1.737086714233    -0.713649727781    12.000000000000
         C            0.670871575447    -2.127086714233     1.597350272219    12.000000000000
         C            1.585871575447    -2.252086714233     0.538350272219    12.000000000000
         N           -0.462128424553    -0.498086714233    -1.992649727781    14.003074004430
         H           -1.242128424553    -1.379086714233     2.236350272219     1.007825032230
         H           -3.621128424553     1.059913285767    -0.088649727781     1.007825032230
         H           -2.874128424553     0.450913285767     1.365350272219     1.007825032230
         H           -2.337128424553     0.553913285767    -2.354649727781     1.007825032230
         H           -0.055128424553    -0.462086714233    -2.921649727781     1.007825032230
         H            1.997871575447    -1.842086714233    -1.535649727781     1.007825032230
         H            0.918871575447    -2.540086714233     2.568350272219     1.007825032230
         H            2.525871575447    -2.765086714233     0.704350272219     1.007825032230
         H           -4.041028424553    -0.570241314233     0.484350272219     1.007825032230

  Running in c1 symmetry.

  Rotational constants: A =      0.02570  B =      0.02056  C =      0.01670 [cm^-1]
  Rotational constants: A =    770.38093  B =    616.40977  C =    500.65694 [MHz]
  Nuclear repulsion =  883.761367380164302

  Charge       = 0
  Multiplicity = 1
  Electrons    = 102
  Nalpha       = 51
  Nbeta        = 51

  ==> Algorithm <==

  SCF Algorithm Type is PK.
  DIIS enabled.
  MOM disabled.
  Fractional occupation disabled.
  Guess Type is SAD.
  Energy threshold   = 1.00e-06
  Density threshold  = 1.00e-10
  Integral threshold = 0.00e+00

  ==> Primary Basis <==

  Basis Set: CC-PVDZ
    Blend: CC-PVDZ
    Number of shells: 126
    Number of basis function: 266
    Number of Cartesian functions: 280
    Spherical Harmonics?: true
    Max angular momentum: 2

  ==> Pre-Iterations <==

   -------------------------------------------------------
    Irrep   Nso     Nmo     Nalpha   Nbeta   Ndocc  Nsocc
   -------------------------------------------------------
     A        266     266       0       0       0       0
   -------------------------------------------------------
    Total     266     266      51      51      51       0
   -------------------------------------------------------

  ==> Integral Setup <==

  Using integral reordering PK algorithm.
  Sizing the integral batches needed.
  Building batch lookup table.
   Calculation information:
      Number of atoms:                  28
      Number of AO shells:             126
      Number of primitives:            378
      Number of atomic orbitals:       280
      Number of basis functions:       266

      Integral cutoff                 1.00e-12
      Number of threads:                 1

	Batch   1 pq = [       0,    9405] index = [             0,44231715] size =     44231715
	Batch   2 pq = [    9405,   13301] index = [      44231715,88464951] size =     44233236
	Batch   3 pq = [   13301,   16290] index = [      88464951,132690195] size =     44225244
	Batch   4 pq = [   16290,   18810] index = [     132690195,176917455] size =     44227260
	Batch   5 pq = [   18810,   21030] index = [     176917455,221140965] size =     44223510
	Batch   6 pq = [   21030,   23037] index = [     221140965,265363203] size =     44222238
	Batch   7 pq = [   23037,   24883] index = [     265363203,309594286] size =     44231083
	Batch   8 pq = [   24883,   26601] index = [     309594286,353819901] size =     44225615
	Batch   9 pq = [   26601,   28214] index = [     353819901,398029005] size =     44209104
	Batch  10 pq = [   28214,   29740] index = [     398029005,442248670] size =     44219665
	Batch  11 pq = [   29740,   31191] index = [     442248670,486454836] size =     44206166
	Batch  12 pq = [   31191,   32578] index = [     486454836,530679331] size =     44224495
	Batch  13 pq = [   32578,   33908] index = [     530679331,574893186] size =     44213855
	Batch  14 pq = [   33908,   35188] index = [     574893186,619115266] size =     44222080
	Batch  15 pq = [   35188,   35511] index = [     619115266,630533316] size =     11418050
  Task number: 58
  Buffer size: 11059200
  Buffer per thread: 2
  We computed 37911281 shell quartets total.
  Whereas there are 32012001 unique shell quartets.
    18.43 percent of shell quartets recomputed by reordering.

  ==> DiskJK: Disk-Based J/K Matrices <==

    J tasked:                  Yes
    K tasked:                  Yes
    wK tasked:                  No
    Memory [MiB]:              375
    Schwarz Cutoff:          1E-12

    OpenMP threads:              1

  Minimum eigenvalue in the overlap matrix is 2.3702392427E-04.
  Using Symmetric Orthogonalization.

  SCF Guess: Superposition of Atomic Densities via on-the-fly atomic UHF.

  ==> Iterations <==

                        Total Energy        Delta E     RMS |[F,P]|

   @RHF iter SAD:  -607.76823246951994   -6.07768e+02   0.00000e+00
   @RHF iter   1:  -608.17851413667620   -4.10282e-01   2.84914e-03 DIIS
   @RHF iter   2:  -608.44870755600834   -2.70193e-01   1.52011e-03 DIIS
   @RHF iter   3:  -608.51661344755144   -6.79059e-02   3.64146e-04 DIIS
   @RHF iter   4:  -608.52214622595397   -5.53278e-03   1.42474e-04 DIIS
   @RHF iter   5:  -608.52302318269381   -8.76957e-04   2.39765e-05 DIIS
   @RHF iter   6:  -608.52307380595869   -5.06233e-05   1.26630e-05 DIIS
   @RHF iter   7:  -608.52308650960833   -1.27036e-05   4.89995e-06 DIIS
   @RHF iter   8:  -608.52308930887864   -2.79927e-06   1.93975e-06 DIIS
   @RHF iter   9:  -608.52308976827817   -4.59400e-07   8.38640e-07 DIIS
   @RHF iter  10:  -608.52308986685057   -9.85724e-08   3.43751e-07 DIIS
   @RHF iter  11:  -608.52308989004223   -2.31917e-08   1.53713e-07 DIIS
   @RHF iter  12:  -608.52308989432822   -4.28599e-09   7.47058e-08 DIIS
   @RHF iter  13:  -608.52308989516530   -8.37076e-10   2.42144e-08 DIIS
   @RHF iter  14:  -608.52308989526125   -9.59517e-11   8.74264e-09 DIIS
   @RHF iter  15:  -608.52308989526966   -8.41283e-12   3.22799e-09 DIIS
   @RHF iter  16:  -608.52308989526807    1.59162e-12   1.37649e-09 DIIS
   @RHF iter  17:  -608.52308989526887   -7.95808e-13   5.92659e-10 DIIS
   @RHF iter  18:  -608.52308989526534    3.52429e-12   2.15714e-10 DIIS
   @RHF iter  19:  -608.52308989526523    1.13687e-13   1.09034e-10 DIIS
   @RHF iter  20:  -608.52308989526432    9.09495e-13   5.00495e-11 DIIS
  Energy and wave function converged.

  ==> Post-Iterations <==

    Orbital Energies [Eh]
    ---------------------

    Doubly Occupied:

       1A    -20.482827     2A    -15.612712     3A    -15.561941
       4A    -11.328738     5A    -11.274981     6A    -11.271799
       7A    -11.244186     8A    -11.242656     9A    -11.241975
      10A    -11.234304    11A    -11.230326    12A    -11.229868
      13A    -11.227072    14A    -11.224635    15A     -1.353727
      16A     -1.306660    17A     -1.196751    18A     -1.142298
      19A     -1.082865    20A     -1.011099    21A     -0.998261
      22A     -0.988669    23A     -0.937570    24A     -0.850998
      25A     -0.815464    26A     -0.782497    27A     -0.763312
      28A     -0.731433    29A     -0.709630    30A     -0.672411
      31A     -0.652936    32A     -0.641059    33A     -0.615500
      34A     -0.607993    35A     -0.603159    36A     -0.593268
      37A     -0.574394    38A     -0.559947    39A     -0.553458
      40A     -0.545483    41A     -0.544299    42A     -0.533254
      43A     -0.509526    44A     -0.501360    45A     -0.482075
      46A     -0.473979    47A     -0.393555    48A     -0.383647
      49A     -0.382147    50A     -0.307527    51A     -0.285045

    Virtual:

      52A      0.110739    53A      0.154933    54A      0.157713
      55A      0.184014    56A      0.190365    57A      0.202921
      58A      0.212426    59A      0.218506    60A      0.222433
      61A      0.224834    62A      0.250680    63A      0.257277
      64A      0.262301    65A      0.265570    66A      0.289294
      67A      0.295909    68A      0.299726    69A      0.304602
      70A      0.370300    71A      0.373385    72A      0.398386
      73A      0.401807    74A      0.409543    75A      0.434580
      76A      0.462527    77A      0.466239    78A      0.479001
      79A      0.485820    80A      0.496304    81A      0.559337
      82A      0.592602    83A      0.608775    84A      0.614393
      85A      0.629533    86A      0.642315    87A      0.651114
      88A      0.656218    89A      0.681161    90A      0.692115
      91A      0.701194    92A      0.705292    93A      0.716548
      94A      0.724012    95A      0.726151    96A      0.739449
      97A      0.747471    98A      0.757639    99A      0.766945
     100A      0.768298   101A      0.778640   102A      0.788488
     103A      0.799796   104A      0.809195   105A      0.835037
     106A      0.856631   107A      0.859088   108A      0.867485
     109A      0.871726   110A      0.879017   111A      0.881085
     112A      0.889731   113A      0.892767   114A      0.903673
     115A      0.910875   116A      0.932284   117A      0.941633
     118A      0.943166   119A      0.948346   120A      0.956569
     121A      0.967867   122A      0.976824   123A      0.988183
     124A      1.004826   125A      1.021766   126A      1.051881
     127A      1.054772   128A      1.083127   129A      1.086395
     130A      1.112986   131A      1.127444   132A      1.131573
     133A      1.139256   134A      1.151567   135A      1.159187
     136A      1.173767   137A      1.204359   138A      1.213784
     139A      1.230518   140A      1.233220   141A      1.242050
     142A      1.264682   143A      1.277916   144A      1.288531
     145A      1.289307   146A      1.318801   147A      1.319762
     148A      1.348492   149A      1.359247   150A      1.388645
     151A      1.396802   152A      1.398387   153A      1.413306
     154A      1.424985   155A      1.428049   156A      1.461889
     157A      1.478917   158A      1.498200   159A      1.523676
     160A      1.552676   161A      1.572173   162A      1.601367
     163A      1.621607   164A      1.630436   165A      1.658462
     166A      1.663480   167A      1.681536   168A      1.685526
     169A      1.702152   170A      1.725737   171A      1.739345
     172A      1.752985   173A      1.772767   174A      1.790489
     175A      1.801506   176A      1.815216   177A      1.849929
     178A      1.865148   179A      1.871008   180A      1.877772
     181A      1.888828   182A      1.894869   183A      1.901347
     184A      1.911111   185A      1.920216   186A      1.923714
     187A      1.932080   188A      1.946921   189A      1.948459
     190A      1.968093   191A      1.974794   192A      1.977056
     193A      1.995494   194A      2.002830   195A      2.037636
     196A      2.046632   197A      2.058240   198A      2.069701
     199A      2.075061   200A      2.091240   201A      2.098419
     202A      2.099321   203A      2.102817   204A      2.115133
     205A      2.125913   206A      2.140232   207A      2.163977
     208A      2.171479   209A      2.180451   210A      2.189981
     211A      2.220229   212A      2.255607   213A      2.257944
     214A      2.289301   215A      2.305451   216A      2.314567
     217A      2.322615   218A      2.353876   219A      2.368147
     220A      2.393865   221A      2.416770   222A      2.439307
     223A      2.444153   224A      2.454728   225A      2.472048
     226A      2.493978   227A      2.540991   228A      2.567658
     229A      2.588809   230A      2.606075   231A      2.618783
     232A      2.633793   233A      2.672647   234A      2.685120
     235A      2.695741   236A      2.712947   237A      2.762395
     238A      2.763695   239A      2.768872   240A      2.777142
     241A      2.798084   242A      2.805001   243A      2.823216
     244A      2.854501   245A      2.870871   246A      2.893975
     247A      2.896493   248A      2.913422   249A      2.967640
     250A      3.016249   251A      3.029105   252A      3.056961
     253A      3.074566   254A      3.112037   255A      3.120000
     256A      3.156732   257A      3.200077   258A      3.294728
     259A      3.334260   260A      3.371108   261A      3.520877
     262A      3.574173   263A      3.739840   264A      3.903219
     265A      3.935287   266A      3.944156

    Final Occupation by Irrep:
              A
    DOCC [    51 ]

  @RHF Final Energy:  -608.52308989526432

   => Energetics <=

    Nuclear Repulsion Energy =            883.7613673801643017
    One-Electron Energy =               -2581.5783627243326919
    Two-Electron Energy =                1089.2939054489040700
    Total Energy =                       -608.5230898952643201

Computation Completed

Properties will be evaluated at   0.000000,   0.000000,   0.000000 [a0]

Properties computed using the SCF density matrix

  Nuclear Dipole Moment: [e a0]
     X:    -0.6966      Y:     2.4997      Z:    -1.6579

  Electronic Dipole Moment: [e a0]
     X:     1.1231      Y:    -3.4694      Z:    -0.0085

  Dipole Moment: [e a0]
     X:     0.4265      Y:    -0.9697      Z:    -1.6664     Total:     1.9746

  Dipole Moment: [D]
     X:     1.0841      Y:    -2.4647      Z:    -4.2356     Total:     5.0190

*** tstop() called on ds3 at Mon Apr 27 22:53:16 2020
Module time:
	user time   =     350.13 seconds =       5.84 minutes
	system time =     110.12 seconds =       1.84 minutes
	total time  =        445 seconds =       7.42 minutes
Total time:
	user time   =     350.13 seconds =       5.84 minutes
	system time =     110.12 seconds =       1.84 minutes
	total time  =        445 seconds =       7.42 minutes
                                     G D M A

                                 by Anthony Stone

                           version 2.2.06, 22 June 2011

               Distributed Multipoles from Gaussian wavefunctions

Starting at 22:53:17 on 27 Apr 2020

Using SCF density matrix from file ./SSI/SSI-030GLN-034TRP-2-dimer.test.5558.fchk

                         Distributed Multipole Analysis

Standard DMA

Positions and radii in angstrom
Multipole moments in atomic units, ea_0^k for rank k

C          x =  1.454872  y =  2.859913  z = -0.914650 angstrom
           Maximum rank =  0   Radius =  0.650 angstrom
                   Q00  =  -0.267261

C          x =  1.168872  y =  2.221913  z =  0.430350 angstrom
           Maximum rank =  0   Radius =  0.650 angstrom
                   Q00  =   0.823929

O          x =  0.557872  y =  2.851913  z =  1.282350 angstrom
           Maximum rank =  0   Radius =  0.650 angstrom
                   Q00  =  -0.808377

N          x =  1.626872  y =  1.006913  z =  0.672350 angstrom
           Maximum rank =  0   Radius =  0.650 angstrom
                   Q00  =  -0.493533

H          x =  2.062872  y =  3.721913  z = -0.738650 angstrom
           Maximum rank =  0   Radius =  0.325 angstrom
                   Q00  =   0.131815

H          x =  0.517872  y =  3.183913  z = -1.369650 angstrom
           Maximum rank =  0   Radius =  0.325 angstrom
                   Q00  =   0.127920

H          x =  1.353872  y =  0.572913  z =  1.539350 angstrom
           Maximum rank =  0   Radius =  0.325 angstrom
                   Q00  =   0.229048

H          x =  2.053872  y =  0.456913  z = -0.049650 angstrom
           Maximum rank =  0   Radius =  0.325 angstrom
                   Q00  =   0.211855

H          x =  1.997238  y =  2.211719  z = -1.618700 angstrom
           Maximum rank =  0   Radius =  0.325 angstrom
                   Q00  =   0.068021

C          x = -3.222128  y =  0.155913  z =  0.374350 angstrom
           Maximum rank =  0   Radius =  0.650 angstrom
                   Q00  =  -0.214754

C          x = -0.857128  y = -0.947087  z =  0.162350 angstrom
           Maximum rank =  0   Radius =  0.650 angstrom
                   Q00  =  -0.055690

C          x = -1.995128  y = -0.242087  z = -0.364650 angstrom
           Maximum rank =  0   Radius =  0.650 angstrom
                   Q00  =  -0.108710

C          x =  0.084872  y = -1.095087  z = -0.884650 angstrom
           Maximum rank =  0   Radius =  0.650 angstrom
                   Q00  =   0.277158

C          x = -1.687128  y =  0.022913  z = -1.666650 angstrom
           Maximum rank =  0   Radius =  0.650 angstrom
                   Q00  =   0.065644

C          x = -0.545128  y = -1.478087  z =  1.422350 angstrom
           Maximum rank =  0   Radius =  0.650 angstrom
                   Q00  =  -0.096985

C          x =  1.300872  y = -1.737087  z = -0.713650 angstrom
           Maximum rank =  0   Radius =  0.650 angstrom
                   Q00  =  -0.149484

C          x =  0.670872  y = -2.127087  z =  1.597350 angstrom
           Maximum rank =  0   Radius =  0.650 angstrom
                   Q00  =  -0.092811

C          x =  1.585872  y = -2.252087  z =  0.538350 angstrom
           Maximum rank =  0   Radius =  0.650 angstrom
                   Q00  =  -0.088164

N          x = -0.462128  y = -0.498087  z = -1.992650 angstrom
           Maximum rank =  0   Radius =  0.650 angstrom
                   Q00  =  -0.482332

H          x = -1.242128  y = -1.379087  z =  2.236350 angstrom
           Maximum rank =  0   Radius =  0.325 angstrom
                   Q00  =   0.078737

H          x = -3.621128  y =  1.059913  z = -0.088650 angstrom
           Maximum rank =  0   Radius =  0.325 angstrom
                   Q00  =   0.108900

H          x = -2.874128  y =  0.450913  z =  1.365350 angstrom
           Maximum rank =  0   Radius =  0.325 angstrom
                   Q00  =   0.108970

H          x = -2.337128  y =  0.553913  z = -2.354650 angstrom
           Maximum rank =  0   Radius =  0.325 angstrom
                   Q00  =   0.103243

H          x = -0.055128  y = -0.462087  z = -2.921650 angstrom
           Maximum rank =  0   Radius =  0.325 angstrom
                   Q00  =   0.219470

H          x =  1.997872  y = -1.842087  z = -1.535650 angstrom
           Maximum rank =  0   Radius =  0.325 angstrom
                   Q00  =   0.070034

H          x =  0.918872  y = -2.540087  z =  2.568350 angstrom
           Maximum rank =  0   Radius =  0.325 angstrom
                   Q00  =   0.065295

H          x =  2.525872  y = -2.765087  z =  0.704350 angstrom
           Maximum rank =  0   Radius =  0.325 angstrom
                   Q00  =   0.068754

H          x = -4.041028  y = -0.570241  z =  0.484350 angstrom
           Maximum rank =  0   Radius =  0.325 angstrom
                   Q00  =   0.099307

Total multipoles referred to origin at
           x =   0.000000,  y =    0.000000,  z =    0.000000 angstrom
                   Q00  =  -0.000000

Finished at 22:53:17 on 27 Apr 2020

  DMA results are available in the Python driver through the
	  variable('DMA DISTRIBUTED MULTIPOLES')
  and
	  variable('DMA TOTAL MULTIPOLES')
  commands.

    Psi4 stopped on: Monday, 27 April 2020 10:53PM
    Psi4 wall time for execution: 0:07:25.38

*** Psi4 exiting successfully. Buy a developer a beer!
