                               Psi4 1.3.2 release

  ==> Input File <==

--------------------------------------------------------------------------
import numpy as np
set {scf_type pk
basis cc-pvdz
d_convergence 10
gdma_switch   0
gdma_limit    0
gdma_origin   [ 0.0,  0.0,  0.0 ]
}
molecule test {
    units Angstrom
    0 1
    --
    0 1
    C                0.460376206983130     1.153817059927748    -0.786727178191041
    C                1.907376206983130     1.274817059927748    -0.319727178191041
    C                1.568376206983130    -0.979182940072252    -0.950727178191041
    C               -2.158623793016869    -0.244182940072252    -1.186727178191041
    C               -0.825623793016870    -0.974182940072252    -1.281727178191040
    O               -0.807623793016870    -2.180182940072252    -1.526727178191040
    N                0.295376206983130    -0.277182940072252    -1.032727178191041
    H               -0.226623793016870     1.523817059927748    -0.023727178191041
    H                0.334376206983130     1.689817059927748    -1.716727178191040
    H                1.942376206983130     1.194817059927748     0.763272821808959
    H                2.346376206983130     2.223817059927748    -0.630727178191041
    H                1.726376206983130    -1.597182940072252    -1.836727178191040
    H               -2.001623793016870     0.805817059927748    -1.428727178191041
    H                2.437646206983130     0.419957059927748    -0.764733178191041
    H                2.322966206983130    -0.179232940072252    -0.924806178191041
    H                1.641306206983130    -1.606712940072252    -0.050234178191041
    H               -2.874923793016869    -0.682842940072252    -1.897006178191040
    H               -2.551183793016870    -0.336762940072252    -0.163338178191041
    C                0.433376206983130     0.986817059927748     3.076272821808959
    C               -0.948623793016870     1.174817059927748     3.714272821808960
    H                1.132376206983130     0.534817059927748     3.780272821808960
    H                0.320376206983130     0.342817059927748     2.213272821808960
    H                0.823376206983130     1.946817059927748     2.741272821808960
    H               -1.652623793016870     1.414817059927748     2.919272821808960
    H               -0.927133793016870     2.017876059927747     4.420522821808960
    H               -1.278843793016870     0.250210059927748     4.210315821808959

}
e, wfn = energy('scf', return_wfn=True)
gdma(wfn)
dmavals = variable('DMA DISTRIBUTED MULTIPOLES')
charges = np.array(dmavals)
print(charges)
np.save('SSI-045PRO-080VAL-1-dimer.npy', np.array(charges))--------------------------------------------------------------------------

*** tstart() called on ds3
*** at Tue Apr 28 13:37:10 2020

   => Loading Basis Set <=

    Name: CC-PVDZ
    Role: ORBITAL
    Keyword: BASIS
    atoms 1-5, 19-20  entry C          line   138 file /theoryfs2/ds/metcalf/miniconda2/envs/tf2gpu/share/psi4/basis/cc-pvdz.gbs
    atoms 6           entry O          line   198 file /theoryfs2/ds/metcalf/miniconda2/envs/tf2gpu/share/psi4/basis/cc-pvdz.gbs
    atoms 7           entry N          line   168 file /theoryfs2/ds/metcalf/miniconda2/envs/tf2gpu/share/psi4/basis/cc-pvdz.gbs
    atoms 8-18, 21-26 entry H          line    22 file /theoryfs2/ds/metcalf/miniconda2/envs/tf2gpu/share/psi4/basis/cc-pvdz.gbs

         ---------------------------------------------------------
                                   SCF
               by Justin Turney, Rob Parrish, Andy Simmonett
                          and Daniel G. A. Smith
                              RHF Reference
                        1 Threads,    500 MiB Core
         ---------------------------------------------------------

  ==> Geometry <==

    Molecular point group: c1
    Full point group: C1

    Geometry (in Angstrom), charge = 0, multiplicity = 1:

       Center              X                  Y                   Z               Mass
    ------------   -----------------  -----------------  -----------------  -----------------
         C            0.460376206983     1.153817059928    -0.786727178191    12.000000000000
         C            1.907376206983     1.274817059928    -0.319727178191    12.000000000000
         C            1.568376206983    -0.979182940072    -0.950727178191    12.000000000000
         C           -2.158623793017    -0.244182940072    -1.186727178191    12.000000000000
         C           -0.825623793017    -0.974182940072    -1.281727178191    12.000000000000
         O           -0.807623793017    -2.180182940072    -1.526727178191    15.994914619570
         N            0.295376206983    -0.277182940072    -1.032727178191    14.003074004430
         H           -0.226623793017     1.523817059928    -0.023727178191     1.007825032230
         H            0.334376206983     1.689817059928    -1.716727178191     1.007825032230
         H            1.942376206983     1.194817059928     0.763272821809     1.007825032230
         H            2.346376206983     2.223817059928    -0.630727178191     1.007825032230
         H            1.726376206983    -1.597182940072    -1.836727178191     1.007825032230
         H           -2.001623793017     0.805817059928    -1.428727178191     1.007825032230
         H            2.437646206983     0.419957059928    -0.764733178191     1.007825032230
         H            2.322966206983    -0.179232940072    -0.924806178191     1.007825032230
         H            1.641306206983    -1.606712940072    -0.050234178191     1.007825032230
         H           -2.874923793017    -0.682842940072    -1.897006178191     1.007825032230
         H           -2.551183793017    -0.336762940072    -0.163338178191     1.007825032230
         C            0.433376206983     0.986817059928     3.076272821809    12.000000000000
         C           -0.948623793017     1.174817059928     3.714272821809    12.000000000000
         H            1.132376206983     0.534817059928     3.780272821809     1.007825032230
         H            0.320376206983     0.342817059928     2.213272821809     1.007825032230
         H            0.823376206983     1.946817059928     2.741272821809     1.007825032230
         H           -1.652623793017     1.414817059928     2.919272821809     1.007825032230
         H           -0.927133793017     2.017876059928     4.420522821809     1.007825032230
         H           -1.278843793017     0.250210059928     4.210315821809     1.007825032230

  Running in c1 symmetry.

  Rotational constants: A =      0.05266  B =      0.02591  C =      0.02106 [cm^-1]
  Rotational constants: A =   1578.71192  B =    776.81875  C =    631.33751 [MHz]
  Nuclear repulsion =  479.788246548711243

  Charge       = 0
  Multiplicity = 1
  Electrons    = 74
  Nalpha       = 37
  Nbeta        = 37

  ==> Algorithm <==

  SCF Algorithm Type is PK.
  DIIS enabled.
  MOM disabled.
  Fractional occupation disabled.
  Guess Type is SAD.
  Energy threshold   = 1.00e-06
  Density threshold  = 1.00e-10
  Integral threshold = 0.00e+00

  ==> Primary Basis <==

  Basis Set: CC-PVDZ
    Blend: CC-PVDZ
    Number of shells: 105
    Number of basis function: 211
    Number of Cartesian functions: 220
    Spherical Harmonics?: true
    Max angular momentum: 2

  ==> Pre-Iterations <==

   -------------------------------------------------------
    Irrep   Nso     Nmo     Nalpha   Nbeta   Ndocc  Nsocc
   -------------------------------------------------------
     A        211     211       0       0       0       0
   -------------------------------------------------------
    Total     211     211      37      37      37       0
   -------------------------------------------------------

  ==> Integral Setup <==

  Using integral reordering PK algorithm.
  Sizing the integral batches needed.
  Building batch lookup table.
   Calculation information:
      Number of atoms:                  26
      Number of AO shells:             105
      Number of primitives:            283
      Number of atomic orbitals:       220
      Number of basis functions:       211

      Integral cutoff                 1.00e-12
      Number of threads:                 1

	Batch   1 pq = [       0,    9405] index = [             0,44231715] size =     44231715
	Batch   2 pq = [    9405,   13301] index = [      44231715,88464951] size =     44233236
	Batch   3 pq = [   13301,   16290] index = [      88464951,132690195] size =     44225244
	Batch   4 pq = [   16290,   18810] index = [     132690195,176917455] size =     44227260
	Batch   5 pq = [   18810,   21030] index = [     176917455,221140965] size =     44223510
	Batch   6 pq = [   21030,   22366] index = [     221140965,250130161] size =     28989196
  Task number: 23
  Buffer size: 11059200
  Buffer per thread: 2
  We computed 14558209 shell quartets total.
  Whereas there are 15487395 unique shell quartets.

  ==> DiskJK: Disk-Based J/K Matrices <==

    J tasked:                  Yes
    K tasked:                  Yes
    wK tasked:                  No
    Memory [MiB]:              375
    Schwarz Cutoff:          1E-12

    OpenMP threads:              1

  Minimum eigenvalue in the overlap matrix is 1.3101060818E-03.
  Using Symmetric Orthogonalization.

  SCF Guess: Superposition of Atomic Densities via on-the-fly atomic UHF.

  ==> Iterations <==

                        Total Energy        Delta E     RMS |[F,P]|

   @RHF iter SAD:  -403.42105687656556   -4.03421e+02   0.00000e+00
   @RHF iter   1:  -403.80012297500957   -3.79066e-01   3.32411e-03 DIIS
   @RHF iter   2:  -404.02705020464845   -2.26927e-01   1.84134e-03 DIIS
   @RHF iter   3:  -404.08649118308176   -5.94410e-02   4.42206e-04 DIIS
   @RHF iter   4:  -404.09175870173385   -5.26752e-03   1.72821e-04 DIIS
   @RHF iter   5:  -404.09260574044822   -8.47039e-04   3.04224e-05 DIIS
   @RHF iter   6:  -404.09265910677499   -5.33663e-05   1.55817e-05 DIIS
   @RHF iter   7:  -404.09266978418975   -1.06774e-05   5.72365e-06 DIIS
   @RHF iter   8:  -404.09267202571522   -2.24153e-06   2.19664e-06 DIIS
   @RHF iter   9:  -404.09267235084235   -3.25127e-07   5.79336e-07 DIIS
   @RHF iter  10:  -404.09267236899643   -1.81541e-08   1.67531e-07 DIIS
   @RHF iter  11:  -404.09267237051750   -1.52107e-09   4.98518e-08 DIIS
   @RHF iter  12:  -404.09267237063438   -1.16870e-10   1.59929e-08 DIIS
   @RHF iter  13:  -404.09267237064478   -1.04023e-11   4.78300e-09 DIIS
   @RHF iter  14:  -404.09267237064785   -3.06954e-12   1.23010e-09 DIIS
   @RHF iter  15:  -404.09267237064898   -1.13687e-12   3.18033e-10 DIIS
   @RHF iter  16:  -404.09267237064921   -2.27374e-13   1.26196e-10 DIIS
   @RHF iter  17:  -404.09267237064603    3.18323e-12   3.38903e-11 DIIS
  Energy and wave function converged.

  ==> Post-Iterations <==

    Orbital Energies [Eh]
    ---------------------

    Doubly Occupied:

       1A    -20.496961     2A    -15.581756     3A    -11.339640
       4A    -11.279272     5A    -11.239361     6A    -11.237078
       7A    -11.227505     8A    -11.226054     9A    -11.220784
      10A     -1.361799    11A     -1.255339    12A     -1.073323
      13A     -1.027328    14A     -1.004065    15A     -0.974320
      16A     -0.856478    17A     -0.846640    18A     -0.757228
      19A     -0.730269    20A     -0.674730    21A     -0.652615
      22A     -0.613946    23A     -0.609061    24A     -0.607885
      25A     -0.597793    26A     -0.571465    27A     -0.550883
      28A     -0.540678    29A     -0.532317    30A     -0.522563
      31A     -0.504733    32A     -0.496900    33A     -0.494027
      34A     -0.483382    35A     -0.400380    36A     -0.385681
      37A     -0.359145

    Virtual:

      38A      0.147694    39A      0.182577    40A      0.187710
      41A      0.200554    42A      0.215445    43A      0.226362
      44A      0.234784    45A      0.243040    46A      0.246384
      47A      0.252657    48A      0.265714    49A      0.280176
      50A      0.282429    51A      0.298041    52A      0.309084
      53A      0.318315    54A      0.326120    55A      0.334856
      56A      0.354537    57A      0.369492    58A      0.407826
      59A      0.418707    60A      0.446839    61A      0.506023
      62A      0.524450    63A      0.543025    64A      0.578111
      65A      0.590497    66A      0.607889    67A      0.623545
      68A      0.640612    69A      0.645056    70A      0.660202
      71A      0.670576    72A      0.682038    73A      0.696192
      74A      0.712811    75A      0.734029    76A      0.746320
      77A      0.785268    78A      0.799405    79A      0.821069
      80A      0.847933    81A      0.852640    82A      0.859286
      83A      0.864212    84A      0.873900    85A      0.878403
      86A      0.885302    87A      0.887952    88A      0.893620
      89A      0.898057    90A      0.908218    91A      0.917531
      92A      0.923145    93A      0.937696    94A      0.941386
      95A      0.953943    96A      0.970110    97A      0.979210
      98A      1.004827    99A      1.037870   100A      1.050854
     101A      1.071443   102A      1.108626   103A      1.112629
     104A      1.135867   105A      1.150122   106A      1.167097
     107A      1.214152   108A      1.242163   109A      1.252578
     110A      1.280378   111A      1.353926   112A      1.377555
     113A      1.393023   114A      1.431213   115A      1.441054
     116A      1.456949   117A      1.470670   118A      1.475989
     119A      1.488945   120A      1.555593   121A      1.559118
     122A      1.573091   123A      1.590298   124A      1.597774
     125A      1.617602   126A      1.650580   127A      1.667381
     128A      1.676610   129A      1.683526   130A      1.699542
     131A      1.740389   132A      1.769162   133A      1.819378
     134A      1.834252   135A      1.846754   136A      1.849611
     137A      1.852346   138A      1.873202   139A      1.887943
     140A      1.898780   141A      1.913855   142A      1.923902
     143A      1.929958   144A      1.933115   145A      1.939431
     146A      1.953112   147A      1.960816   148A      1.963563
     149A      1.981595   150A      1.989511   151A      1.994699
     152A      2.012157   153A      2.031192   154A      2.047875
     155A      2.084731   156A      2.104929   157A      2.114505
     158A      2.128114   159A      2.139720   160A      2.141195
     161A      2.159061   162A      2.184682   163A      2.188217
     164A      2.234804   165A      2.248494   166A      2.267712
     167A      2.277870   168A      2.290873   169A      2.312153
     170A      2.339816   171A      2.366120   172A      2.416284
     173A      2.442671   174A      2.450006   175A      2.461736
     176A      2.499885   177A      2.519060   178A      2.543977
     179A      2.560293   180A      2.571064   181A      2.578104
     182A      2.594811   183A      2.647310   184A      2.710632
     185A      2.744394   186A      2.755336   187A      2.765955
     188A      2.780914   189A      2.792362   190A      2.802690
     191A      2.806884   192A      2.824756   193A      2.829614
     194A      2.838056   195A      2.852460   196A      2.858427
     197A      2.933761   198A      2.946602   199A      2.961515
     200A      2.992919   201A      3.034661   202A      3.098793
     203A      3.137002   204A      3.172364   205A      3.238068
     206A      3.344197   207A      3.388107   208A      3.524993
     209A      3.831739   210A      3.905176   211A      5.333848

    Final Occupation by Irrep:
              A
    DOCC [    37 ]

  @RHF Final Energy:  -404.09267237064603

   => Energetics <=

    Nuclear Repulsion Energy =            479.7882465487112427
    One-Electron Energy =               -1499.0950701469625983
    Two-Electron Energy =                 615.2141512276053845
    Total Energy =                       -404.0926723706460280

Computation Completed

Properties will be evaluated at   0.000000,   0.000000,   0.000000 [a0]

Properties computed using the SCF density matrix

  Nuclear Dipole Moment: [e a0]
     X:     3.2901      Y:     9.3300      Z:    10.8810

  Electronic Dipole Moment: [e a0]
     X:    -2.7926      Y:    -7.7202      Z:   -10.4273

  Dipole Moment: [e a0]
     X:     0.4975      Y:     1.6098      Z:     0.4537     Total:     1.7449

  Dipole Moment: [D]
     X:     1.2645      Y:     4.0917      Z:     1.1533     Total:     4.4352

*** tstop() called on ds3 at Tue Apr 28 13:40:12 2020
Module time:
	user time   =      96.68 seconds =       1.61 minutes
	system time =      38.77 seconds =       0.65 minutes
	total time  =        182 seconds =       3.03 minutes
Total time:
	user time   =      96.68 seconds =       1.61 minutes
	system time =      38.77 seconds =       0.65 minutes
	total time  =        182 seconds =       3.03 minutes
                                     G D M A

                                 by Anthony Stone

                           version 2.2.06, 22 June 2011

               Distributed Multipoles from Gaussian wavefunctions

Starting at 13:40:12 on 28 Apr 2020

Using SCF density matrix from file ./SSI/SSI-045PRO-080VAL-1-dimer.test.16426.fchk

                         Distributed Multipole Analysis

Standard DMA

Positions and radii in angstrom
Multipole moments in atomic units, ea_0^k for rank k

C          x =  0.460376  y =  1.153817  z = -0.786727 angstrom
           Maximum rank =  0   Radius =  0.650 angstrom
                   Q00  =   0.024920

C          x =  1.907376  y =  1.274817  z = -0.319727 angstrom
           Maximum rank =  0   Radius =  0.650 angstrom
                   Q00  =  -0.254937

C          x =  1.568376  y = -0.979183  z = -0.950727 angstrom
           Maximum rank =  0   Radius =  0.650 angstrom
                   Q00  =  -0.105839

C          x = -2.158624  y = -0.244183  z = -1.186727 angstrom
           Maximum rank =  0   Radius =  0.650 angstrom
                   Q00  =  -0.259290

C          x = -0.825624  y = -0.974183  z = -1.281727 angstrom
           Maximum rank =  0   Radius =  0.650 angstrom
                   Q00  =   0.736782

O          x = -0.807624  y = -2.180183  z = -1.526727 angstrom
           Maximum rank =  0   Radius =  0.650 angstrom
                   Q00  =  -0.779124

N          x =  0.295376  y = -0.277183  z = -1.032727 angstrom
           Maximum rank =  0   Radius =  0.650 angstrom
                   Q00  =  -0.461000

H          x = -0.226624  y =  1.523817  z = -0.023727 angstrom
           Maximum rank =  0   Radius =  0.325 angstrom
                   Q00  =   0.076055

H          x =  0.334376  y =  1.689817  z = -1.716727 angstrom
           Maximum rank =  0   Radius =  0.325 angstrom
                   Q00  =   0.066761

H          x =  1.942376  y =  1.194817  z =  0.763273 angstrom
           Maximum rank =  0   Radius =  0.325 angstrom
                   Q00  =   0.110140

H          x =  2.346376  y =  2.223817  z = -0.630727 angstrom
           Maximum rank =  0   Radius =  0.325 angstrom
                   Q00  =   0.088442

H          x =  1.726376  y = -1.597183  z = -1.836727 angstrom
           Maximum rank =  0   Radius =  0.325 angstrom
                   Q00  =   0.105792

H          x = -2.001624  y =  0.805817  z = -1.428727 angstrom
           Maximum rank =  0   Radius =  0.325 angstrom
                   Q00  =   0.087879

H          x =  2.437646  y =  0.419957  z = -0.764733 angstrom
           Maximum rank =  0   Radius =  0.325 angstrom
                   Q00  =   0.122866

H          x =  2.322966  y = -0.179233  z = -0.924806 angstrom
           Maximum rank =  0   Radius =  0.325 angstrom
                   Q00  =   0.096329

H          x =  1.641306  y = -1.606713  z = -0.050234 angstrom
           Maximum rank =  0   Radius =  0.325 angstrom
                   Q00  =   0.094158

H          x = -2.874924  y = -0.682843  z = -1.897006 angstrom
           Maximum rank =  0   Radius =  0.325 angstrom
                   Q00  =   0.129999

H          x = -2.551184  y = -0.336763  z = -0.163338 angstrom
           Maximum rank =  0   Radius =  0.325 angstrom
                   Q00  =   0.126150

C          x =  0.433376  y =  0.986817  z =  3.076273 angstrom
           Maximum rank =  0   Radius =  0.650 angstrom
                   Q00  =  -0.235727

C          x = -0.948624  y =  1.174817  z =  3.714273 angstrom
           Maximum rank =  0   Radius =  0.650 angstrom
                   Q00  =  -0.241410

H          x =  1.132376  y =  0.534817  z =  3.780273 angstrom
           Maximum rank =  0   Radius =  0.325 angstrom
                   Q00  =   0.087128

H          x =  0.320376  y =  0.342817  z =  2.213273 angstrom
           Maximum rank =  0   Radius =  0.325 angstrom
                   Q00  =   0.066589

H          x =  0.823376  y =  1.946817  z =  2.741273 angstrom
           Maximum rank =  0   Radius =  0.325 angstrom
                   Q00  =   0.075074

H          x = -1.652624  y =  1.414817  z =  2.919273 angstrom
           Maximum rank =  0   Radius =  0.325 angstrom
                   Q00  =   0.073787

H          x = -0.927134  y =  2.017876  z =  4.420523 angstrom
           Maximum rank =  0   Radius =  0.325 angstrom
                   Q00  =   0.081808

H          x = -1.278844  y =  0.250210  z =  4.210316 angstrom
           Maximum rank =  0   Radius =  0.325 angstrom
                   Q00  =   0.086667

Total multipoles referred to origin at
           x =   0.000000,  y =    0.000000,  z =    0.000000 angstrom
                   Q00  =  -0.000000

Finished at 13:40:12 on 28 Apr 2020

  DMA results are available in the Python driver through the
	  variable('DMA DISTRIBUTED MULTIPOLES')
  and
	  variable('DMA TOTAL MULTIPOLES')
  commands.

    Psi4 stopped on: Tuesday, 28 April 2020 01:40PM
    Psi4 wall time for execution: 0:03:02.06

*** Psi4 exiting successfully. Buy a developer a beer!
