                               Psi4 1.3.2 release

  ==> Input File <==

--------------------------------------------------------------------------
import numpy as np
set {scf_type pk
basis cc-pvdz
d_convergence 10
gdma_switch   0
gdma_limit    0
gdma_origin   [ 0.0,  0.0,  0.0 ]
}
molecule test {
    units Angstrom
    0 1
    --
    0 1
    C                1.264776768423023    -0.392979746380966    -2.183791744399654
    C                2.266776768423023    -1.508979746380966    -2.417791744399653
    H                0.928776768423023     0.027020253619034    -3.132791744399654
    H                0.388776768423023    -0.798979746380965    -1.679791744399654
    H                1.711776768423023     0.385020253619034    -1.567791744399653
    H                1.796776768423023    -2.227979746380966    -3.088791744399654
    H                3.194106768423023    -1.129649746380966    -2.871851744399654
    H                2.493846768423023    -2.016299746380966    -1.468541744399653
    C               -0.933223231576977     0.244020253619034     0.904208255600346
    C               -2.358223231576977     0.506020253619034     1.431208255600346
    C               -0.307223231576977     1.536020253619035     0.382208255600346
    C               -0.060223231576977    -0.348979746380966     2.008208255600346
    H               -0.988223231576977    -0.475979746380966     0.089208255600346
    H               -2.285223231576977     1.135020253619035     2.303208255600346
    H               -0.398223231576977     2.333020253619034     1.123208255600347
    H                0.750776768423023     1.375020253619035     0.188208255600347
    H               -0.768223231576977     1.847020253619035    -0.555791744399654
    H               -0.526223231576977    -1.217979746380965     2.464208255600346
    H                0.898776768423023    -0.655979746380965     1.587208255600347
    H                0.107776768423023     0.409020253619034     2.766208255600346
    H               -2.855463231576977    -0.434049746380966     1.712318255600347
    H               -2.933603231576977     1.027570253619035     0.652158255600346

}
e, wfn = energy('scf', return_wfn=True)
gdma(wfn)
dmavals = variable('DMA DISTRIBUTED MULTIPOLES')
charges = np.array(dmavals)
print(charges)
np.save('SSI-028VAL-038VAL-1-dimer.npy', np.array(charges))--------------------------------------------------------------------------

*** tstart() called on ds3
*** at Sun Apr 26 17:46:12 2020

   => Loading Basis Set <=

    Name: CC-PVDZ
    Role: ORBITAL
    Keyword: BASIS
    atoms 1-2, 9-12  entry C          line   138 file /theoryfs2/ds/metcalf/miniconda2/envs/tf2gpu/share/psi4/basis/cc-pvdz.gbs
    atoms 3-8, 13-22 entry H          line    22 file /theoryfs2/ds/metcalf/miniconda2/envs/tf2gpu/share/psi4/basis/cc-pvdz.gbs

         ---------------------------------------------------------
                                   SCF
               by Justin Turney, Rob Parrish, Andy Simmonett
                          and Daniel G. A. Smith
                              RHF Reference
                        1 Threads,    500 MiB Core
         ---------------------------------------------------------

  ==> Geometry <==

    Molecular point group: c1
    Full point group: C1

    Geometry (in Angstrom), charge = 0, multiplicity = 1:

       Center              X                  Y                   Z               Mass
    ------------   -----------------  -----------------  -----------------  -----------------
         C            1.264776768423    -0.392979746381    -2.183791744400    12.000000000000
         C            2.266776768423    -1.508979746381    -2.417791744400    12.000000000000
         H            0.928776768423     0.027020253619    -3.132791744400     1.007825032230
         H            0.388776768423    -0.798979746381    -1.679791744400     1.007825032230
         H            1.711776768423     0.385020253619    -1.567791744400     1.007825032230
         H            1.796776768423    -2.227979746381    -3.088791744400     1.007825032230
         H            3.194106768423    -1.129649746381    -2.871851744400     1.007825032230
         H            2.493846768423    -2.016299746381    -1.468541744400     1.007825032230
         C           -0.933223231577     0.244020253619     0.904208255600    12.000000000000
         C           -2.358223231577     0.506020253619     1.431208255600    12.000000000000
         C           -0.307223231577     1.536020253619     0.382208255600    12.000000000000
         C           -0.060223231577    -0.348979746381     2.008208255600    12.000000000000
         H           -0.988223231577    -0.475979746381     0.089208255600     1.007825032230
         H           -2.285223231577     1.135020253619     2.303208255600     1.007825032230
         H           -0.398223231577     2.333020253619     1.123208255600     1.007825032230
         H            0.750776768423     1.375020253619     0.188208255600     1.007825032230
         H           -0.768223231577     1.847020253619    -0.555791744400     1.007825032230
         H           -0.526223231577    -1.217979746381     2.464208255600     1.007825032230
         H            0.898776768423    -0.655979746381     1.587208255600     1.007825032230
         H            0.107776768423     0.409020253619     2.766208255600     1.007825032230
         H           -2.855463231577    -0.434049746381     1.712318255600     1.007825032230
         H           -2.933603231577     1.027570253619     0.652158255600     1.007825032230

  Running in c1 symmetry.

  Rotational constants: A =      0.16338  B =      0.03334  C =      0.03148 [cm^-1]
  Rotational constants: A =   4898.00030  B =    999.49357  C =    943.80874 [MHz]
  Nuclear repulsion =  246.727111271583539

  Charge       = 0
  Multiplicity = 1
  Electrons    = 52
  Nalpha       = 26
  Nbeta        = 26

  ==> Algorithm <==

  SCF Algorithm Type is PK.
  DIIS enabled.
  MOM disabled.
  Fractional occupation disabled.
  Guess Type is SAD.
  Energy threshold   = 1.00e-06
  Density threshold  = 1.00e-10
  Integral threshold = 0.00e+00

  ==> Primary Basis <==

  Basis Set: CC-PVDZ
    Blend: CC-PVDZ
    Number of shells: 84
    Number of basis function: 164
    Number of Cartesian functions: 170
    Spherical Harmonics?: true
    Max angular momentum: 2

  ==> Pre-Iterations <==

   -------------------------------------------------------
    Irrep   Nso     Nmo     Nalpha   Nbeta   Ndocc  Nsocc
   -------------------------------------------------------
     A        164     164       0       0       0       0
   -------------------------------------------------------
    Total     164     164      26      26      26       0
   -------------------------------------------------------

  ==> Integral Setup <==

  Using integral reordering PK algorithm.
  Sizing the integral batches needed.
  Building batch lookup table.
   Calculation information:
      Number of atoms:                  22
      Number of AO shells:              84
      Number of primitives:            212
      Number of atomic orbitals:       170
      Number of basis functions:       164

      Integral cutoff                 1.00e-12
      Number of threads:                 1

	Batch   1 pq = [       0,    9405] index = [             0,44231715] size =     44231715
	Batch   2 pq = [    9405,   13530] index = [      44231715,91537215] size =     47305500
  Task number: 9
  Buffer size: 11059200
  Buffer per thread: 2
  We computed 5782150 shell quartets total.
  Whereas there are 6374235 unique shell quartets.

  ==> DiskJK: Disk-Based J/K Matrices <==

    J tasked:                  Yes
    K tasked:                  Yes
    wK tasked:                  No
    Memory [MiB]:              375
    Schwarz Cutoff:          1E-12

    OpenMP threads:              1

  Minimum eigenvalue in the overlap matrix is 4.4465292651E-03.
  Using Symmetric Orthogonalization.

  SCF Guess: Superposition of Atomic Densities via on-the-fly atomic UHF.

  ==> Iterations <==

                        Total Energy        Delta E     RMS |[F,P]|

   @RHF iter SAD:  -235.45898325292347   -2.35459e+02   0.00000e+00
   @RHF iter   1:  -236.31032449948279   -8.51341e-01   3.54348e-03 DIIS
   @RHF iter   2:  -236.50196845336666   -1.91644e-01   1.53264e-03 DIIS
   @RHF iter   3:  -236.53585577923224   -3.38873e-02   3.14831e-04 DIIS
   @RHF iter   4:  -236.53848805399093   -2.63227e-03   7.02280e-05 DIIS
   @RHF iter   5:  -236.53857479816014   -8.67442e-05   1.57069e-05 DIIS
   @RHF iter   6:  -236.53858017257812   -5.37442e-06   2.57420e-06 DIIS
   @RHF iter   7:  -236.53858033132349   -1.58745e-07   5.86962e-07 DIIS
   @RHF iter   8:  -236.53858034028582   -8.96233e-09   1.41005e-07 DIIS
   @RHF iter   9:  -236.53858034082032   -5.34499e-10   3.89483e-08 DIIS
   @RHF iter  10:  -236.53858034086892   -4.86011e-11   9.09687e-09 DIIS
   @RHF iter  11:  -236.53858034087222   -3.29692e-12   2.01903e-09 DIIS
   @RHF iter  12:  -236.53858034087230   -8.52651e-14   4.59844e-10 DIIS
   @RHF iter  13:  -236.53858034087273   -4.26326e-13   1.23696e-10 DIIS
   @RHF iter  14:  -236.53858034087202    7.10543e-13   2.43832e-11 DIIS
  Energy and wave function converged.

  ==> Post-Iterations <==

    Orbital Energies [Eh]
    ---------------------

    Doubly Occupied:

       1A    -11.222511     2A    -11.218698     3A    -11.215476
       4A    -11.214464     5A    -11.212031     6A    -11.211991
       7A     -1.081093     8A     -1.021707     9A     -0.925938
      10A     -0.925315    11A     -0.835753    12A     -0.764496
      13A     -0.632287    14A     -0.603692    15A     -0.598399
      16A     -0.587085    17A     -0.585944    18A     -0.536512
      19A     -0.535331    20A     -0.509182    21A     -0.501824
      22A     -0.487003    23A     -0.483230    24A     -0.459761
      25A     -0.457163    26A     -0.451179

    Virtual:

      27A      0.166107    28A      0.193860    29A      0.217558
      30A      0.223706    31A      0.232731    32A      0.241382
      33A      0.247478    34A      0.260706    35A      0.266111
      36A      0.272291    37A      0.283379    38A      0.301918
      39A      0.308079    40A      0.325222    41A      0.337852
      42A      0.366838    43A      0.377497    44A      0.399553
      45A      0.413664    46A      0.416563    47A      0.551738
      48A      0.569167    49A      0.589555    50A      0.600550
      51A      0.604891    52A      0.620836    53A      0.629744
      54A      0.652815    55A      0.680763    56A      0.749919
      57A      0.768797    58A      0.777589    59A      0.806603
      60A      0.831564    61A      0.861356    62A      0.865822
      63A      0.882134    64A      0.888210    65A      0.892696
      66A      0.896222    67A      0.897468    68A      0.904080
      69A      0.909083    70A      0.916085    71A      0.921794
      72A      0.931059    73A      0.944365    74A      0.950838
      75A      0.961131    76A      0.970626    77A      0.982280
      78A      1.003289    79A      1.004518    80A      1.019305
      81A      1.122656    82A      1.129296    83A      1.141369
      84A      1.158719    85A      1.165724    86A      1.271160
      87A      1.374983    88A      1.404416    89A      1.408376
      90A      1.476275    91A      1.492101    92A      1.547970
      93A      1.562960    94A      1.591359    95A      1.659979
      96A      1.665906    97A      1.672245    98A      1.682039
      99A      1.686807   100A      1.690130   101A      1.710623
     102A      1.735619   103A      1.740869   104A      1.834668
     105A      1.836968   106A      1.859797   107A      1.865850
     108A      1.886318   109A      1.914426   110A      1.929785
     111A      1.938498   112A      1.942784   113A      1.947586
     114A      1.952150   115A      1.958978   116A      1.964544
     117A      1.975915   118A      1.982867   119A      1.984005
     120A      2.005108   121A      2.011002   122A      2.033669
     123A      2.075525   124A      2.089363   125A      2.099099
     126A      2.118050   127A      2.132438   128A      2.145218
     129A      2.163341   130A      2.248172   131A      2.255117
     132A      2.299134   133A      2.302180   134A      2.318478
     135A      2.326202   136A      2.345617   137A      2.366080
     138A      2.374833   139A      2.457366   140A      2.471384
     141A      2.488822   142A      2.554932   143A      2.576198
     144A      2.580627   145A      2.617660   146A      2.626614
     147A      2.717003   148A      2.728361   149A      2.758413
     150A      2.763728   151A      2.785495   152A      2.794711
     153A      2.808010   154A      2.817033   155A      2.836504
     156A      2.850706   157A      2.860263   158A      2.861495
     159A      2.870154   160A      2.956889   161A      2.981954
     162A      3.016786   163A      3.028497   164A      3.114644

    Final Occupation by Irrep:
              A
    DOCC [    26 ]

  @RHF Final Energy:  -236.53858034087202

   => Energetics <=

    Nuclear Repulsion Energy =            246.7271112715835386
    One-Electron Energy =                -805.9752542844713616
    Two-Electron Energy =                 322.7095626720158066
    Total Energy =                       -236.5385803408719880

Computation Completed

Properties will be evaluated at   0.000000,   0.000000,   0.000000 [a0]

Properties computed using the SCF density matrix

  Nuclear Dipole Moment: [e a0]
     X:     1.4214      Y:    -0.3920      Z:    -1.3869

  Electronic Dipole Moment: [e a0]
     X:    -1.4195      Y:     0.3697      Z:     1.3457

  Dipole Moment: [e a0]
     X:     0.0019      Y:    -0.0223      Z:    -0.0412     Total:     0.0469

  Dipole Moment: [D]
     X:     0.0048      Y:    -0.0568      Z:    -0.1047     Total:     0.1192

*** tstop() called on ds3 at Sun Apr 26 17:46:54 2020
Module time:
	user time   =      30.75 seconds =       0.51 minutes
	system time =      12.70 seconds =       0.21 minutes
	total time  =         42 seconds =       0.70 minutes
Total time:
	user time   =      30.75 seconds =       0.51 minutes
	system time =      12.70 seconds =       0.21 minutes
	total time  =         42 seconds =       0.70 minutes
                                     G D M A

                                 by Anthony Stone

                           version 2.2.06, 22 June 2011

               Distributed Multipoles from Gaussian wavefunctions

Starting at 17:46:54 on 26 Apr 2020

Using SCF density matrix from file ./SSI/SSI-028VAL-038VAL-1-dimer.test.10925.fchk

                         Distributed Multipole Analysis

Standard DMA

Positions and radii in angstrom
Multipole moments in atomic units, ea_0^k for rank k

C          x =  1.264777  y = -0.392980  z = -2.183792 angstrom
           Maximum rank =  0   Radius =  0.650 angstrom
                   Q00  =  -0.245038

C          x =  2.266777  y = -1.508980  z = -2.417792 angstrom
           Maximum rank =  0   Radius =  0.650 angstrom
                   Q00  =  -0.223092

H          x =  0.928777  y =  0.027020  z = -3.132792 angstrom
           Maximum rank =  0   Radius =  0.325 angstrom
                   Q00  =   0.078748

H          x =  0.388777  y = -0.798980  z = -1.679792 angstrom
           Maximum rank =  0   Radius =  0.325 angstrom
                   Q00  =   0.078266

H          x =  1.711777  y =  0.385020  z = -1.567792 angstrom
           Maximum rank =  0   Radius =  0.325 angstrom
                   Q00  =   0.078164

H          x =  1.796777  y = -2.227980  z = -3.088792 angstrom
           Maximum rank =  0   Radius =  0.325 angstrom
                   Q00  =   0.076187

H          x =  3.194107  y = -1.129650  z = -2.871852 angstrom
           Maximum rank =  0   Radius =  0.325 angstrom
                   Q00  =   0.079861

H          x =  2.493847  y = -2.016300  z = -1.468542 angstrom
           Maximum rank =  0   Radius =  0.325 angstrom
                   Q00  =   0.076670

C          x = -0.933223  y =  0.244020  z =  0.904208 angstrom
           Maximum rank =  0   Radius =  0.650 angstrom
                   Q00  =  -0.000186

C          x = -2.358223  y =  0.506020  z =  1.431208 angstrom
           Maximum rank =  0   Radius =  0.650 angstrom
                   Q00  =  -0.233439

C          x = -0.307223  y =  1.536020  z =  0.382208 angstrom
           Maximum rank =  0   Radius =  0.650 angstrom
                   Q00  =  -0.245402

C          x = -0.060223  y = -0.348980  z =  2.008208 angstrom
           Maximum rank =  0   Radius =  0.650 angstrom
                   Q00  =  -0.244767

H          x = -0.988223  y = -0.475980  z =  0.089208 angstrom
           Maximum rank =  0   Radius =  0.325 angstrom
                   Q00  =   0.013946

H          x = -2.285223  y =  1.135020  z =  2.303208 angstrom
           Maximum rank =  0   Radius =  0.325 angstrom
                   Q00  =   0.077009

H          x = -0.398223  y =  2.333020  z =  1.123208 angstrom
           Maximum rank =  0   Radius =  0.325 angstrom
                   Q00  =   0.075440

H          x =  0.750777  y =  1.375020  z =  0.188208 angstrom
           Maximum rank =  0   Radius =  0.325 angstrom
                   Q00  =   0.079331

H          x = -0.768223  y =  1.847020  z = -0.555792 angstrom
           Maximum rank =  0   Radius =  0.325 angstrom
                   Q00  =   0.083053

H          x = -0.526223  y = -1.217980  z =  2.464208 angstrom
           Maximum rank =  0   Radius =  0.325 angstrom
                   Q00  =   0.080665

H          x =  0.898777  y = -0.655980  z =  1.587208 angstrom
           Maximum rank =  0   Radius =  0.325 angstrom
                   Q00  =   0.079101

H          x =  0.107777  y =  0.409020  z =  2.766208 angstrom
           Maximum rank =  0   Radius =  0.325 angstrom
                   Q00  =   0.074712

H          x = -2.855463  y = -0.434050  z =  1.712318 angstrom
           Maximum rank =  0   Radius =  0.325 angstrom
                   Q00  =   0.082149

H          x = -2.933603  y =  1.027570  z =  0.652158 angstrom
           Maximum rank =  0   Radius =  0.325 angstrom
                   Q00  =   0.078623

Total multipoles referred to origin at
           x =   0.000000,  y =    0.000000,  z =    0.000000 angstrom
                   Q00  =  -0.000000

Finished at 17:46:54 on 26 Apr 2020

  DMA results are available in the Python driver through the
	  variable('DMA DISTRIBUTED MULTIPOLES')
  and
	  variable('DMA TOTAL MULTIPOLES')
  commands.

    Psi4 stopped on: Sunday, 26 April 2020 05:46PM
    Psi4 wall time for execution: 0:00:42.25

*** Psi4 exiting successfully. Buy a developer a beer!
