                               Psi4 1.3.2 release

  ==> Input File <==

--------------------------------------------------------------------------
import numpy as np
set {scf_type pk
basis cc-pvdz
d_convergence 10
gdma_switch   0
gdma_limit    0
gdma_origin   [ 0.0,  0.0,  0.0 ]
}
molecule test {
    units Angstrom
    0 1
    --
    0 1
    C                1.031927704220847    -0.672236885434581    -3.186916185050106
    C                1.589927704220847    -1.564236885434581    -2.076916185050106
    H                1.377927704220847    -1.026236885434581    -4.158916185050106
    H               -0.055072295779153    -0.706236885434581    -3.165916185050106
    H                1.344927704220847     0.359763114565419    -3.035916185050107
    H                1.314927704220847    -1.126236885434581    -1.117916185050106
    H                2.686999104220847    -1.605716885434581    -2.145576185050106
    H                1.163081904220847    -2.577188885434581    -2.118526185050106
    C                1.316927704220847     0.681763114565419     3.114083814949893
    C               -1.154072295779153     0.152763114565419    -0.385916185050106
    C               -0.986072295779153    -0.896236885434581     0.518083814949894
    C               -0.506072295779153     1.368763114565419    -0.168916185050106
    C               -0.187072295779153    -0.718236885434581     1.647083814949894
    C                0.293927704220847     1.534763114565419     0.968083814949894
    C                0.472927704220847     0.489763114565419     1.877083814949894
    O               -1.946072295779153    -0.025236885434581    -1.481916185050106
    H               -1.457072295779153    -1.849236885434581     0.337083814949894
    H               -2.377072295779153    -0.886236885434581    -1.483916185050106
    H               -0.633072295779153     2.177763114565419    -0.873916185050106
    H               -0.086072295779153    -1.533236885434581     2.350083814949894
    H                0.787927704220847     2.481763114565419     1.132083814949894
    H                0.810927704220847     0.179763114565419     3.935083814949894
    H                1.371927704220847     1.737763114565419     3.361083814949894
    H                2.341551004220847     0.286736114565419     3.050043814949893

}
e, wfn = energy('scf', return_wfn=True)
gdma(wfn)
dmavals = variable('DMA DISTRIBUTED MULTIPOLES')
charges = np.array(dmavals)
print(charges)
np.save('SSI-039VAL-083TYR-1-dimer.npy', np.array(charges))--------------------------------------------------------------------------

*** tstart() called on ds3
*** at Tue Apr 28 13:44:58 2020

   => Loading Basis Set <=

    Name: CC-PVDZ
    Role: ORBITAL
    Keyword: BASIS
    atoms 1-2, 9-15  entry C          line   138 file /theoryfs2/ds/metcalf/miniconda2/envs/tf2gpu/share/psi4/basis/cc-pvdz.gbs
    atoms 3-8, 17-24 entry H          line    22 file /theoryfs2/ds/metcalf/miniconda2/envs/tf2gpu/share/psi4/basis/cc-pvdz.gbs
    atoms 16         entry O          line   198 file /theoryfs2/ds/metcalf/miniconda2/envs/tf2gpu/share/psi4/basis/cc-pvdz.gbs

         ---------------------------------------------------------
                                   SCF
               by Justin Turney, Rob Parrish, Andy Simmonett
                          and Daniel G. A. Smith
                              RHF Reference
                        1 Threads,    500 MiB Core
         ---------------------------------------------------------

  ==> Geometry <==

    Molecular point group: c1
    Full point group: C1

    Geometry (in Angstrom), charge = 0, multiplicity = 1:

       Center              X                  Y                   Z               Mass
    ------------   -----------------  -----------------  -----------------  -----------------
         C            1.031927704221    -0.672236885435    -3.186916185050    12.000000000000
         C            1.589927704221    -1.564236885435    -2.076916185050    12.000000000000
         H            1.377927704221    -1.026236885435    -4.158916185050     1.007825032230
         H           -0.055072295779    -0.706236885435    -3.165916185050     1.007825032230
         H            1.344927704221     0.359763114565    -3.035916185050     1.007825032230
         H            1.314927704221    -1.126236885435    -1.117916185050     1.007825032230
         H            2.686999104221    -1.605716885435    -2.145576185050     1.007825032230
         H            1.163081904221    -2.577188885435    -2.118526185050     1.007825032230
         C            1.316927704221     0.681763114565     3.114083814950    12.000000000000
         C           -1.154072295779     0.152763114565    -0.385916185050    12.000000000000
         C           -0.986072295779    -0.896236885435     0.518083814950    12.000000000000
         C           -0.506072295779     1.368763114565    -0.168916185050    12.000000000000
         C           -0.187072295779    -0.718236885435     1.647083814950    12.000000000000
         C            0.293927704221     1.534763114565     0.968083814950    12.000000000000
         C            0.472927704221     0.489763114565     1.877083814950    12.000000000000
         O           -1.946072295779    -0.025236885435    -1.481916185050    15.994914619570
         H           -1.457072295779    -1.849236885435     0.337083814950     1.007825032230
         H           -2.377072295779    -0.886236885435    -1.483916185050     1.007825032230
         H           -0.633072295779     2.177763114565    -0.873916185050     1.007825032230
         H           -0.086072295779    -1.533236885435     2.350083814950     1.007825032230
         H            0.787927704221     2.481763114565     1.132083814950     1.007825032230
         H            0.810927704221     0.179763114565     3.935083814950     1.007825032230
         H            1.371927704221     1.737763114565     3.361083814950     1.007825032230
         H            2.341551004221     0.286736114565     3.050043814950     1.007825032230

  Running in c1 symmetry.

  Rotational constants: A =      0.05658  B =      0.02603  C =      0.02273 [cm^-1]
  Rotational constants: A =   1696.22665  B =    780.29687  C =    681.28121 [MHz]
  Nuclear repulsion =  510.738570662858478

  Charge       = 0
  Multiplicity = 1
  Electrons    = 76
  Nalpha       = 38
  Nbeta        = 38

  ==> Algorithm <==

  SCF Algorithm Type is PK.
  DIIS enabled.
  MOM disabled.
  Fractional occupation disabled.
  Guess Type is SAD.
  Energy threshold   = 1.00e-06
  Density threshold  = 1.00e-10
  Integral threshold = 0.00e+00

  ==> Primary Basis <==

  Basis Set: CC-PVDZ
    Blend: CC-PVDZ
    Number of shells: 102
    Number of basis function: 210
    Number of Cartesian functions: 220
    Spherical Harmonics?: true
    Max angular momentum: 2

  ==> Pre-Iterations <==

   -------------------------------------------------------
    Irrep   Nso     Nmo     Nalpha   Nbeta   Ndocc  Nsocc
   -------------------------------------------------------
     A        210     210       0       0       0       0
   -------------------------------------------------------
    Total     210     210      38      38      38       0
   -------------------------------------------------------

  ==> Integral Setup <==

  Using integral reordering PK algorithm.
  Sizing the integral batches needed.
  Building batch lookup table.
   Calculation information:
      Number of atoms:                  24
      Number of AO shells:             102
      Number of primitives:            290
      Number of atomic orbitals:       220
      Number of basis functions:       210

      Integral cutoff                 1.00e-12
      Number of threads:                 1

	Batch   1 pq = [       0,    9405] index = [             0,44231715] size =     44231715
	Batch   2 pq = [    9405,   13301] index = [      44231715,88464951] size =     44233236
	Batch   3 pq = [   13301,   16290] index = [      88464951,132690195] size =     44225244
	Batch   4 pq = [   16290,   18810] index = [     132690195,176917455] size =     44227260
	Batch   5 pq = [   18810,   21030] index = [     176917455,221140965] size =     44223510
	Batch   6 pq = [   21030,   22155] index = [     221140965,245433090] size =     24292125
  Task number: 23
  Buffer size: 11059200
  Buffer per thread: 2
  We computed 13172054 shell quartets total.
  Whereas there are 13799631 unique shell quartets.

  ==> DiskJK: Disk-Based J/K Matrices <==

    J tasked:                  Yes
    K tasked:                  Yes
    wK tasked:                  No
    Memory [MiB]:              375
    Schwarz Cutoff:          1E-12

    OpenMP threads:              1

  Minimum eigenvalue in the overlap matrix is 3.2692547394E-04.
  Using Symmetric Orthogonalization.

  SCF Guess: Superposition of Atomic Densities via on-the-fly atomic UHF.

  ==> Iterations <==

                        Total Energy        Delta E     RMS |[F,P]|

   @RHF iter SAD:  -422.66265675345863   -4.22663e+02   0.00000e+00
   @RHF iter   1:  -423.60262608104244   -9.39969e-01   2.97044e-03 DIIS
   @RHF iter   2:  -423.81807521876590   -2.15449e-01   1.24984e-03 DIIS
   @RHF iter   3:  -423.85264386835826   -3.45686e-02   2.80432e-04 DIIS
   @RHF iter   4:  -423.85547478547898   -2.83092e-03   1.13686e-04 DIIS
   @RHF iter   5:  -423.85580577353608   -3.30988e-04   2.11535e-05 DIIS
   @RHF iter   6:  -423.85582369784072   -1.79243e-05   6.57298e-06 DIIS
   @RHF iter   7:  -423.85582539813390   -1.70029e-06   2.09192e-06 DIIS
   @RHF iter   8:  -423.85582562468335   -2.26549e-07   8.05745e-07 DIIS
   @RHF iter   9:  -423.85582566092978   -3.62464e-08   3.04969e-07 DIIS
   @RHF iter  10:  -423.85582566734962   -6.41984e-09   1.27077e-07 DIIS
   @RHF iter  11:  -423.85582566920635   -1.85673e-09   5.86599e-08 DIIS
   @RHF iter  12:  -423.85582566962563   -4.19277e-10   2.96517e-08 DIIS
   @RHF iter  13:  -423.85582566970913   -8.35030e-11   8.36483e-09 DIIS
   @RHF iter  14:  -423.85582566971709   -7.95808e-12   2.22943e-09 DIIS
   @RHF iter  15:  -423.85582566971732   -2.27374e-13   7.05273e-10 DIIS
   @RHF iter  16:  -423.85582566971510    2.21689e-12   2.13416e-10 DIIS
   @RHF iter  17:  -423.85582566971522   -1.13687e-13   8.63079e-11 DIIS
  Energy and wave function converged.

  ==> Post-Iterations <==

    Orbital Energies [Eh]
    ---------------------

    Doubly Occupied:

       1A    -20.586435     2A    -11.301872     3A    -11.241235
       4A    -11.241006     5A    -11.236228     6A    -11.235172
       7A    -11.233521     8A    -11.228494     9A    -11.206769
      10A    -11.203790    11A     -1.402143    12A     -1.150912
      13A     -1.038248    14A     -1.018299    15A     -1.006179
      16A     -0.928016    17A     -0.845642    18A     -0.824924
      19A     -0.804413    20A     -0.734223    21A     -0.669511
      22A     -0.643486    23A     -0.609218    24A     -0.600473
      25A     -0.588217    26A     -0.586219    27A     -0.575838
      28A     -0.570674    29A     -0.566654    30A     -0.527687
      31A     -0.500511    32A     -0.488629    33A     -0.486887
      34A     -0.480297    35A     -0.473868    36A     -0.460026
      37A     -0.339315    38A     -0.303558

    Virtual:

      39A      0.126756    40A      0.152687    41A      0.169760
      42A      0.185438    43A      0.206702    44A      0.214858
      45A      0.220772    46A      0.242994    47A      0.254947
      48A      0.269703    49A      0.270861    50A      0.279545
      51A      0.282202    52A      0.292607    53A      0.311016
      54A      0.324366    55A      0.367981    56A      0.372516
      57A      0.407935    58A      0.425286    59A      0.453686
      60A      0.482006    61A      0.493184    62A      0.504713
      63A      0.587382    64A      0.592471    65A      0.612675
      66A      0.613831    67A      0.630494    68A      0.645256
      69A      0.655699    70A      0.670047    71A      0.676290
      72A      0.689098    73A      0.713942    74A      0.732132
      75A      0.735599    76A      0.757937    77A      0.769286
      78A      0.774743    79A      0.786362    80A      0.793665
      81A      0.834606    82A      0.841756    83A      0.854787
      84A      0.868464    85A      0.872481    86A      0.877004
      87A      0.882602    88A      0.890684    89A      0.892573
      90A      0.910658    91A      0.917161    92A      0.926676
      93A      0.933089    94A      0.938587    95A      0.942419
      96A      0.945682    97A      0.966496    98A      0.993065
      99A      1.003025   100A      1.024549   101A      1.043795
     102A      1.100795   103A      1.116053   104A      1.126045
     105A      1.140259   106A      1.148544   107A      1.157538
     108A      1.168935   109A      1.204586   110A      1.234475
     111A      1.249343   112A      1.267435   113A      1.284159
     114A      1.292051   115A      1.295605   116A      1.315551
     117A      1.346809   118A      1.353142   119A      1.376416
     120A      1.386434   121A      1.479015   122A      1.485072
     123A      1.487419   124A      1.513290   125A      1.524251
     126A      1.545380   127A      1.594709   128A      1.610574
     129A      1.631038   130A      1.680618   131A      1.698678
     132A      1.708376   133A      1.724683   134A      1.744802
     135A      1.748781   136A      1.780068   137A      1.809749
     138A      1.818740   139A      1.852366   140A      1.874109
     141A      1.886650   142A      1.895127   143A      1.900035
     144A      1.913544   145A      1.915781   146A      1.919652
     147A      1.924806   148A      1.940242   149A      1.948693
     150A      1.959250   151A      1.963962   152A      1.973892
     153A      1.979567   154A      1.981824   155A      1.990255
     156A      2.007422   157A      2.035478   158A      2.043196
     159A      2.061983   160A      2.064770   161A      2.068430
     162A      2.123863   163A      2.136468   164A      2.140972
     165A      2.142888   166A      2.166551   167A      2.199946
     168A      2.227219   169A      2.255817   170A      2.268926
     171A      2.302301   172A      2.313752   173A      2.326642
     174A      2.328526   175A      2.388724   176A      2.417758
     177A      2.447757   178A      2.469088   179A      2.481144
     180A      2.483715   181A      2.495860   182A      2.533861
     183A      2.559732   184A      2.587063   185A      2.593940
     186A      2.616942   187A      2.651663   188A      2.745682
     189A      2.770939   190A      2.781747   191A      2.792347
     192A      2.803363   193A      2.812245   194A      2.851624
     195A      2.870084   196A      2.876593   197A      2.903390
     198A      2.950285   199A      2.971158   200A      2.996139
     201A      3.009381   202A      3.084457   203A      3.115685
     204A      3.251560   205A      3.273723   206A      3.345003
     207A      3.579304   208A      3.664097   209A      3.969203
     210A      4.184696

    Final Occupation by Irrep:
              A
    DOCC [    38 ]

  @RHF Final Energy:  -423.85582566971522

   => Energetics <=

    Nuclear Repulsion Energy =            510.7385706628584785
    One-Electron Energy =               -1587.3116198935895227
    Two-Electron Energy =                 652.7172235610159987
    Total Energy =                       -423.8558256697151592

Computation Completed

Properties will be evaluated at   0.000000,   0.000000,   0.000000 [a0]

Properties computed using the SCF density matrix

  Nuclear Dipole Moment: [e a0]
     X:     8.0452      Y:    -3.8313      Z:    -3.6962

  Electronic Dipole Moment: [e a0]
     X:    -8.1459      Y:     3.4342      Z:     4.1374

  Dipole Moment: [e a0]
     X:    -0.1007      Y:    -0.3971      Z:     0.4412     Total:     0.6021

  Dipole Moment: [D]
     X:    -0.2560      Y:    -1.0094      Z:     1.1214     Total:     1.5304

*** tstop() called on ds3 at Tue Apr 28 13:47:22 2020
Module time:
	user time   =     105.40 seconds =       1.76 minutes
	system time =      43.84 seconds =       0.73 minutes
	total time  =        144 seconds =       2.40 minutes
Total time:
	user time   =     105.40 seconds =       1.76 minutes
	system time =      43.84 seconds =       0.73 minutes
	total time  =        144 seconds =       2.40 minutes
                                     G D M A

                                 by Anthony Stone

                           version 2.2.06, 22 June 2011

               Distributed Multipoles from Gaussian wavefunctions

Starting at 13:47:22 on 28 Apr 2020

Using SCF density matrix from file ./SSI/SSI-039VAL-083TYR-1-dimer.test.28861.fchk

                         Distributed Multipole Analysis

Standard DMA

Positions and radii in angstrom
Multipole moments in atomic units, ea_0^k for rank k

C          x =  1.031928  y = -0.672237  z = -3.186916 angstrom
           Maximum rank =  0   Radius =  0.650 angstrom
                   Q00  =  -0.229503

C          x =  1.589928  y = -1.564237  z = -2.076916 angstrom
           Maximum rank =  0   Radius =  0.650 angstrom
                   Q00  =  -0.243162

H          x =  1.377928  y = -1.026237  z = -4.158916 angstrom
           Maximum rank =  0   Radius =  0.325 angstrom
                   Q00  =   0.069577

H          x = -0.055072  y = -0.706237  z = -3.165916 angstrom
           Maximum rank =  0   Radius =  0.325 angstrom
                   Q00  =   0.078199

H          x =  1.344928  y =  0.359763  z = -3.035916 angstrom
           Maximum rank =  0   Radius =  0.325 angstrom
                   Q00  =   0.079684

H          x =  1.314928  y = -1.126237  z = -1.117916 angstrom
           Maximum rank =  0   Radius =  0.325 angstrom
                   Q00  =   0.091020

H          x =  2.686999  y = -1.605717  z = -2.145576 angstrom
           Maximum rank =  0   Radius =  0.325 angstrom
                   Q00  =   0.072636

H          x =  1.163082  y = -2.577189  z = -2.118526 angstrom
           Maximum rank =  0   Radius =  0.325 angstrom
                   Q00  =   0.067972

C          x =  1.316928  y =  0.681763  z =  3.114084 angstrom
           Maximum rank =  0   Radius =  0.650 angstrom
                   Q00  =  -0.194212

C          x = -1.154072  y =  0.152763  z = -0.385916 angstrom
           Maximum rank =  0   Radius =  0.650 angstrom
                   Q00  =   0.308276

C          x = -0.986072  y = -0.896237  z =  0.518084 angstrom
           Maximum rank =  0   Radius =  0.650 angstrom
                   Q00  =  -0.172528

C          x = -0.506072  y =  1.368763  z = -0.168916 angstrom
           Maximum rank =  0   Radius =  0.650 angstrom
                   Q00  =  -0.123749

C          x = -0.187072  y = -0.718237  z =  1.647084 angstrom
           Maximum rank =  0   Radius =  0.650 angstrom
                   Q00  =   0.023948

C          x =  0.293928  y =  1.534763  z =  0.968084 angstrom
           Maximum rank =  0   Radius =  0.650 angstrom
                   Q00  =  -0.018775

C          x =  0.472928  y =  0.489763  z =  1.877084 angstrom
           Maximum rank =  0   Radius =  0.650 angstrom
                   Q00  =  -0.139378

O          x = -1.946072  y = -0.025237  z = -1.481916 angstrom
           Maximum rank =  0   Radius =  0.650 angstrom
                   Q00  =  -0.662126

H          x = -1.457072  y = -1.849237  z =  0.337084 angstrom
           Maximum rank =  0   Radius =  0.325 angstrom
                   Q00  =   0.072073

H          x = -2.377072  y = -0.886237  z = -1.483916 angstrom
           Maximum rank =  0   Radius =  0.325 angstrom
                   Q00  =   0.407640

H          x = -0.633072  y =  2.177763  z = -0.873916 angstrom
           Maximum rank =  0   Radius =  0.325 angstrom
                   Q00  =   0.083340

H          x = -0.086072  y = -1.533237  z =  2.350084 angstrom
           Maximum rank =  0   Radius =  0.325 angstrom
                   Q00  =   0.068998

H          x =  0.787928  y =  2.481763  z =  1.132084 angstrom
           Maximum rank =  0   Radius =  0.325 angstrom
                   Q00  =   0.066315

H          x =  0.810928  y =  0.179763  z =  3.935084 angstrom
           Maximum rank =  0   Radius =  0.325 angstrom
                   Q00  =   0.095036

H          x =  1.371928  y =  1.737763  z =  3.361084 angstrom
           Maximum rank =  0   Radius =  0.325 angstrom
                   Q00  =   0.098035

H          x =  2.341551  y =  0.286736  z =  3.050044 angstrom
           Maximum rank =  0   Radius =  0.325 angstrom
                   Q00  =   0.100685

Total multipoles referred to origin at
           x =   0.000000,  y =    0.000000,  z =    0.000000 angstrom
                   Q00  =  -0.000000

Finished at 13:47:22 on 28 Apr 2020

  DMA results are available in the Python driver through the
	  variable('DMA DISTRIBUTED MULTIPOLES')
  and
	  variable('DMA TOTAL MULTIPOLES')
  commands.

    Psi4 stopped on: Tuesday, 28 April 2020 01:47PM
    Psi4 wall time for execution: 0:02:24.07

*** Psi4 exiting successfully. Buy a developer a beer!
