                               Psi4 1.3.2 release

  ==> Input File <==

--------------------------------------------------------------------------
import numpy as np
set {scf_type pk
basis cc-pvdz
d_convergence 10
gdma_switch   0
gdma_limit    0
gdma_origin   [ 0.0,  0.0,  0.0 ]
}
molecule test {
    units Angstrom
    0 1
    --
    0 1
    C                1.541191559849525    -2.476275555151906    -2.925320078571884
    C                0.586191559849525    -1.610275555151906    -2.089320078571884
    O                0.956191559849525    -1.303275555151906    -0.925320078571884
    O               -0.524808440150475    -1.224275555151906    -2.567320078571884
    H                2.390191559849524    -2.775275555151906    -2.311320078571883
    H                1.906191559849525    -1.892275555151906    -3.772320078571884
    H                1.064768559849525    -3.390575555151907    -3.308890078571884
    C               -0.871808440150475     2.963724444848094     2.753679921428116
    C               -0.419808440150475     0.904724444848094     1.439679921428116
    N               -0.704808440150475    -0.360275555151906     1.221679921428116
    N               -1.035808440150475     1.543724444848094     2.418679921428116
    N                0.449191559849525     1.542724444848094     0.682679921428116
    H               -1.403808440150475    -0.833275555151906     1.782679921428116
    H               -0.238808440150475    -0.865275555151906     0.469679921428116
    H               -1.662808440150475     1.013724444848094     3.012679921428116
    H                0.636191559849525     2.520724444848093     0.846679921428116
    H                0.922191559849525     1.054724444848094    -0.063320078571884
    H               -1.264808440150475     3.565724444848094     1.932679921428116
    H                0.188191559849525     3.173724444848094     2.878679921428116
    H               -1.391665440150475     3.260624444848094     3.676519921428116

}
e, wfn = energy('scf', return_wfn=True)
gdma(wfn)
dmavals = variable('DMA DISTRIBUTED MULTIPOLES')
charges = np.array(dmavals)
print(charges)
np.save('SSI-090GLU-119ARG-1-dimer.npy', np.array(charges))--------------------------------------------------------------------------

*** tstart() called on ds3
*** at Sun Apr 26 22:55:04 2020

   => Loading Basis Set <=

    Name: CC-PVDZ
    Role: ORBITAL
    Keyword: BASIS
    atoms 1-2, 8-9   entry C          line   138 file /theoryfs2/ds/metcalf/miniconda2/envs/tf2gpu/share/psi4/basis/cc-pvdz.gbs
    atoms 3-4        entry O          line   198 file /theoryfs2/ds/metcalf/miniconda2/envs/tf2gpu/share/psi4/basis/cc-pvdz.gbs
    atoms 5-7, 13-20 entry H          line    22 file /theoryfs2/ds/metcalf/miniconda2/envs/tf2gpu/share/psi4/basis/cc-pvdz.gbs
    atoms 10-12      entry N          line   168 file /theoryfs2/ds/metcalf/miniconda2/envs/tf2gpu/share/psi4/basis/cc-pvdz.gbs

         ---------------------------------------------------------
                                   SCF
               by Justin Turney, Rob Parrish, Andy Simmonett
                          and Daniel G. A. Smith
                              RHF Reference
                        1 Threads,    500 MiB Core
         ---------------------------------------------------------

  ==> Geometry <==

    Molecular point group: c1
    Full point group: C1

    Geometry (in Angstrom), charge = 0, multiplicity = 1:

       Center              X                  Y                   Z               Mass
    ------------   -----------------  -----------------  -----------------  -----------------
         C            1.541191559850    -2.476275555152    -2.925320078572    12.000000000000
         C            0.586191559850    -1.610275555152    -2.089320078572    12.000000000000
         O            0.956191559850    -1.303275555152    -0.925320078572    15.994914619570
         O           -0.524808440150    -1.224275555152    -2.567320078572    15.994914619570
         H            2.390191559850    -2.775275555152    -2.311320078572     1.007825032230
         H            1.906191559850    -1.892275555152    -3.772320078572     1.007825032230
         H            1.064768559850    -3.390575555152    -3.308890078572     1.007825032230
         C           -0.871808440150     2.963724444848     2.753679921428    12.000000000000
         C           -0.419808440150     0.904724444848     1.439679921428    12.000000000000
         N           -0.704808440150    -0.360275555152     1.221679921428    14.003074004430
         N           -1.035808440150     1.543724444848     2.418679921428    14.003074004430
         N            0.449191559850     1.542724444848     0.682679921428    14.003074004430
         H           -1.403808440150    -0.833275555152     1.782679921428     1.007825032230
         H           -0.238808440150    -0.865275555152     0.469679921428     1.007825032230
         H           -1.662808440150     1.013724444848     3.012679921428     1.007825032230
         H            0.636191559850     2.520724444848     0.846679921428     1.007825032230
         H            0.922191559850     1.054724444848    -0.063320078572     1.007825032230
         H           -1.264808440150     3.565724444848     1.932679921428     1.007825032230
         H            0.188191559850     3.173724444848     2.878679921428     1.007825032230
         H           -1.391665440150     3.260624444848     3.676519921428     1.007825032230

  Running in c1 symmetry.

  Rotational constants: A =      0.15799  B =      0.01648  C =      0.01625 [cm^-1]
  Rotational constants: A =   4736.50070  B =    494.19055  C =    487.14094 [MHz]
  Nuclear repulsion =  445.845214163664536

  Charge       = 0
  Multiplicity = 1
  Electrons    = 72
  Nalpha       = 36
  Nbeta        = 36

  ==> Algorithm <==

  SCF Algorithm Type is PK.
  DIIS enabled.
  MOM disabled.
  Fractional occupation disabled.
  Guess Type is SAD.
  Energy threshold   = 1.00e-06
  Density threshold  = 1.00e-10
  Integral threshold = 0.00e+00

  ==> Primary Basis <==

  Basis Set: CC-PVDZ
    Blend: CC-PVDZ
    Number of shells: 87
    Number of basis function: 181
    Number of Cartesian functions: 190
    Spherical Harmonics?: true
    Max angular momentum: 2

  ==> Pre-Iterations <==

   -------------------------------------------------------
    Irrep   Nso     Nmo     Nalpha   Nbeta   Ndocc  Nsocc
   -------------------------------------------------------
     A        181     181       0       0       0       0
   -------------------------------------------------------
    Total     181     181      36      36      36       0
   -------------------------------------------------------

  ==> Integral Setup <==

  Using integral reordering PK algorithm.
  Sizing the integral batches needed.
  Building batch lookup table.
   Calculation information:
      Number of atoms:                  20
      Number of AO shells:              87
      Number of primitives:            253
      Number of atomic orbitals:       190
      Number of basis functions:       181

      Integral cutoff                 1.00e-12
      Number of threads:                 1

	Batch   1 pq = [       0,    9405] index = [             0,44231715] size =     44231715
	Batch   2 pq = [    9405,   13301] index = [      44231715,88464951] size =     44233236
	Batch   3 pq = [   13301,   16471] index = [      88464951,135655156] size =     47190205
  Task number: 13
  Buffer size: 11059200
  Buffer per thread: 2
  We computed 5092690 shell quartets total.
  Whereas there are 7328706 unique shell quartets.

  ==> DiskJK: Disk-Based J/K Matrices <==

    J tasked:                  Yes
    K tasked:                  Yes
    wK tasked:                  No
    Memory [MiB]:              375
    Schwarz Cutoff:          1E-12

    OpenMP threads:              1

  Minimum eigenvalue in the overlap matrix is 3.8162280614E-03.
  Using Symmetric Orthogonalization.

  SCF Guess: Superposition of Atomic Densities via on-the-fly atomic UHF.

  ==> Iterations <==

                        Total Energy        Delta E     RMS |[F,P]|

   @RHF iter SAD:  -469.59470950050729   -4.69595e+02   0.00000e+00
   @RHF iter   1:  -470.69221104935195   -1.09750e+00   4.27171e-03 DIIS
   @RHF iter   2:  -470.91692275414050   -2.24712e-01   2.29409e-03 DIIS
   @RHF iter   3:  -470.97919645952675   -6.22737e-02   4.05330e-04 DIIS
   @RHF iter   4:  -470.98259068833943   -3.39423e-03   1.48611e-04 DIIS
   @RHF iter   5:  -470.98303022454360   -4.39536e-04   3.02811e-05 DIIS
   @RHF iter   6:  -470.98305352628824   -2.33017e-05   1.55221e-05 DIIS
   @RHF iter   7:  -470.98305825223099   -4.72594e-06   3.60052e-06 DIIS
   @RHF iter   8:  -470.98305884522040   -5.92989e-07   1.65398e-06 DIIS
   @RHF iter   9:  -470.98305894849568   -1.03275e-07   6.07726e-07 DIIS
   @RHF iter  10:  -470.98305896881851   -2.03228e-08   2.03971e-07 DIIS
   @RHF iter  11:  -470.98305897093991   -2.12140e-09   5.39437e-08 DIIS
   @RHF iter  12:  -470.98305897104819   -1.08287e-10   1.94831e-08 DIIS
   @RHF iter  13:  -470.98305897105854   -1.03455e-11   5.74605e-09 DIIS
   @RHF iter  14:  -470.98305897105649    2.04636e-12   1.64297e-09 DIIS
   @RHF iter  15:  -470.98305897105888   -2.38742e-12   6.28556e-10 DIIS
   @RHF iter  16:  -470.98305897105803    8.52651e-13   1.90544e-10 DIIS
   @RHF iter  17:  -470.98305897105826   -2.27374e-13   7.22521e-11 DIIS
  Energy and wave function converged.

  ==> Post-Iterations <==

    Orbital Energies [Eh]
    ---------------------

    Doubly Occupied:

       1A    -20.417545     2A    -20.391770     3A    -15.658085
       4A    -15.640752     5A    -15.617971     6A    -11.443360
       7A    -11.338585     8A    -11.257091     9A    -11.163079
      10A     -1.403492    11A     -1.286345    12A     -1.264378
      13A     -1.237432    14A     -1.168905    15A     -1.024632
      16A     -0.908849    17A     -0.899215    18A     -0.834367
      19A     -0.788397    20A     -0.716525    21A     -0.703990
      22A     -0.700816    23A     -0.670137    24A     -0.628466
      25A     -0.618657    26A     -0.616018    27A     -0.536603
      28A     -0.529020    29A     -0.523023    30A     -0.469025
      31A     -0.464739    32A     -0.447964    33A     -0.436970
      34A     -0.330241    35A     -0.306163    36A     -0.302770

    Virtual:

      37A      0.115951    38A      0.139701    39A      0.164873
      40A      0.176031    41A      0.211095    42A      0.217664
      43A      0.224270    44A      0.251530    45A      0.263772
      46A      0.284529    47A      0.290211    48A      0.319737
      49A      0.353380    50A      0.371086    51A      0.422372
      52A      0.459133    53A      0.465482    54A      0.478706
      55A      0.561632    56A      0.571116    57A      0.584984
      58A      0.618400    59A      0.635608    60A      0.654897
      61A      0.662535    62A      0.687475    63A      0.694038
      64A      0.711614    65A      0.718754    66A      0.766342
      67A      0.792454    68A      0.803779    69A      0.817461
      70A      0.819763    71A      0.840378    72A      0.861083
      73A      0.871451    74A      0.883965    75A      0.918447
      76A      0.922392    77A      0.930742    78A      0.945323
      79A      0.949630    80A      0.963421    81A      0.982309
      82A      0.995380    83A      1.030628    84A      1.039595
      85A      1.069349    86A      1.092196    87A      1.101440
      88A      1.116994    89A      1.192014    90A      1.207071
      91A      1.232149    92A      1.237506    93A      1.275191
      94A      1.286588    95A      1.319673    96A      1.339432
      97A      1.349554    98A      1.399303    99A      1.422729
     100A      1.423662   101A      1.455267   102A      1.476498
     103A      1.498135   104A      1.518275   105A      1.534876
     106A      1.586969   107A      1.598310   108A      1.611243
     109A      1.626206   110A      1.648086   111A      1.679463
     112A      1.699061   113A      1.711421   114A      1.739580
     115A      1.763418   116A      1.820399   117A      1.843956
     118A      1.860541   119A      1.872304   120A      1.887262
     121A      1.896668   122A      1.912918   123A      1.931888
     124A      1.959414   125A      1.969313   126A      1.975886
     127A      1.991249   128A      1.992802   129A      1.998719
     130A      2.062631   131A      2.100814   132A      2.141321
     133A      2.149670   134A      2.179401   135A      2.188671
     136A      2.207230   137A      2.211124   138A      2.236237
     139A      2.297397   140A      2.311541   141A      2.317688
     142A      2.364318   143A      2.419834   144A      2.427303
     145A      2.439561   146A      2.463937   147A      2.478378
     148A      2.528348   149A      2.537268   150A      2.576282
     151A      2.602993   152A      2.626908   153A      2.671936
     154A      2.689516   155A      2.703768   156A      2.715654
     157A      2.762136   158A      2.809719   159A      2.840989
     160A      2.848597   161A      2.877348   162A      2.895574
     163A      2.923958   164A      2.972963   165A      2.996900
     166A      3.023764   167A      3.101791   168A      3.135480
     169A      3.151982   170A      3.196005   171A      3.225766
     172A      3.275983   173A      3.296229   174A      3.483128
     175A      3.611469   176A      3.662117   177A      3.734330
     178A      3.813522   179A      3.911107   180A      3.927347
     181A      4.053652

    Final Occupation by Irrep:
              A
    DOCC [    36 ]

  @RHF Final Energy:  -470.98305897105826

   => Energetics <=

    Nuclear Repulsion Energy =            445.8452141636645365
    One-Electron Energy =               -1528.1657885349850403
    Two-Electron Energy =                 611.3375154002624186
    Total Energy =                       -470.9830589710581989

Computation Completed

Properties will be evaluated at   0.000000,   0.000000,   0.000000 [a0]

Properties computed using the SCF density matrix

  Nuclear Dipole Moment: [e a0]
     X:     1.0800      Y:     4.5103      Z:     4.7928

  Electronic Dipole Moment: [e a0]
     X:    -1.8447      Y:    -1.1551      Z:     0.0489

  Dipole Moment: [e a0]
     X:    -0.7647      Y:     3.3552      Z:     4.8417     Total:     5.9400

  Dipole Moment: [D]
     X:    -1.9436      Y:     8.5280      Z:    12.3063     Total:    15.0980

*** tstop() called on ds3 at Sun Apr 26 22:57:30 2020
Module time:
	user time   =      40.00 seconds =       0.67 minutes
	system time =      18.47 seconds =       0.31 minutes
	total time  =        146 seconds =       2.43 minutes
Total time:
	user time   =      40.00 seconds =       0.67 minutes
	system time =      18.47 seconds =       0.31 minutes
	total time  =        146 seconds =       2.43 minutes
                                     G D M A

                                 by Anthony Stone

                           version 2.2.06, 22 June 2011

               Distributed Multipoles from Gaussian wavefunctions

Starting at 22:57:30 on 26 Apr 2020

Using SCF density matrix from file ./SSI/SSI-090GLU-119ARG-1-dimer.test.18948.fchk

                         Distributed Multipole Analysis

Standard DMA

Positions and radii in angstrom
Multipole moments in atomic units, ea_0^k for rank k

C          x =  1.541192  y = -2.476276  z = -2.925320 angstrom
           Maximum rank =  0   Radius =  0.650 angstrom
                   Q00  =  -0.274495

C          x =  0.586192  y = -1.610276  z = -2.089320 angstrom
           Maximum rank =  0   Radius =  0.650 angstrom
                   Q00  =   0.910699

O          x =  0.956192  y = -1.303276  z = -0.925320 angstrom
           Maximum rank =  0   Radius =  0.650 angstrom
                   Q00  =  -0.958455

O          x = -0.524808  y = -1.224276  z = -2.567320 angstrom
           Maximum rank =  0   Radius =  0.650 angstrom
                   Q00  =  -0.891131

H          x =  2.390192  y = -2.775276  z = -2.311320 angstrom
           Maximum rank =  0   Radius =  0.325 angstrom
                   Q00  =   0.072341

H          x =  1.906192  y = -1.892276  z = -3.772320 angstrom
           Maximum rank =  0   Radius =  0.325 angstrom
                   Q00  =   0.097692

H          x =  1.064769  y = -3.390576  z = -3.308890 angstrom
           Maximum rank =  0   Radius =  0.325 angstrom
                   Q00  =   0.092843

C          x = -0.871808  y =  2.963724  z =  2.753680 angstrom
           Maximum rank =  0   Radius =  0.650 angstrom
                   Q00  =  -0.111285

C          x = -0.419808  y =  0.904724  z =  1.439680 angstrom
           Maximum rank =  0   Radius =  0.650 angstrom
                   Q00  =   1.070087

N          x = -0.704808  y = -0.360276  z =  1.221680 angstrom
           Maximum rank =  0   Radius =  0.650 angstrom
                   Q00  =  -0.586720

N          x = -1.035808  y =  1.543724  z =  2.418680 angstrom
           Maximum rank =  0   Radius =  0.650 angstrom
                   Q00  =  -0.503366

N          x =  0.449192  y =  1.542724  z =  0.682680 angstrom
           Maximum rank =  0   Radius =  0.650 angstrom
                   Q00  =  -0.566175

H          x = -1.403808  y = -0.833276  z =  1.782680 angstrom
           Maximum rank =  0   Radius =  0.325 angstrom
                   Q00  =   0.229723

H          x = -0.238808  y = -0.865276  z =  0.469680 angstrom
           Maximum rank =  0   Radius =  0.325 angstrom
                   Q00  =   0.323164

H          x = -1.662808  y =  1.013724  z =  3.012680 angstrom
           Maximum rank =  0   Radius =  0.325 angstrom
                   Q00  =   0.211958

H          x =  0.636192  y =  2.520724  z =  0.846680 angstrom
           Maximum rank =  0   Radius =  0.325 angstrom
                   Q00  =   0.238642

H          x =  0.922192  y =  1.054724  z = -0.063320 angstrom
           Maximum rank =  0   Radius =  0.325 angstrom
                   Q00  =   0.292531

H          x = -1.264808  y =  3.565724  z =  1.932680 angstrom
           Maximum rank =  0   Radius =  0.325 angstrom
                   Q00  =   0.107046

H          x =  0.188192  y =  3.173724  z =  2.878680 angstrom
           Maximum rank =  0   Radius =  0.325 angstrom
                   Q00  =   0.099271

H          x = -1.391665  y =  3.260624  z =  3.676520 angstrom
           Maximum rank =  0   Radius =  0.325 angstrom
                   Q00  =   0.145629

Total multipoles referred to origin at
           x =   0.000000,  y =    0.000000,  z =    0.000000 angstrom
                   Q00  =  -0.000000

Finished at 22:57:30 on 26 Apr 2020

  DMA results are available in the Python driver through the
	  variable('DMA DISTRIBUTED MULTIPOLES')
  and
	  variable('DMA TOTAL MULTIPOLES')
  commands.

    Psi4 stopped on: Sunday, 26 April 2020 10:57PM
    Psi4 wall time for execution: 0:02:25.51

*** Psi4 exiting successfully. Buy a developer a beer!
