                               Psi4 1.3.2 release

  ==> Input File <==

--------------------------------------------------------------------------
import numpy as np
set {scf_type pk
basis cc-pvdz
d_convergence 10
gdma_switch   0
gdma_limit    0
gdma_origin   [ 0.0,  0.0,  0.0 ]
}
molecule test {
    units Angstrom
    0 1
    --
    0 1
    C                1.914110542804708     0.205446555286456    -3.403093057066745
    C               -1.335889457195292     0.628446555286456    -1.505093057066745
    C               -0.151889457195292     0.914446555286456    -2.159093057066745
    C               -1.814889457195292    -0.669553444713544    -1.461093057066745
    C                0.595110542804708    -0.101553444713544    -2.752093057066745
    C               -1.077889457195292    -1.701553444713544    -2.043093057066745
    C                0.123110542804708    -1.415553444713544    -2.693093057066745
    H               -1.897889457195292     1.425446555286456    -1.046093057066745
    H                0.188110542804708     1.938446555286456    -2.208093057066745
    H               -2.753889457195292    -0.878553444713544    -0.969093057066745
    H               -1.436889457195292    -2.717553444713544    -1.977093057066745
    H                1.931110542804708     1.260446555286456    -3.678093057066745
    H                1.999110542804708    -0.363553444713544    -4.328093057066745
    H                0.692110542804708    -2.216553444713544    -3.143093057066745
    H                2.777900542804708    -0.013373444713544    -2.758123057066745
    C               -0.201889457195292    -1.793553444713543     2.143906942933254
    C               -0.588889457195292     0.761446555286456     1.986906942933255
    C                0.077110542804708    -0.340553444713544     2.417906942933254
    C                1.070110542804708     1.428446555286456     3.264906942933255
    N                0.049110542804708     1.855446555286456     2.530906942933254
    N                1.106110542804708     0.105446555286456     3.219906942933255
    H               -1.475889457195292     0.759446555286456     1.364906942933255
    H               -0.326889457195292     2.793446555286456     2.589906942933255
    H               -1.148889457195292    -1.845553444713544     1.610906942933255
    H               -0.310889457195292    -2.322553444713544     3.087906942933255
    H                1.718110542804708     2.042446555286456     3.874906942933255
    H                0.565460542804708    -2.292443444713544     1.533756942933255

}
e, wfn = energy('scf', return_wfn=True)
gdma(wfn)
dmavals = variable('DMA DISTRIBUTED MULTIPOLES')
charges = np.array(dmavals)
print(charges)
np.save('SSI-031PHE-062HIE-1-dimer.npy', np.array(charges))--------------------------------------------------------------------------

*** tstart() called on ds3
*** at Tue Apr 28 14:16:50 2020

   => Loading Basis Set <=

    Name: CC-PVDZ
    Role: ORBITAL
    Keyword: BASIS
    atoms 1-7, 16-19  entry C          line   138 file /theoryfs2/ds/metcalf/miniconda2/envs/tf2gpu/share/psi4/basis/cc-pvdz.gbs
    atoms 8-15, 22-27 entry H          line    22 file /theoryfs2/ds/metcalf/miniconda2/envs/tf2gpu/share/psi4/basis/cc-pvdz.gbs
    atoms 20-21       entry N          line   168 file /theoryfs2/ds/metcalf/miniconda2/envs/tf2gpu/share/psi4/basis/cc-pvdz.gbs

         ---------------------------------------------------------
                                   SCF
               by Justin Turney, Rob Parrish, Andy Simmonett
                          and Daniel G. A. Smith
                              RHF Reference
                        1 Threads,    500 MiB Core
         ---------------------------------------------------------

  ==> Geometry <==

    Molecular point group: c1
    Full point group: C1

    Geometry (in Angstrom), charge = 0, multiplicity = 1:

       Center              X                  Y                   Z               Mass
    ------------   -----------------  -----------------  -----------------  -----------------
         C            1.914110542805     0.205446555286    -3.403093057067    12.000000000000
         C           -1.335889457195     0.628446555286    -1.505093057067    12.000000000000
         C           -0.151889457195     0.914446555286    -2.159093057067    12.000000000000
         C           -1.814889457195    -0.669553444714    -1.461093057067    12.000000000000
         C            0.595110542805    -0.101553444714    -2.752093057067    12.000000000000
         C           -1.077889457195    -1.701553444714    -2.043093057067    12.000000000000
         C            0.123110542805    -1.415553444714    -2.693093057067    12.000000000000
         H           -1.897889457195     1.425446555286    -1.046093057067     1.007825032230
         H            0.188110542805     1.938446555286    -2.208093057067     1.007825032230
         H           -2.753889457195    -0.878553444714    -0.969093057067     1.007825032230
         H           -1.436889457195    -2.717553444714    -1.977093057067     1.007825032230
         H            1.931110542805     1.260446555286    -3.678093057067     1.007825032230
         H            1.999110542805    -0.363553444714    -4.328093057067     1.007825032230
         H            0.692110542805    -2.216553444714    -3.143093057067     1.007825032230
         H            2.777900542805    -0.013373444714    -2.758123057067     1.007825032230
         C           -0.201889457195    -1.793553444714     2.143906942933    12.000000000000
         C           -0.588889457195     0.761446555286     1.986906942933    12.000000000000
         C            0.077110542805    -0.340553444714     2.417906942933    12.000000000000
         C            1.070110542805     1.428446555286     3.264906942933    12.000000000000
         N            0.049110542805     1.855446555286     2.530906942933    14.003074004430
         N            1.106110542805     0.105446555286     3.219906942933    14.003074004430
         H           -1.475889457195     0.759446555286     1.364906942933     1.007825032230
         H           -0.326889457195     2.793446555286     2.589906942933     1.007825032230
         H           -1.148889457195    -1.845553444714     1.610906942933     1.007825032230
         H           -0.310889457195    -2.322553444714     3.087906942933     1.007825032230
         H            1.718110542805     2.042446555286     3.874906942933     1.007825032230
         H            0.565460542805    -2.292443444714     1.533756942933     1.007825032230

  Running in c1 symmetry.

  Rotational constants: A =      0.04084  B =      0.01297  C =      0.01209 [cm^-1]
  Rotational constants: A =   1224.43173  B =    388.93436  C =    362.47600 [MHz]
  Nuclear repulsion =  715.307212052468799

  Charge       = 0
  Multiplicity = 1
  Electrons    = 94
  Nalpha       = 47
  Nbeta        = 47

  ==> Algorithm <==

  SCF Algorithm Type is PK.
  DIIS enabled.
  MOM disabled.
  Fractional occupation disabled.
  Guess Type is SAD.
  Energy threshold   = 1.00e-06
  Density threshold  = 1.00e-10
  Integral threshold = 0.00e+00

  ==> Primary Basis <==

  Basis Set: CC-PVDZ
    Blend: CC-PVDZ
    Number of shells: 120
    Number of basis function: 252
    Number of Cartesian functions: 265
    Spherical Harmonics?: true
    Max angular momentum: 2

  ==> Pre-Iterations <==

   -------------------------------------------------------
    Irrep   Nso     Nmo     Nalpha   Nbeta   Ndocc  Nsocc
   -------------------------------------------------------
     A        252     252       0       0       0       0
   -------------------------------------------------------
    Total     252     252      47      47      47       0
   -------------------------------------------------------

  ==> Integral Setup <==

  Using integral reordering PK algorithm.
  Sizing the integral batches needed.
  Building batch lookup table.
   Calculation information:
      Number of atoms:                  27
      Number of AO shells:             120
      Number of primitives:            356
      Number of atomic orbitals:       265
      Number of basis functions:       252

      Integral cutoff                 1.00e-12
      Number of threads:                 1

	Batch   1 pq = [       0,    9405] index = [             0,44231715] size =     44231715
	Batch   2 pq = [    9405,   13301] index = [      44231715,88464951] size =     44233236
	Batch   3 pq = [   13301,   16290] index = [      88464951,132690195] size =     44225244
	Batch   4 pq = [   16290,   18810] index = [     132690195,176917455] size =     44227260
	Batch   5 pq = [   18810,   21030] index = [     176917455,221140965] size =     44223510
	Batch   6 pq = [   21030,   23037] index = [     221140965,265363203] size =     44222238
	Batch   7 pq = [   23037,   24883] index = [     265363203,309594286] size =     44231083
	Batch   8 pq = [   24883,   26601] index = [     309594286,353819901] size =     44225615
	Batch   9 pq = [   26601,   28214] index = [     353819901,398029005] size =     44209104
	Batch  10 pq = [   28214,   29740] index = [     398029005,442248670] size =     44219665
	Batch  11 pq = [   29740,   31191] index = [     442248670,486454836] size =     44206166
	Batch  12 pq = [   31191,   31878] index = [     486454836,508119381] size =     21664545
  Task number: 46
  Buffer size: 11059200
  Buffer per thread: 2
  We computed 25387890 shell quartets total.
  Whereas there are 26357430 unique shell quartets.

  ==> DiskJK: Disk-Based J/K Matrices <==

    J tasked:                  Yes
    K tasked:                  Yes
    wK tasked:                  No
    Memory [MiB]:              375
    Schwarz Cutoff:          1E-12

    OpenMP threads:              1

  Minimum eigenvalue in the overlap matrix is 3.1070469199E-04.
  Using Symmetric Orthogonalization.

  SCF Guess: Superposition of Atomic Densities via on-the-fly atomic UHF.

  ==> Iterations <==

                        Total Energy        Delta E     RMS |[F,P]|

   @RHF iter SAD:  -532.75417608486100   -5.32754e+02   0.00000e+00
   @RHF iter   1:  -533.34248334694735   -5.88307e-01   2.58274e-03 DIIS
   @RHF iter   2:  -533.57495112209688   -2.32468e-01   1.26794e-03 DIIS
   @RHF iter   3:  -533.62401841915585   -4.90673e-02   3.36077e-04 DIIS
   @RHF iter   4:  -533.62845947693802   -4.44106e-03   1.38734e-04 DIIS
   @RHF iter   5:  -533.62913313890670   -6.73662e-04   2.09446e-05 DIIS
   @RHF iter   6:  -533.62915975805754   -2.66192e-05   9.15027e-06 DIIS
   @RHF iter   7:  -533.62916469623690   -4.93818e-06   3.25465e-06 DIIS
   @RHF iter   8:  -533.62916573671350   -1.04048e-06   1.37694e-06 DIIS
   @RHF iter   9:  -533.62916595685192   -2.20138e-07   5.56527e-07 DIIS
   @RHF iter  10:  -533.62916598898403   -3.21321e-08   1.69624e-07 DIIS
   @RHF iter  11:  -533.62916599221649   -3.23246e-09   6.50803e-08 DIIS
   @RHF iter  12:  -533.62916599264918   -4.32692e-10   2.98162e-08 DIIS
   @RHF iter  13:  -533.62916599272353   -7.43512e-11   8.39606e-09 DIIS
   @RHF iter  14:  -533.62916599273206   -8.52651e-12   3.38789e-09 DIIS
   @RHF iter  15:  -533.62916599273308   -1.02318e-12   1.36205e-09 DIIS
   @RHF iter  16:  -533.62916599273058    2.50111e-12   4.41345e-10 DIIS
   @RHF iter  17:  -533.62916599273228   -1.70530e-12   2.04157e-10 DIIS
   @RHF iter  18:  -533.62916599273285   -5.68434e-13   5.72357e-11 DIIS
  Energy and wave function converged.

  ==> Post-Iterations <==

    Orbital Energies [Eh]
    ---------------------

    Doubly Occupied:

       1A    -15.614237     2A    -15.521935     3A    -11.286305
       4A    -11.244161     5A    -11.241298     6A    -11.237533
       7A    -11.235279     8A    -11.234940     9A    -11.232039
      10A    -11.231776    11A    -11.229756    12A    -11.228427
      13A    -11.217560    14A     -1.336748    15A     -1.154364
      16A     -1.148071    17A     -1.045594    18A     -1.025063
      19A     -1.013909    20A     -0.934248    21A     -0.931729
      22A     -0.826243    23A     -0.811285    24A     -0.797140
      25A     -0.756553    26A     -0.736023    27A     -0.692970
      28A     -0.632946    29A     -0.631985    30A     -0.606720
      31A     -0.597732    32A     -0.588724    33A     -0.583396
      34A     -0.577008    35A     -0.563523    36A     -0.547260
      37A     -0.534349    38A     -0.533795    39A     -0.515403
      40A     -0.487711    41A     -0.485280    42A     -0.483660
      43A     -0.404080    44A     -0.373331    45A     -0.334644
      46A     -0.322610    47A     -0.302820

    Virtual:

      48A      0.134188    49A      0.137894    50A      0.169085
      51A      0.181999    52A      0.193031    53A      0.197268
      54A      0.212074    55A      0.223393    56A      0.231070
      57A      0.233497    58A      0.239908    59A      0.246885
      60A      0.261752    61A      0.278157    62A      0.288130
      63A      0.292005    64A      0.308421    65A      0.324710
      66A      0.365588    67A      0.376479    68A      0.387241
      69A      0.399153    70A      0.417290    71A      0.450308
      72A      0.461130    73A      0.474117    74A      0.478932
      75A      0.489981    76A      0.510624    77A      0.565449
      78A      0.585419    79A      0.604503    80A      0.621742
      81A      0.625686    82A      0.639349    83A      0.666380
      84A      0.678887    85A      0.683387    86A      0.697628
      87A      0.707675    88A      0.709051    89A      0.718310
      90A      0.733309    91A      0.738113    92A      0.742906
      93A      0.754325    94A      0.761879    95A      0.764513
      96A      0.775787    97A      0.782567    98A      0.803515
      99A      0.813729   100A      0.824261   101A      0.843286
     102A      0.848869   103A      0.857382   104A      0.863451
     105A      0.866118   106A      0.882342   107A      0.895537
     108A      0.896882   109A      0.898393   110A      0.911519
     111A      0.923196   112A      0.931397   113A      0.935186
     114A      0.937659   115A      0.943563   116A      0.954841
     117A      0.978320   118A      0.988165   119A      0.991695
     120A      1.010653   121A      1.039967   122A      1.055931
     123A      1.067663   124A      1.097136   125A      1.107761
     126A      1.112350   127A      1.124620   128A      1.136885
     129A      1.147323   130A      1.161894   131A      1.176604
     132A      1.182034   133A      1.198649   134A      1.234947
     135A      1.238923   136A      1.240752   137A      1.253544
     138A      1.257394   139A      1.283266   140A      1.298838
     141A      1.308614   142A      1.311043   143A      1.318669
     144A      1.327437   145A      1.339207   146A      1.373048
     147A      1.413638   148A      1.432391   149A      1.451138
     150A      1.494936   151A      1.507156   152A      1.519925
     153A      1.525852   154A      1.558928   155A      1.581740
     156A      1.593055   157A      1.610403   158A      1.654921
     159A      1.674961   160A      1.690799   161A      1.694121
     162A      1.702940   163A      1.742484   164A      1.746203
     165A      1.773192   166A      1.779566   167A      1.788463
     168A      1.807804   169A      1.816768   170A      1.833908
     171A      1.862462   172A      1.872196   173A      1.888321
     174A      1.898610   175A      1.906056   176A      1.911281
     177A      1.915441   178A      1.927454   179A      1.937600
     180A      1.947272   181A      1.953438   182A      1.956124
     183A      1.967162   184A      1.978077   185A      1.979980
     186A      1.988169   187A      1.999162   188A      2.009245
     189A      2.029001   190A      2.045740   191A      2.060663
     192A      2.072416   193A      2.092046   194A      2.105172
     195A      2.126815   196A      2.138100   197A      2.142145
     198A      2.157918   199A      2.165576   200A      2.173150
     201A      2.184627   202A      2.197437   203A      2.214251
     204A      2.231598   205A      2.253049   206A      2.280139
     207A      2.293741   208A      2.301649   209A      2.307120
     210A      2.321775   211A      2.334002   212A      2.352341
     213A      2.397711   214A      2.452238   215A      2.463545
     216A      2.472435   217A      2.477502   218A      2.490844
     219A      2.507665   220A      2.536214   221A      2.555162
     222A      2.615765   223A      2.625575   224A      2.695519
     225A      2.732098   226A      2.744242   227A      2.756018
     228A      2.761458   229A      2.770447   230A      2.777565
     231A      2.789368   232A      2.797348   233A      2.810585
     234A      2.846734   235A      2.848932   236A      2.874795
     237A      2.895683   238A      2.915923   239A      2.926591
     240A      2.980081   241A      2.987326   242A      3.007755
     243A      3.029771   244A      3.060758   245A      3.157197
     246A      3.173270   247A      3.203729   248A      3.245353
     249A      3.303556   250A      3.474781   251A      3.777852
     252A      3.975700

    Final Occupation by Irrep:
              A
    DOCC [    47 ]

  @RHF Final Energy:  -533.62916599273285

   => Energetics <=

    Nuclear Repulsion Energy =            715.3072120524687989
    One-Electron Energy =               -2141.7284302456046134
    Two-Electron Energy =                 892.7920522004028498
    Total Energy =                       -533.6291659927328510

Computation Completed

Properties will be evaluated at   0.000000,   0.000000,   0.000000 [a0]

Properties computed using the SCF density matrix

  Nuclear Dipole Moment: [e a0]
     X:     0.4848      Y:    -2.2842      Z:    -5.6842

  Electronic Dipole Moment: [e a0]
     X:    -1.0517      Y:     3.3529      Z:     5.2708

  Dipole Moment: [e a0]
     X:    -0.5669      Y:     1.0687      Z:    -0.4134     Total:     1.2785

  Dipole Moment: [D]
     X:    -1.4410      Y:     2.7165      Z:    -1.0508     Total:     3.2496

*** tstop() called on ds3 at Tue Apr 28 14:23:24 2020
Module time:
	user time   =     208.99 seconds =       3.48 minutes
	system time =      82.60 seconds =       1.38 minutes
	total time  =        394 seconds =       6.57 minutes
Total time:
	user time   =     208.99 seconds =       3.48 minutes
	system time =      82.60 seconds =       1.38 minutes
	total time  =        394 seconds =       6.57 minutes
                                     G D M A

                                 by Anthony Stone

                           version 2.2.06, 22 June 2011

               Distributed Multipoles from Gaussian wavefunctions

Starting at 14:23:24 on 28 Apr 2020

Using SCF density matrix from file ./SSI/SSI-031PHE-062HIE-1-dimer.test.11684.fchk

                         Distributed Multipole Analysis

Standard DMA

Positions and radii in angstrom
Multipole moments in atomic units, ea_0^k for rank k

C          x =  1.914111  y =  0.205447  z = -3.403093 angstrom
           Maximum rank =  0   Radius =  0.650 angstrom
                   Q00  =  -0.198678

C          x = -1.335889  y =  0.628447  z = -1.505093 angstrom
           Maximum rank =  0   Radius =  0.650 angstrom
                   Q00  =  -0.027960

C          x = -0.151889  y =  0.914447  z = -2.159093 angstrom
           Maximum rank =  0   Radius =  0.650 angstrom
                   Q00  =  -0.006520

C          x = -1.814889  y = -0.669553  z = -1.461093 angstrom
           Maximum rank =  0   Radius =  0.650 angstrom
                   Q00  =  -0.097305

C          x =  0.595111  y = -0.101553  z = -2.752093 angstrom
           Maximum rank =  0   Radius =  0.650 angstrom
                   Q00  =  -0.097348

C          x = -1.077889  y = -1.701553  z = -2.043093 angstrom
           Maximum rank =  0   Radius =  0.650 angstrom
                   Q00  =  -0.076276

C          x =  0.123111  y = -1.415553  z = -2.693093 angstrom
           Maximum rank =  0   Radius =  0.650 angstrom
                   Q00  =  -0.092932

H          x = -1.897889  y =  1.425447  z = -1.046093 angstrom
           Maximum rank =  0   Radius =  0.325 angstrom
                   Q00  =   0.055111

H          x =  0.188111  y =  1.938447  z = -2.208093 angstrom
           Maximum rank =  0   Radius =  0.325 angstrom
                   Q00  =   0.055704

H          x = -2.753889  y = -0.878553  z = -0.969093 angstrom
           Maximum rank =  0   Radius =  0.325 angstrom
                   Q00  =   0.058315

H          x = -1.436889  y = -2.717553  z = -1.977093 angstrom
           Maximum rank =  0   Radius =  0.325 angstrom
                   Q00  =   0.066680

H          x =  1.931111  y =  1.260447  z = -3.678093 angstrom
           Maximum rank =  0   Radius =  0.325 angstrom
                   Q00  =   0.095424

H          x =  1.999111  y = -0.363553  z = -4.328093 angstrom
           Maximum rank =  0   Radius =  0.325 angstrom
                   Q00  =   0.098277

H          x =  0.692111  y = -2.216553  z = -3.143093 angstrom
           Maximum rank =  0   Radius =  0.325 angstrom
                   Q00  =   0.058149

H          x =  2.777901  y = -0.013373  z = -2.758123 angstrom
           Maximum rank =  0   Radius =  0.325 angstrom
                   Q00  =   0.109041

C          x = -0.201889  y = -1.793553  z =  2.143907 angstrom
           Maximum rank =  0   Radius =  0.650 angstrom
                   Q00  =  -0.189836

C          x = -0.588889  y =  0.761447  z =  1.986907 angstrom
           Maximum rank =  0   Radius =  0.650 angstrom
                   Q00  =   0.005551

C          x =  0.077111  y = -0.340553  z =  2.417907 angstrom
           Maximum rank =  0   Radius =  0.650 angstrom
                   Q00  =   0.223441

C          x =  1.070111  y =  1.428447  z =  3.264907 angstrom
           Maximum rank =  0   Radius =  0.650 angstrom
                   Q00  =   0.465962

N          x =  0.049111  y =  1.855447  z =  2.530907 angstrom
           Maximum rank =  0   Radius =  0.650 angstrom
                   Q00  =  -0.479039

N          x =  1.106111  y =  0.105447  z =  3.219907 angstrom
           Maximum rank =  0   Radius =  0.650 angstrom
                   Q00  =  -0.770410

H          x = -1.475889  y =  0.759447  z =  1.364907 angstrom
           Maximum rank =  0   Radius =  0.325 angstrom
                   Q00  =   0.100448

H          x = -0.326889  y =  2.793447  z =  2.589907 angstrom
           Maximum rank =  0   Radius =  0.325 angstrom
                   Q00  =   0.213247

H          x = -1.148889  y = -1.845553  z =  1.610907 angstrom
           Maximum rank =  0   Radius =  0.325 angstrom
                   Q00  =   0.092316

H          x = -0.310889  y = -2.322553  z =  3.087907 angstrom
           Maximum rank =  0   Radius =  0.325 angstrom
                   Q00  =   0.106387

H          x =  1.718111  y =  2.042447  z =  3.874907 angstrom
           Maximum rank =  0   Radius =  0.325 angstrom
                   Q00  =   0.121263

H          x =  0.565461  y = -2.292443  z =  1.533757 angstrom
           Maximum rank =  0   Radius =  0.325 angstrom
                   Q00  =   0.110989

Total multipoles referred to origin at
           x =   0.000000,  y =    0.000000,  z =    0.000000 angstrom
                   Q00  =  -0.000000

Finished at 14:23:24 on 28 Apr 2020

  DMA results are available in the Python driver through the
	  variable('DMA DISTRIBUTED MULTIPOLES')
  and
	  variable('DMA TOTAL MULTIPOLES')
  commands.

    Psi4 stopped on: Tuesday, 28 April 2020 02:23PM
    Psi4 wall time for execution: 0:06:34.04

*** Psi4 exiting successfully. Buy a developer a beer!
