                               Psi4 1.3.2 release

  ==> Input File <==

--------------------------------------------------------------------------
import numpy as np
set {scf_type pk
basis cc-pvdz
d_convergence 10
gdma_switch   0
gdma_limit    0
gdma_origin   [ 0.0,  0.0,  0.0 ]
}
molecule test {
    units Angstrom
    0 1
    --
    0 1
    C                1.964354774080593    -1.587738819716783    -2.652247852965254
    C                0.929354774080593    -1.200738819716783    -1.611247852965254
    O                0.044354774080593    -0.361738819716783    -1.870247852965254
    O                0.981354774080593    -1.779738819716783    -0.495247852965254
    H                1.822354774080593    -2.641738819716784    -2.899247852965254
    H                2.968354774080594    -1.501738819716784    -2.231247852965254
    H                1.905114774080593    -1.022826819716784    -3.594247852965254
    C               -1.148645225919407     2.504261180283216     0.118752147034746
    C               -0.679645225919407     0.602261180283217     1.606752147034746
    N               -0.692645225919407     1.133261180283217     0.389752147034746
    N               -0.239645225919407    -0.618738819716783     1.805752147034746
    N               -1.139645225919407     1.302261180283217     2.628752147034746
    H               -0.374645225919407     0.557261180283216    -0.389247852965254
    H               -2.022645225919407     2.757261180283217     0.720752147034746
    H               -1.451645225919407     2.577261180283217    -0.928247852965254
    H                0.189354774080593    -1.091738819716783     1.007752147034746
    H               -0.085645225919407    -0.956738819716784     2.737752147034746
    H               -1.604645225919407     2.174261180283217     2.457752147034746
    H               -1.180645225919407     0.878261180283217     3.541752147034746
    H               -0.341625225919407     3.227349480283216     0.308132147034746

}
e, wfn = energy('scf', return_wfn=True)
gdma(wfn)
dmavals = variable('DMA DISTRIBUTED MULTIPOLES')
charges = np.array(dmavals)
print(charges)
np.save('SSI-036GLU-039ARG-1-dimer.npy', np.array(charges))--------------------------------------------------------------------------

*** tstart() called on ds3
*** at Sun Apr 26 22:20:55 2020

   => Loading Basis Set <=

    Name: CC-PVDZ
    Role: ORBITAL
    Keyword: BASIS
    atoms 1-2, 8-9   entry C          line   138 file /theoryfs2/ds/metcalf/miniconda2/envs/tf2gpu/share/psi4/basis/cc-pvdz.gbs
    atoms 3-4        entry O          line   198 file /theoryfs2/ds/metcalf/miniconda2/envs/tf2gpu/share/psi4/basis/cc-pvdz.gbs
    atoms 5-7, 13-20 entry H          line    22 file /theoryfs2/ds/metcalf/miniconda2/envs/tf2gpu/share/psi4/basis/cc-pvdz.gbs
    atoms 10-12      entry N          line   168 file /theoryfs2/ds/metcalf/miniconda2/envs/tf2gpu/share/psi4/basis/cc-pvdz.gbs

         ---------------------------------------------------------
                                   SCF
               by Justin Turney, Rob Parrish, Andy Simmonett
                          and Daniel G. A. Smith
                              RHF Reference
                        1 Threads,    500 MiB Core
         ---------------------------------------------------------

  ==> Geometry <==

    Molecular point group: c1
    Full point group: C1

    Geometry (in Angstrom), charge = 0, multiplicity = 1:

       Center              X                  Y                   Z               Mass
    ------------   -----------------  -----------------  -----------------  -----------------
         C            1.964354774081    -1.587738819717    -2.652247852965    12.000000000000
         C            0.929354774081    -1.200738819717    -1.611247852965    12.000000000000
         O            0.044354774081    -0.361738819717    -1.870247852965    15.994914619570
         O            0.981354774081    -1.779738819717    -0.495247852965    15.994914619570
         H            1.822354774081    -2.641738819717    -2.899247852965     1.007825032230
         H            2.968354774081    -1.501738819717    -2.231247852965     1.007825032230
         H            1.905114774081    -1.022826819717    -3.594247852965     1.007825032230
         C           -1.148645225919     2.504261180283     0.118752147035    12.000000000000
         C           -0.679645225919     0.602261180283     1.606752147035    12.000000000000
         N           -0.692645225919     1.133261180283     0.389752147035    14.003074004430
         N           -0.239645225919    -0.618738819717     1.805752147035    14.003074004430
         N           -1.139645225919     1.302261180283     2.628752147035    14.003074004430
         H           -0.374645225919     0.557261180283    -0.389247852965     1.007825032230
         H           -2.022645225919     2.757261180283     0.720752147035     1.007825032230
         H           -1.451645225919     2.577261180283    -0.928247852965     1.007825032230
         H            0.189354774081    -1.091738819717     1.007752147035     1.007825032230
         H           -0.085645225919    -0.956738819717     2.737752147035     1.007825032230
         H           -1.604645225919     2.174261180283     2.457752147035     1.007825032230
         H           -1.180645225919     0.878261180283     3.541752147035     1.007825032230
         H           -0.341625225919     3.227349480283     0.308132147035     1.007825032230

  Running in c1 symmetry.

  Rotational constants: A =      0.09703  B =      0.02553  C =      0.02079 [cm^-1]
  Rotational constants: A =   2908.95434  B =    765.51205  C =    623.21188 [MHz]
  Nuclear repulsion =  467.446167168121576

  Charge       = 0
  Multiplicity = 1
  Electrons    = 72
  Nalpha       = 36
  Nbeta        = 36

  ==> Algorithm <==

  SCF Algorithm Type is PK.
  DIIS enabled.
  MOM disabled.
  Fractional occupation disabled.
  Guess Type is SAD.
  Energy threshold   = 1.00e-06
  Density threshold  = 1.00e-10
  Integral threshold = 0.00e+00

  ==> Primary Basis <==

  Basis Set: CC-PVDZ
    Blend: CC-PVDZ
    Number of shells: 87
    Number of basis function: 181
    Number of Cartesian functions: 190
    Spherical Harmonics?: true
    Max angular momentum: 2

  ==> Pre-Iterations <==

   -------------------------------------------------------
    Irrep   Nso     Nmo     Nalpha   Nbeta   Ndocc  Nsocc
   -------------------------------------------------------
     A        181     181       0       0       0       0
   -------------------------------------------------------
    Total     181     181      36      36      36       0
   -------------------------------------------------------

  ==> Integral Setup <==

  Using integral reordering PK algorithm.
  Sizing the integral batches needed.
  Building batch lookup table.
   Calculation information:
      Number of atoms:                  20
      Number of AO shells:              87
      Number of primitives:            253
      Number of atomic orbitals:       190
      Number of basis functions:       181

      Integral cutoff                 1.00e-12
      Number of threads:                 1

	Batch   1 pq = [       0,    9405] index = [             0,44231715] size =     44231715
	Batch   2 pq = [    9405,   13301] index = [      44231715,88464951] size =     44233236
	Batch   3 pq = [   13301,   16471] index = [      88464951,135655156] size =     47190205
  Task number: 13
  Buffer size: 11059200
  Buffer per thread: 2
  We computed 6009513 shell quartets total.
  Whereas there are 7328706 unique shell quartets.

  ==> DiskJK: Disk-Based J/K Matrices <==

    J tasked:                  Yes
    K tasked:                  Yes
    wK tasked:                  No
    Memory [MiB]:              375
    Schwarz Cutoff:          1E-12

    OpenMP threads:              1

  Minimum eigenvalue in the overlap matrix is 3.7417342095E-03.
  Using Symmetric Orthogonalization.

  SCF Guess: Superposition of Atomic Densities via on-the-fly atomic UHF.

  ==> Iterations <==

                        Total Energy        Delta E     RMS |[F,P]|

   @RHF iter SAD:  -469.78163431797833   -4.69782e+02   0.00000e+00
   @RHF iter   1:  -470.73194186821956   -9.50308e-01   4.17361e-03 DIIS
   @RHF iter   2:  -470.95109310404405   -2.19151e-01   2.14380e-03 DIIS
   @RHF iter   3:  -471.00598180565720   -5.48887e-02   3.89403e-04 DIIS
   @RHF iter   4:  -471.00911077180268   -3.12897e-03   1.28854e-04 DIIS
   @RHF iter   5:  -471.00945927187081   -3.48500e-04   2.31578e-05 DIIS
   @RHF iter   6:  -471.00947583642454   -1.65646e-05   7.15031e-06 DIIS
   @RHF iter   7:  -471.00947713179693   -1.29537e-06   1.92793e-06 DIIS
   @RHF iter   8:  -471.00947727677016   -1.44973e-07   6.03591e-07 DIIS
   @RHF iter   9:  -471.00947728905999   -1.22898e-08   2.11352e-07 DIIS
   @RHF iter  10:  -471.00947729022641   -1.16643e-09   7.88455e-08 DIIS
   @RHF iter  11:  -471.00947729050085   -2.74440e-10   3.28134e-08 DIIS
   @RHF iter  12:  -471.00947729054860   -4.77485e-11   1.22602e-08 DIIS
   @RHF iter  13:  -471.00947729055440   -5.79803e-12   4.79079e-09 DIIS
   @RHF iter  14:  -471.00947729055514   -7.38964e-13   1.14663e-09 DIIS
   @RHF iter  15:  -471.00947729055650   -1.36424e-12   4.36506e-10 DIIS
   @RHF iter  16:  -471.00947729055605    4.54747e-13   1.46028e-10 DIIS
   @RHF iter  17:  -471.00947729055781   -1.76215e-12   6.46309e-11 DIIS
  Energy and wave function converged.

  ==> Post-Iterations <==

    Orbital Energies [Eh]
    ---------------------

    Doubly Occupied:

       1A    -20.432478     2A    -20.427741     3A    -15.642653
       4A    -15.604067     5A    -15.604007     6A    -11.421353
       7A    -11.302466     8A    -11.279157     9A    -11.177643
      10A     -1.383119    11A     -1.322097    12A     -1.236891
      13A     -1.228378    14A     -1.203765    15A     -0.988289
      16A     -0.929620    17A     -0.876939    18A     -0.818449
      19A     -0.779643    20A     -0.703929    21A     -0.693637
      22A     -0.666502    23A     -0.649655    24A     -0.631775
      25A     -0.598428    26A     -0.579771    27A     -0.565280
      28A     -0.552808    29A     -0.543944    30A     -0.487225
      31A     -0.464869    32A     -0.455872    33A     -0.415355
      34A     -0.352089    35A     -0.341506    36A     -0.335177

    Virtual:

      37A      0.128539    38A      0.158793    39A      0.183204
      40A      0.208668    41A      0.216972    42A      0.242868
      43A      0.247686    44A      0.264236    45A      0.270087
      46A      0.303117    47A      0.306679    48A      0.343744
      49A      0.364874    50A      0.414311    51A      0.435446
      52A      0.448828    53A      0.489287    54A      0.503914
      55A      0.580309    56A      0.593432    57A      0.602994
      58A      0.614002    59A      0.665002    60A      0.678576
      61A      0.682086    62A      0.692218    63A      0.698812
      64A      0.720935    65A      0.735868    66A      0.771126
      67A      0.807953    68A      0.817542    69A      0.831308
      70A      0.838399    71A      0.844893    72A      0.848665
      73A      0.898585    74A      0.905664    75A      0.908854
      76A      0.914221    77A      0.922915    78A      0.945911
      79A      0.958472    80A      0.976768    81A      0.983794
      82A      0.998814    83A      1.048984    84A      1.074403
      85A      1.088620    86A      1.107077    87A      1.123784
      88A      1.149254    89A      1.192238    90A      1.208523
      91A      1.227860    92A      1.270269    93A      1.292064
      94A      1.311835    95A      1.345990    96A      1.354782
      97A      1.375564    98A      1.398811    99A      1.403758
     100A      1.432555   101A      1.452139   102A      1.485558
     103A      1.509509   104A      1.553397   105A      1.560278
     106A      1.575035   107A      1.607378   108A      1.641280
     109A      1.673735   110A      1.693494   111A      1.706974
     112A      1.717182   113A      1.728958   114A      1.755168
     115A      1.809711   116A      1.825617   117A      1.861340
     118A      1.879897   119A      1.891207   120A      1.909077
     121A      1.918778   122A      1.930545   123A      1.938802
     124A      1.955989   125A      1.968730   126A      1.984763
     127A      1.996111   128A      1.998277   129A      2.034539
     130A      2.073158   131A      2.088541   132A      2.135281
     133A      2.153118   134A      2.160747   135A      2.176240
     136A      2.239374   137A      2.269649   138A      2.288775
     139A      2.295692   140A      2.330778   141A      2.337851
     142A      2.425131   143A      2.438202   144A      2.466093
     145A      2.478812   146A      2.495385   147A      2.512547
     148A      2.519996   149A      2.558634   150A      2.576426
     151A      2.628784   152A      2.659120   153A      2.688123
     154A      2.725553   155A      2.740475   156A      2.758847
     157A      2.790419   158A      2.805446   159A      2.850905
     160A      2.872414   161A      2.881784   162A      2.901398
     163A      2.955145   164A      2.970433   165A      2.986506
     166A      3.059173   167A      3.091009   168A      3.132064
     169A      3.156299   170A      3.189272   171A      3.250900
     172A      3.314358   173A      3.394878   174A      3.488418
     175A      3.618880   176A      3.655630   177A      3.758201
     178A      3.818312   179A      3.918824   180A      3.931629
     181A      4.062210

    Final Occupation by Irrep:
              A
    DOCC [    36 ]

  @RHF Final Energy:  -471.00947729055781

   => Energetics <=

    Nuclear Repulsion Energy =            467.4461671681215762
    One-Electron Energy =               -1571.5181365196215211
    Two-Electron Energy =                 633.0624920609421906
    Total Energy =                       -471.0094772905578111

Computation Completed

Properties will be evaluated at   0.000000,   0.000000,   0.000000 [a0]

Properties computed using the SCF density matrix

  Nuclear Dipole Moment: [e a0]
     X:    -0.1543      Y:     4.6314      Z:     0.6605

  Electronic Dipole Moment: [e a0]
     X:    -1.1743      Y:    -2.2185      Z:     2.7632

  Dipole Moment: [e a0]
     X:    -1.3286      Y:     2.4129      Z:     3.4237     Total:     4.3942

  Dipole Moment: [D]
     X:    -3.3770      Y:     6.1329      Z:     8.7022     Total:    11.1689

*** tstop() called on ds3 at Sun Apr 26 22:21:58 2020
Module time:
	user time   =      44.40 seconds =       0.74 minutes
	system time =      20.86 seconds =       0.35 minutes
	total time  =         63 seconds =       1.05 minutes
Total time:
	user time   =      44.40 seconds =       0.74 minutes
	system time =      20.86 seconds =       0.35 minutes
	total time  =         63 seconds =       1.05 minutes
                                     G D M A

                                 by Anthony Stone

                           version 2.2.06, 22 June 2011

               Distributed Multipoles from Gaussian wavefunctions

Starting at 22:21:58 on 26 Apr 2020

Using SCF density matrix from file ./SSI/SSI-036GLU-039ARG-1-dimer.test.3265.fchk

                         Distributed Multipole Analysis

Standard DMA

Positions and radii in angstrom
Multipole moments in atomic units, ea_0^k for rank k

C          x =  1.964355  y = -1.587739  z = -2.652248 angstrom
           Maximum rank =  0   Radius =  0.650 angstrom
                   Q00  =  -0.260291

C          x =  0.929355  y = -1.200739  z = -1.611248 angstrom
           Maximum rank =  0   Radius =  0.650 angstrom
                   Q00  =   0.883279

O          x =  0.044355  y = -0.361739  z = -1.870248 angstrom
           Maximum rank =  0   Radius =  0.650 angstrom
                   Q00  =  -0.921827

O          x =  0.981355  y = -1.779739  z = -0.495248 angstrom
           Maximum rank =  0   Radius =  0.650 angstrom
                   Q00  =  -0.944136

H          x =  1.822355  y = -2.641739  z = -2.899248 angstrom
           Maximum rank =  0   Radius =  0.325 angstrom
                   Q00  =   0.106935

H          x =  2.968355  y = -1.501739  z = -2.231248 angstrom
           Maximum rank =  0   Radius =  0.325 angstrom
                   Q00  =   0.092887

H          x =  1.905115  y = -1.022827  z = -3.594248 angstrom
           Maximum rank =  0   Radius =  0.325 angstrom
                   Q00  =   0.080302

C          x = -1.148645  y =  2.504261  z =  0.118752 angstrom
           Maximum rank =  0   Radius =  0.650 angstrom
                   Q00  =  -0.098898

C          x = -0.679645  y =  0.602261  z =  1.606752 angstrom
           Maximum rank =  0   Radius =  0.650 angstrom
                   Q00  =   1.055512

N          x = -0.692645  y =  1.133261  z =  0.389752 angstrom
           Maximum rank =  0   Radius =  0.650 angstrom
                   Q00  =  -0.527177

N          x = -0.239645  y = -0.618739  z =  1.805752 angstrom
           Maximum rank =  0   Radius =  0.650 angstrom
                   Q00  =  -0.598845

N          x = -1.139645  y =  1.302261  z =  2.628752 angstrom
           Maximum rank =  0   Radius =  0.650 angstrom
                   Q00  =  -0.577585

H          x = -0.374645  y =  0.557261  z = -0.389248 angstrom
           Maximum rank =  0   Radius =  0.325 angstrom
                   Q00  =   0.341056

H          x = -2.022645  y =  2.757261  z =  0.720752 angstrom
           Maximum rank =  0   Radius =  0.325 angstrom
                   Q00  =   0.069295

H          x = -1.451645  y =  2.577261  z = -0.928248 angstrom
           Maximum rank =  0   Radius =  0.325 angstrom
                   Q00  =   0.154322

H          x =  0.189355  y = -1.091739  z =  1.007752 angstrom
           Maximum rank =  0   Radius =  0.325 angstrom
                   Q00  =   0.350814

H          x = -0.085645  y = -0.956739  z =  2.737752 angstrom
           Maximum rank =  0   Radius =  0.325 angstrom
                   Q00  =   0.220975

H          x = -1.604645  y =  2.174261  z =  2.457752 angstrom
           Maximum rank =  0   Radius =  0.325 angstrom
                   Q00  =   0.240461

H          x = -1.180645  y =  0.878261  z =  3.541752 angstrom
           Maximum rank =  0   Radius =  0.325 angstrom
                   Q00  =   0.233714

H          x = -0.341625  y =  3.227349  z =  0.308132 angstrom
           Maximum rank =  0   Radius =  0.325 angstrom
                   Q00  =   0.099207

Total multipoles referred to origin at
           x =   0.000000,  y =    0.000000,  z =    0.000000 angstrom
                   Q00  =  -0.000000

Finished at 22:21:58 on 26 Apr 2020

  DMA results are available in the Python driver through the
	  variable('DMA DISTRIBUTED MULTIPOLES')
  and
	  variable('DMA TOTAL MULTIPOLES')
  commands.

    Psi4 stopped on: Sunday, 26 April 2020 10:21PM
    Psi4 wall time for execution: 0:01:03.22

*** Psi4 exiting successfully. Buy a developer a beer!
