                               Psi4 1.3.2 release

  ==> Input File <==

--------------------------------------------------------------------------
import numpy as np
set {scf_type pk
basis cc-pvdz
d_convergence 10
gdma_switch   0
gdma_limit    0
gdma_origin   [ 0.0,  0.0,  0.0 ]
}
molecule test {
    units Angstrom
    0 1
    --
    0 1
    C                0.599865231955728    -1.564744817343183     0.645068650460869
    C                1.583865231955728    -2.232744817343183    -0.292931349539131
    H                0.444865231955728    -2.171744817343183     1.532068650460869
    H                0.989865231955728    -0.597744817343183     0.962068650460869
    H               -0.357134768044272    -1.425744817343183     0.149068650460869
    H                2.357865231955728    -2.706744817343183     0.309068650460869
    H                1.055695231955728    -3.002424817343183    -0.874849749539131
    H                2.089565231955728    -1.500124817343183    -0.939104049539131
    C               -1.402134768044272     1.299255182656817     0.165068650460869
    C               -0.787134768044272     2.504255182656816    -0.514931349539131
    H               -2.471134768044272     1.409255182656817     0.275068650460869
    H               -1.232134768044272     0.432255182656817    -0.467931349539131
    H               -0.946134768044272     1.143255182656817     1.143068650460868
    H               -1.199134768044272     2.578255182656817    -1.522931349539131
    H                0.282865231955728     2.313255182656817    -0.603931349539131
    H               -0.949094768044272     3.456565182656817     0.011252650460869

}
e, wfn = energy('scf', return_wfn=True)
gdma(wfn)
dmavals = variable('DMA DISTRIBUTED MULTIPOLES')
charges = np.array(dmavals)
print(charges)
np.save('SSI-162LEU-208ILE-1-dimer.npy', np.array(charges))--------------------------------------------------------------------------

*** tstart() called on ds3
*** at Mon Apr 27 06:49:51 2020

   => Loading Basis Set <=

    Name: CC-PVDZ
    Role: ORBITAL
    Keyword: BASIS
    atoms 1-2, 9-10  entry C          line   138 file /theoryfs2/ds/metcalf/miniconda2/envs/tf2gpu/share/psi4/basis/cc-pvdz.gbs
    atoms 3-8, 11-16 entry H          line    22 file /theoryfs2/ds/metcalf/miniconda2/envs/tf2gpu/share/psi4/basis/cc-pvdz.gbs

         ---------------------------------------------------------
                                   SCF
               by Justin Turney, Rob Parrish, Andy Simmonett
                          and Daniel G. A. Smith
                              RHF Reference
                        1 Threads,    500 MiB Core
         ---------------------------------------------------------

  ==> Geometry <==

    Molecular point group: c1
    Full point group: C1

    Geometry (in Angstrom), charge = 0, multiplicity = 1:

       Center              X                  Y                   Z               Mass
    ------------   -----------------  -----------------  -----------------  -----------------
         C            0.599865231956    -1.564744817343     0.645068650461    12.000000000000
         C            1.583865231956    -2.232744817343    -0.292931349539    12.000000000000
         H            0.444865231956    -2.171744817343     1.532068650461     1.007825032230
         H            0.989865231956    -0.597744817343     0.962068650461     1.007825032230
         H           -0.357134768044    -1.425744817343     0.149068650461     1.007825032230
         H            2.357865231956    -2.706744817343     0.309068650461     1.007825032230
         H            1.055695231956    -3.002424817343    -0.874849749539     1.007825032230
         H            2.089565231956    -1.500124817343    -0.939104049539     1.007825032230
         C           -1.402134768044     1.299255182657     0.165068650461    12.000000000000
         C           -0.787134768044     2.504255182657    -0.514931349539    12.000000000000
         H           -2.471134768044     1.409255182657     0.275068650461     1.007825032230
         H           -1.232134768044     0.432255182657    -0.467931349539     1.007825032230
         H           -0.946134768044     1.143255182657     1.143068650461     1.007825032230
         H           -1.199134768044     2.578255182657    -1.522931349539     1.007825032230
         H            0.282865231956     2.313255182657    -0.603931349539     1.007825032230
         H           -0.949094768044     3.456565182657     0.011252650461     1.007825032230

  Running in c1 symmetry.

  Rotational constants: A =      0.46209  B =      0.05301  C =      0.04992 [cm^-1]
  Rotational constants: A =  13853.02575  B =   1589.28858  C =   1496.42802 [MHz]
  Nuclear repulsion =  124.085656022775225

  Charge       = 0
  Multiplicity = 1
  Electrons    = 36
  Nalpha       = 18
  Nbeta        = 18

  ==> Algorithm <==

  SCF Algorithm Type is PK.
  DIIS enabled.
  MOM disabled.
  Fractional occupation disabled.
  Guess Type is SAD.
  Energy threshold   = 1.00e-06
  Density threshold  = 1.00e-10
  Integral threshold = 0.00e+00

  ==> Primary Basis <==

  Basis Set: CC-PVDZ
    Blend: CC-PVDZ
    Number of shells: 60
    Number of basis function: 116
    Number of Cartesian functions: 120
    Spherical Harmonics?: true
    Max angular momentum: 2

  ==> Pre-Iterations <==

   -------------------------------------------------------
    Irrep   Nso     Nmo     Nalpha   Nbeta   Ndocc  Nsocc
   -------------------------------------------------------
     A        116     116       0       0       0       0
   -------------------------------------------------------
    Total     116     116      18      18      18       0
   -------------------------------------------------------

  ==> Integral Setup <==

  Using integral reordering PK algorithm.
  Sizing the integral batches needed.
  Building batch lookup table.
   Calculation information:
      Number of atoms:                  16
      Number of AO shells:              60
      Number of primitives:            148
      Number of atomic orbitals:       120
      Number of basis functions:       116

      Integral cutoff                 1.00e-12
      Number of threads:                 1

	Batch   1 pq = [       0,    6786] index = [             0,23028291] size =     23028291
  Task number: 3
  Buffer size: 11059200
  Buffer per thread: 2
  We computed 1474226 shell quartets total.
  Whereas there are 1675365 unique shell quartets.

  ==> DiskJK: Disk-Based J/K Matrices <==

    J tasked:                  Yes
    K tasked:                  Yes
    wK tasked:                  No
    Memory [MiB]:              375
    Schwarz Cutoff:          1E-12

    OpenMP threads:              1

  Minimum eigenvalue in the overlap matrix is 6.8007043046E-03.
  Using Symmetric Orthogonalization.

  SCF Guess: Superposition of Atomic Densities via on-the-fly atomic UHF.

  ==> Iterations <==

                        Total Energy        Delta E     RMS |[F,P]|

   @RHF iter SAD:  -157.43102589677318   -1.57431e+02   0.00000e+00
   @RHF iter   1:  -158.29922934251488   -8.68203e-01   4.27018e-03 DIIS
   @RHF iter   2:  -158.43543990529434   -1.36211e-01   1.82347e-03 DIIS
   @RHF iter   3:  -158.45948765300395   -2.40477e-02   3.53219e-04 DIIS
   @RHF iter   4:  -158.46134578600851   -1.85813e-03   3.94595e-05 DIIS
   @RHF iter   5:  -158.46137005371205   -2.42677e-05   7.10120e-06 DIIS
   @RHF iter   6:  -158.46137076329754   -7.09585e-07   1.42100e-06 DIIS
   @RHF iter   7:  -158.46137078218317   -1.88856e-08   3.24926e-07 DIIS
   @RHF iter   8:  -158.46137078326541   -1.08224e-09   4.26191e-08 DIIS
   @RHF iter   9:  -158.46137078329545   -3.00417e-11   8.51049e-09 DIIS
   @RHF iter  10:  -158.46137078329710   -1.64846e-12   2.38466e-09 DIIS
   @RHF iter  11:  -158.46137078329764   -5.40012e-13   6.75084e-10 DIIS
   @RHF iter  12:  -158.46137078329690    7.38964e-13   1.67726e-10 DIIS
   @RHF iter  13:  -158.46137078329764   -7.38964e-13   2.69082e-11 DIIS
  Energy and wave function converged.

  ==> Post-Iterations <==

    Orbital Energies [Eh]
    ---------------------

    Doubly Occupied:

       1A    -11.217398     2A    -11.216523     3A    -11.212967
       4A    -11.212677     5A     -1.023766     6A     -1.020156
       7A     -0.839901     8A     -0.831771     9A     -0.605469
      10A     -0.604159    11A     -0.598829    12A     -0.592454
      13A     -0.509318    14A     -0.499604    15A     -0.489364
      16A     -0.486853    17A     -0.481059    18A     -0.472145

    Virtual:

      19A      0.170765    20A      0.201208    21A      0.225923
      22A      0.229408    23A      0.243965    24A      0.256140
      25A      0.261941    26A      0.278549    27A      0.283982
      28A      0.298581    29A      0.312383    30A      0.357140
      31A      0.404457    32A      0.411668    33A      0.574441
      34A      0.590409    35A      0.598697    36A      0.606204
      37A      0.622146    38A      0.627762    39A      0.657089
      40A      0.687307    41A      0.695997    42A      0.828878
      43A      0.845780    44A      0.875333    45A      0.881102
      46A      0.884732    47A      0.894032    48A      0.899673
      49A      0.900464    50A      0.909656    51A      0.920285
      52A      0.925747    53A      0.940801    54A      0.964233
      55A      0.978568    56A      0.985153    57A      1.106104
      58A      1.120432    59A      1.131908    60A      1.179101
      61A      1.218882    62A      1.257404    63A      1.458098
      64A      1.487836    65A      1.492448    66A      1.496565
      67A      1.549645    68A      1.624276    69A      1.678512
      70A      1.682587    71A      1.689786    72A      1.732195
      73A      1.852696    74A      1.859116    75A      1.867942
      76A      1.887236    77A      1.906228    78A      1.916860
      79A      1.925830    80A      1.940651    81A      1.946212
      82A      1.950712    83A      1.954440    84A      1.965559
      85A      1.970293    86A      1.982941    87A      1.990889
      88A      2.033107    89A      2.096334    90A      2.124095
      91A      2.152332    92A      2.178860    93A      2.297340
      94A      2.310972    95A      2.319093    96A      2.322449
      97A      2.420451    98A      2.437371    99A      2.471986
     100A      2.485445   101A      2.563901   102A      2.580829
     103A      2.601640   104A      2.613971   105A      2.763665
     106A      2.767318   107A      2.793168   108A      2.801190
     109A      2.839455   110A      2.845247   111A      2.864367
     112A      2.876945   113A      2.936050   114A      2.963510
     115A      2.981104   116A      2.991507

    Final Occupation by Irrep:
              A
    DOCC [    18 ]

  @RHF Final Energy:  -158.46137078329764

   => Energetics <=

    Nuclear Repulsion Energy =            124.0856560227752254
    One-Electron Energy =                -457.2652331952161830
    Two-Electron Energy =                 174.7182063891433472
    Total Energy =                       -158.4613707832976388

Computation Completed

Properties will be evaluated at   0.000000,   0.000000,   0.000000 [a0]

Properties computed using the SCF density matrix

  Nuclear Dipole Moment: [e a0]
     X:     0.0618      Y:    -0.0672      Z:    -0.0254

  Electronic Dipole Moment: [e a0]
     X:    -0.0686      Y:     0.0489      Z:     0.0361

  Dipole Moment: [e a0]
     X:    -0.0067      Y:    -0.0183      Z:     0.0107     Total:     0.0223

  Dipole Moment: [D]
     X:    -0.0171      Y:    -0.0465      Z:     0.0273     Total:     0.0566

*** tstop() called on ds3 at Mon Apr 27 06:50:03 2020
Module time:
	user time   =       9.09 seconds =       0.15 minutes
	system time =       3.30 seconds =       0.06 minutes
	total time  =         12 seconds =       0.20 minutes
Total time:
	user time   =       9.09 seconds =       0.15 minutes
	system time =       3.30 seconds =       0.06 minutes
	total time  =         12 seconds =       0.20 minutes
                                     G D M A

                                 by Anthony Stone

                           version 2.2.06, 22 June 2011

               Distributed Multipoles from Gaussian wavefunctions

Starting at 6:50:3 on 27 Apr 2020

Using SCF density matrix from file ./SSI/SSI-162LEU-208ILE-1-dimer.test.26426.fchk

                         Distributed Multipole Analysis

Standard DMA

Positions and radii in angstrom
Multipole moments in atomic units, ea_0^k for rank k

C          x =  0.599865  y = -1.564745  z =  0.645069 angstrom
           Maximum rank =  0   Radius =  0.650 angstrom
                   Q00  =  -0.227525

C          x =  1.583865  y = -2.232745  z = -0.292931 angstrom
           Maximum rank =  0   Radius =  0.650 angstrom
                   Q00  =  -0.231246

H          x =  0.444865  y = -2.171745  z =  1.532069 angstrom
           Maximum rank =  0   Radius =  0.325 angstrom
                   Q00  =   0.077265

H          x =  0.989865  y = -0.597745  z =  0.962069 angstrom
           Maximum rank =  0   Radius =  0.325 angstrom
                   Q00  =   0.074289

H          x = -0.357135  y = -1.425745  z =  0.149069 angstrom
           Maximum rank =  0   Radius =  0.325 angstrom
                   Q00  =   0.077526

H          x =  2.357865  y = -2.706745  z =  0.309069 angstrom
           Maximum rank =  0   Radius =  0.325 angstrom
                   Q00  =   0.075274

H          x =  1.055695  y = -3.002425  z = -0.874850 angstrom
           Maximum rank =  0   Radius =  0.325 angstrom
                   Q00  =   0.076572

H          x =  2.089565  y = -1.500125  z = -0.939104 angstrom
           Maximum rank =  0   Radius =  0.325 angstrom
                   Q00  =   0.077414

C          x = -1.402135  y =  1.299255  z =  0.165069 angstrom
           Maximum rank =  0   Radius =  0.650 angstrom
                   Q00  =  -0.232774

C          x = -0.787135  y =  2.504255  z = -0.514931 angstrom
           Maximum rank =  0   Radius =  0.650 angstrom
                   Q00  =  -0.228040

H          x = -2.471135  y =  1.409255  z =  0.275069 angstrom
           Maximum rank =  0   Radius =  0.325 angstrom
                   Q00  =   0.077918

H          x = -1.232135  y =  0.432255  z = -0.467931 angstrom
           Maximum rank =  0   Radius =  0.325 angstrom
                   Q00  =   0.076467

H          x = -0.946135  y =  1.143255  z =  1.143069 angstrom
           Maximum rank =  0   Radius =  0.325 angstrom
                   Q00  =   0.077828

H          x = -1.199135  y =  2.578255  z = -1.522931 angstrom
           Maximum rank =  0   Radius =  0.325 angstrom
                   Q00  =   0.075236

H          x =  0.282865  y =  2.313255  z = -0.603931 angstrom
           Maximum rank =  0   Radius =  0.325 angstrom
                   Q00  =   0.073571

H          x = -0.949095  y =  3.456565  z =  0.011253 angstrom
           Maximum rank =  0   Radius =  0.325 angstrom
                   Q00  =   0.080224

Total multipoles referred to origin at
           x =   0.000000,  y =    0.000000,  z =    0.000000 angstrom
                   Q00  =  -0.000000

Finished at 6:50:3 on 27 Apr 2020

  DMA results are available in the Python driver through the
	  variable('DMA DISTRIBUTED MULTIPOLES')
  and
	  variable('DMA TOTAL MULTIPOLES')
  commands.

    Psi4 stopped on: Monday, 27 April 2020 06:50AM
    Psi4 wall time for execution: 0:00:12.17

*** Psi4 exiting successfully. Buy a developer a beer!
