                               Psi4 1.3.2 release

  ==> Input File <==

--------------------------------------------------------------------------
import numpy as np
set {scf_type pk
basis cc-pvdz
d_convergence 10
gdma_switch   0
gdma_limit    0
gdma_origin   [ 0.0,  0.0,  0.0 ]
}
molecule test {
    units Angstrom
    0 1
    --
    0 1
    C                1.435593222629754     1.869551330935827    -0.526365000184911
    C                1.898593222629753     0.895551330935827    -1.641365000184911
    C                0.133593222629754     2.590551330935827    -0.843365000184911
    O               -0.128406777370246     3.695551330935827    -0.376365000184911
    N               -0.706406777370246     1.951551330935827    -1.631365000184911
    H                1.271593222629753     1.281551330935827     0.375634999815089
    H                2.210593222629753     2.596551330935827    -0.292365000184911
    H                1.121593222629754     0.165551330935827    -1.873365000184911
    H                2.734593222629754     0.329551330935827    -1.233365000184911
    H               -1.576406777370246     2.379551330935827    -1.892365000184911
    H               -0.503406777370246     1.012551330935827    -1.940365000184911
    H                2.230923222629753     1.395121330935827    -2.563313000184910
    C               -0.527406777370246     0.596551330935827     2.763634999815090
    C               -1.246406777370247    -0.410448669064173     0.562634999815089
    C               -0.446406777370246    -0.481448669064173     1.704634999815089
    C               -1.158406777370246    -1.384448669064173    -0.431365000184911
    C                0.453593222629753    -1.542448669064173     1.826634999815089
    C               -0.267406777370246    -2.442448669064173    -0.288365000184911
    C                0.542593222629754    -2.521448669064172     0.839634999815089
    O               -0.177406777370246    -3.400448669064172    -1.254365000184911
    H               -1.955406777370246     0.400551330935827     0.451634999815089
    H               -1.791406777370246    -1.335448669064173    -1.306365000184911
    H               -1.137406777370247     1.405551330935827     2.361634999815090
    H                0.473593222629753     0.995551330935827     2.908634999815090
    H                1.108593222629753    -1.595448669064172     2.685634999815090
    H                1.278593222629754    -3.305448669064173     0.910634999815089
    H                0.420593222629754    -4.110448669064173    -0.999365000184911
    H               -0.957067777370246     0.287800330935827     3.728033299815090

}
e, wfn = energy('scf', return_wfn=True)
gdma(wfn)
dmavals = variable('DMA DISTRIBUTED MULTIPOLES')
charges = np.array(dmavals)
print(charges)
np.save('SSI-025GLN-039TYR-1-dimer.npy', np.array(charges))--------------------------------------------------------------------------

*** tstart() called on ds3
*** at Mon Apr 27 08:22:40 2020

   => Loading Basis Set <=

    Name: CC-PVDZ
    Role: ORBITAL
    Keyword: BASIS
    atoms 1-3, 13-19  entry C          line   138 file /theoryfs2/ds/metcalf/miniconda2/envs/tf2gpu/share/psi4/basis/cc-pvdz.gbs
    atoms 4, 20       entry O          line   198 file /theoryfs2/ds/metcalf/miniconda2/envs/tf2gpu/share/psi4/basis/cc-pvdz.gbs
    atoms 5           entry N          line   168 file /theoryfs2/ds/metcalf/miniconda2/envs/tf2gpu/share/psi4/basis/cc-pvdz.gbs
    atoms 6-12, 21-28 entry H          line    22 file /theoryfs2/ds/metcalf/miniconda2/envs/tf2gpu/share/psi4/basis/cc-pvdz.gbs

         ---------------------------------------------------------
                                   SCF
               by Justin Turney, Rob Parrish, Andy Simmonett
                          and Daniel G. A. Smith
                              RHF Reference
                        1 Threads,    500 MiB Core
         ---------------------------------------------------------

  ==> Geometry <==

    Molecular point group: c1
    Full point group: C1

    Geometry (in Angstrom), charge = 0, multiplicity = 1:

       Center              X                  Y                   Z               Mass
    ------------   -----------------  -----------------  -----------------  -----------------
         C            1.435593222630     1.869551330936    -0.526365000185    12.000000000000
         C            1.898593222630     0.895551330936    -1.641365000185    12.000000000000
         C            0.133593222630     2.590551330936    -0.843365000185    12.000000000000
         O           -0.128406777370     3.695551330936    -0.376365000185    15.994914619570
         N           -0.706406777370     1.951551330936    -1.631365000185    14.003074004430
         H            1.271593222630     1.281551330936     0.375634999815     1.007825032230
         H            2.210593222630     2.596551330936    -0.292365000185     1.007825032230
         H            1.121593222630     0.165551330936    -1.873365000185     1.007825032230
         H            2.734593222630     0.329551330936    -1.233365000185     1.007825032230
         H           -1.576406777370     2.379551330936    -1.892365000185     1.007825032230
         H           -0.503406777370     1.012551330936    -1.940365000185     1.007825032230
         H            2.230923222630     1.395121330936    -2.563313000185     1.007825032230
         C           -0.527406777370     0.596551330936     2.763634999815    12.000000000000
         C           -1.246406777370    -0.410448669064     0.562634999815    12.000000000000
         C           -0.446406777370    -0.481448669064     1.704634999815    12.000000000000
         C           -1.158406777370    -1.384448669064    -0.431365000185    12.000000000000
         C            0.453593222630    -1.542448669064     1.826634999815    12.000000000000
         C           -0.267406777370    -2.442448669064    -0.288365000185    12.000000000000
         C            0.542593222630    -2.521448669064     0.839634999815    12.000000000000
         O           -0.177406777370    -3.400448669064    -1.254365000185    15.994914619570
         H           -1.955406777370     0.400551330936     0.451634999815     1.007825032230
         H           -1.791406777370    -1.335448669064    -1.306365000185     1.007825032230
         H           -1.137406777370     1.405551330936     2.361634999815     1.007825032230
         H            0.473593222630     0.995551330936     2.908634999815     1.007825032230
         H            1.108593222630    -1.595448669064     2.685634999815     1.007825032230
         H            1.278593222630    -3.305448669064     0.910634999815     1.007825032230
         H            0.420593222630    -4.110448669064    -0.999365000185     1.007825032230
         H           -0.957067777370     0.287800330936     3.728033299815     1.007825032230

  Running in c1 symmetry.

  Rotational constants: A =      0.03464  B =      0.01654  C =      0.01391 [cm^-1]
  Rotational constants: A =   1038.49123  B =    495.85033  C =    417.11386 [MHz]
  Nuclear repulsion =  789.746530654559024

  Charge       = 0
  Multiplicity = 1
  Electrons    = 98
  Nalpha       = 49
  Nbeta        = 49

  ==> Algorithm <==

  SCF Algorithm Type is PK.
  DIIS enabled.
  MOM disabled.
  Fractional occupation disabled.
  Guess Type is SAD.
  Energy threshold   = 1.00e-06
  Density threshold  = 1.00e-10
  Integral threshold = 0.00e+00

  ==> Primary Basis <==

  Basis Set: CC-PVDZ
    Blend: CC-PVDZ
    Number of shells: 123
    Number of basis function: 257
    Number of Cartesian functions: 270
    Spherical Harmonics?: true
    Max angular momentum: 2

  ==> Pre-Iterations <==

   -------------------------------------------------------
    Irrep   Nso     Nmo     Nalpha   Nbeta   Ndocc  Nsocc
   -------------------------------------------------------
     A        257     257       0       0       0       0
   -------------------------------------------------------
    Total     257     257      49      49      49       0
   -------------------------------------------------------

  ==> Integral Setup <==

  Using integral reordering PK algorithm.
  Sizing the integral batches needed.
  Building batch lookup table.
   Calculation information:
      Number of atoms:                  28
      Number of AO shells:             123
      Number of primitives:            361
      Number of atomic orbitals:       270
      Number of basis functions:       257

      Integral cutoff                 1.00e-12
      Number of threads:                 1

	Batch   1 pq = [       0,    9405] index = [             0,44231715] size =     44231715
	Batch   2 pq = [    9405,   13301] index = [      44231715,88464951] size =     44233236
	Batch   3 pq = [   13301,   16290] index = [      88464951,132690195] size =     44225244
	Batch   4 pq = [   16290,   18810] index = [     132690195,176917455] size =     44227260
	Batch   5 pq = [   18810,   21030] index = [     176917455,221140965] size =     44223510
	Batch   6 pq = [   21030,   23037] index = [     221140965,265363203] size =     44222238
	Batch   7 pq = [   23037,   24883] index = [     265363203,309594286] size =     44231083
	Batch   8 pq = [   24883,   26601] index = [     309594286,353819901] size =     44225615
	Batch   9 pq = [   26601,   28214] index = [     353819901,398029005] size =     44209104
	Batch  10 pq = [   28214,   29740] index = [     398029005,442248670] size =     44219665
	Batch  11 pq = [   29740,   31191] index = [     442248670,486454836] size =     44206166
	Batch  12 pq = [   31191,   32578] index = [     486454836,530679331] size =     44224495
	Batch  13 pq = [   32578,   33153] index = [     530679331,549577281] size =     18897950
  Task number: 50
  Buffer size: 11059200
  Buffer per thread: 2
  We computed 33120085 shell quartets total.
  Whereas there are 29081751 unique shell quartets.
    13.89 percent of shell quartets recomputed by reordering.

  ==> DiskJK: Disk-Based J/K Matrices <==

    J tasked:                  Yes
    K tasked:                  Yes
    wK tasked:                  No
    Memory [MiB]:              375
    Schwarz Cutoff:          1E-12

    OpenMP threads:              1

  Minimum eigenvalue in the overlap matrix is 3.2295940678E-04.
  Using Symmetric Orthogonalization.

  SCF Guess: Superposition of Atomic Densities via on-the-fly atomic UHF.

  ==> Iterations <==

                        Total Energy        Delta E     RMS |[F,P]|

   @RHF iter SAD:  -590.33400564388512   -5.90334e+02   0.00000e+00
   @RHF iter   1:  -591.30575041533234   -9.71745e-01   2.98728e-03 DIIS
   @RHF iter   2:  -591.58246312751521   -2.76713e-01   1.51252e-03 DIIS
   @RHF iter   3:  -591.64269883374118   -6.02357e-02   3.52778e-04 DIIS
   @RHF iter   4:  -591.64758808941986   -4.88926e-03   1.48178e-04 DIIS
   @RHF iter   5:  -591.64841051253438   -8.22423e-04   2.30348e-05 DIIS
   @RHF iter   6:  -591.64845330213143   -4.27896e-05   1.05218e-05 DIIS
   @RHF iter   7:  -591.64846037724703   -7.07512e-06   4.11341e-06 DIIS
   @RHF iter   8:  -591.64846193956828   -1.56232e-06   1.68786e-06 DIIS
   @RHF iter   9:  -591.64846217802301   -2.38455e-07   6.16828e-07 DIIS
   @RHF iter  10:  -591.64846221380412   -3.57811e-08   2.16789e-07 DIIS
   @RHF iter  11:  -591.64846221862331   -4.81919e-09   7.76052e-08 DIIS
   @RHF iter  12:  -591.64846221937273   -7.49424e-10   3.98704e-08 DIIS
   @RHF iter  13:  -591.64846221957453   -2.01794e-10   1.76450e-08 DIIS
   @RHF iter  14:  -591.64846221963057   -5.60476e-11   7.43921e-09 DIIS
   @RHF iter  15:  -591.64846221964308   -1.25056e-11   2.64028e-09 DIIS
   @RHF iter  16:  -591.64846221963455    8.52651e-12   9.02234e-10 DIIS
   @RHF iter  17:  -591.64846221964387   -9.32232e-12   3.05007e-10 DIIS
   @RHF iter  18:  -591.64846221963967    4.20641e-12   9.08285e-11 DIIS
  Energy and wave function converged.

  ==> Post-Iterations <==

    Orbital Energies [Eh]
    ---------------------

    Doubly Occupied:

       1A    -20.593100     2A    -20.494388     3A    -15.578901
       4A    -11.336086     5A    -11.310347     6A    -11.249366
       7A    -11.247968     8A    -11.242821     9A    -11.242133
      10A    -11.240905    11A    -11.234455    12A    -11.233690
      13A    -11.230320    14A     -1.409871    15A     -1.360611
      16A     -1.213022    17A     -1.160257    18A     -1.045014
      19A     -1.041630    20A     -1.028179    21A     -0.932417
      22A     -0.889491    23A     -0.854544    24A     -0.811510
      25A     -0.788441    26A     -0.741829    27A     -0.729655
      28A     -0.677128    29A     -0.650293    30A     -0.644293
      31A     -0.620566    32A     -0.616850    33A     -0.598292
      34A     -0.594059    35A     -0.580355    36A     -0.576246
      37A     -0.572595    38A     -0.556005    39A     -0.531075
      40A     -0.530568    41A     -0.510843    42A     -0.504389
      43A     -0.495044    44A     -0.490610    45A     -0.476578
      46A     -0.398132    47A     -0.395184    48A     -0.348334
      49A     -0.311679

    Virtual:

      50A      0.116764    51A      0.145022    52A      0.165788
      53A      0.173159    54A      0.188455    55A      0.198478
      56A      0.211219    57A      0.218992    58A      0.227200
      59A      0.240992    60A      0.245916    61A      0.258930
      62A      0.262380    63A      0.273131    64A      0.286221
      65A      0.303009    66A      0.320508    67A      0.324741
      68A      0.364487    69A      0.369744    70A      0.391828
      71A      0.414077    72A      0.428367    73A      0.449839
      74A      0.477130    75A      0.480149    76A      0.496750
      77A      0.502335    78A      0.564804    79A      0.584414
      80A      0.607284    81A      0.615074    82A      0.628419
      83A      0.640494    84A      0.654902    85A      0.672536
      86A      0.679550    87A      0.693984    88A      0.710359
      89A      0.716546    90A      0.723002    91A      0.732389
      92A      0.743929    93A      0.745172    94A      0.755696
      95A      0.766848    96A      0.770850    97A      0.778246
      98A      0.799514    99A      0.811395   100A      0.828649
     101A      0.833784   102A      0.839224   103A      0.858287
     104A      0.866039   105A      0.878038   106A      0.881973
     107A      0.883927   108A      0.891489   109A      0.894264
     110A      0.902329   111A      0.912213   112A      0.919342
     113A      0.933010   114A      0.944287   115A      0.954106
     116A      0.958978   117A      0.970357   118A      0.988897
     119A      1.002251   120A      1.011258   121A      1.033966
     122A      1.042718   123A      1.093666   124A      1.102348
     125A      1.109249   126A      1.126435   127A      1.132258
     128A      1.147474   129A      1.157674   130A      1.182897
     131A      1.185262   132A      1.212913   133A      1.241579
     134A      1.247304   135A      1.265639   136A      1.271134
     137A      1.283369   138A      1.285399   139A      1.303894
     140A      1.312700   141A      1.342152   142A      1.353690
     143A      1.360413   144A      1.370563   145A      1.383995
     146A      1.385385   147A      1.421993   148A      1.430578
     149A      1.448242   150A      1.488947   151A      1.500842
     152A      1.505676   153A      1.530193   154A      1.545654
     155A      1.601931   156A      1.610909   157A      1.629359
     158A      1.660765   159A      1.683183   160A      1.687066
     161A      1.692979   162A      1.733423   163A      1.737448
     164A      1.754637   165A      1.773631   166A      1.781195
     167A      1.797526   168A      1.808998   169A      1.825766
     170A      1.840195   171A      1.863727   172A      1.864705
     173A      1.886774   174A      1.896565   175A      1.909133
     176A      1.913849   177A      1.918875   178A      1.926135
     179A      1.938775   180A      1.944697   181A      1.946160
     182A      1.955140   183A      1.961754   184A      1.975663
     185A      1.991474   186A      1.998025   187A      2.008954
     188A      2.012194   189A      2.023690   190A      2.033583
     191A      2.046267   192A      2.057520   193A      2.066961
     194A      2.075480   195A      2.093311   196A      2.116180
     197A      2.129146   198A      2.141166   199A      2.180947
     200A      2.194998   201A      2.203848   202A      2.209219
     203A      2.241990   204A      2.260245   205A      2.263479
     206A      2.305034   207A      2.314375   208A      2.347188
     209A      2.354247   210A      2.362943   211A      2.389413
     212A      2.406463   213A      2.427001   214A      2.447899
     215A      2.469057   216A      2.491187   217A      2.504960
     218A      2.520576   219A      2.530332   220A      2.539109
     221A      2.559355   222A      2.576094   223A      2.603685
     224A      2.614625   225A      2.640144   226A      2.661143
     227A      2.737023   228A      2.750412   229A      2.776218
     230A      2.784686   231A      2.794253   232A      2.800842
     233A      2.854788   234A      2.875283   235A      2.893067
     236A      2.905411   237A      2.917072   238A      2.970095
     239A      2.978282   240A      3.017065   241A      3.029649
     242A      3.076399   243A      3.106064   244A      3.112902
     245A      3.149641   246A      3.242114   247A      3.273679
     248A      3.323955   249A      3.337525   250A      3.527389
     251A      3.563464   252A      3.566925   253A      3.660947
     254A      3.880780   255A      3.922967   256A      3.962472
     257A      4.179267

    Final Occupation by Irrep:
              A
    DOCC [    49 ]

  @RHF Final Energy:  -591.64846221963967

   => Energetics <=

    Nuclear Repulsion Energy =            789.7465306545590238
    One-Electron Energy =               -2372.9498465114584178
    Two-Electron Energy =                 991.5548536372596118
    Total Energy =                       -591.6484622196396685

Computation Completed

Properties will be evaluated at   0.000000,   0.000000,   0.000000 [a0]

Properties computed using the SCF density matrix

  Nuclear Dipole Moment: [e a0]
     X:     4.6219      Y:     1.7798      Z:     1.2353

  Electronic Dipole Moment: [e a0]
     X:    -4.1814      Y:    -3.5396      Z:    -1.4121

  Dipole Moment: [e a0]
     X:     0.4405      Y:    -1.7598      Z:    -0.1768     Total:     1.8227

  Dipole Moment: [D]
     X:     1.1197      Y:    -4.4730      Z:    -0.4493     Total:     4.6329

*** tstop() called on ds3 at Mon Apr 27 08:40:24 2020
Module time:
	user time   =     258.09 seconds =       4.30 minutes
	system time =      81.73 seconds =       1.36 minutes
	total time  =       1064 seconds =      17.73 minutes
Total time:
	user time   =     258.09 seconds =       4.30 minutes
	system time =      81.73 seconds =       1.36 minutes
	total time  =       1064 seconds =      17.73 minutes
                                     G D M A

                                 by Anthony Stone

                           version 2.2.06, 22 June 2011

               Distributed Multipoles from Gaussian wavefunctions

Starting at 8:40:24 on 27 Apr 2020

Using SCF density matrix from file ./SSI/SSI-025GLN-039TYR-1-dimer.test.863.fchk

                         Distributed Multipole Analysis

Standard DMA

Positions and radii in angstrom
Multipole moments in atomic units, ea_0^k for rank k

C          x =  1.435593  y =  1.869551  z = -0.526365 angstrom
           Maximum rank =  0   Radius =  0.650 angstrom
                   Q00  =  -0.098934

C          x =  1.898593  y =  0.895551  z = -1.641365 angstrom
           Maximum rank =  0   Radius =  0.650 angstrom
                   Q00  =  -0.273031

C          x =  0.133593  y =  2.590551  z = -0.843365 angstrom
           Maximum rank =  0   Radius =  0.650 angstrom
                   Q00  =   0.809759

O          x = -0.128407  y =  3.695551  z = -0.376365 angstrom
           Maximum rank =  0   Radius =  0.650 angstrom
                   Q00  =  -0.804640

N          x = -0.706407  y =  1.951551  z = -1.631365 angstrom
           Maximum rank =  0   Radius =  0.650 angstrom
                   Q00  =  -0.520652

H          x =  1.271593  y =  1.281551  z =  0.375635 angstrom
           Maximum rank =  0   Radius =  0.325 angstrom
                   Q00  =   0.106359

H          x =  2.210593  y =  2.596551  z = -0.292365 angstrom
           Maximum rank =  0   Radius =  0.325 angstrom
                   Q00  =   0.097049

H          x =  1.121593  y =  0.165551  z = -1.873365 angstrom
           Maximum rank =  0   Radius =  0.325 angstrom
                   Q00  =   0.075355

H          x =  2.734593  y =  0.329551  z = -1.233365 angstrom
           Maximum rank =  0   Radius =  0.325 angstrom
                   Q00  =   0.097957

H          x = -1.576407  y =  2.379551  z = -1.892365 angstrom
           Maximum rank =  0   Radius =  0.325 angstrom
                   Q00  =   0.213449

H          x = -0.503407  y =  1.012551  z = -1.940365 angstrom
           Maximum rank =  0   Radius =  0.325 angstrom
                   Q00  =   0.212852

H          x =  2.230923  y =  1.395121  z = -2.563313 angstrom
           Maximum rank =  0   Radius =  0.325 angstrom
                   Q00  =   0.090359

C          x = -0.527407  y =  0.596551  z =  2.763635 angstrom
           Maximum rank =  0   Radius =  0.650 angstrom
                   Q00  =  -0.194713

C          x = -1.246407  y = -0.410449  z =  0.562635 angstrom
           Maximum rank =  0   Radius =  0.650 angstrom
                   Q00  =  -0.013972

C          x = -0.446407  y = -0.481449  z =  1.704635 angstrom
           Maximum rank =  0   Radius =  0.650 angstrom
                   Q00  =  -0.145973

C          x = -1.158407  y = -1.384449  z = -0.431365 angstrom
           Maximum rank =  0   Radius =  0.650 angstrom
                   Q00  =  -0.151603

C          x =  0.453593  y = -1.542449  z =  1.826635 angstrom
           Maximum rank =  0   Radius =  0.650 angstrom
                   Q00  =   0.030186

C          x = -0.267407  y = -2.442449  z = -0.288365 angstrom
           Maximum rank =  0   Radius =  0.650 angstrom
                   Q00  =   0.324226

C          x =  0.542593  y = -2.521449  z =  0.839635 angstrom
           Maximum rank =  0   Radius =  0.650 angstrom
                   Q00  =  -0.181850

O          x = -0.177407  y = -3.400449  z = -1.254365 angstrom
           Maximum rank =  0   Radius =  0.650 angstrom
                   Q00  =  -0.678452

H          x = -1.955407  y =  0.400551  z =  0.451635 angstrom
           Maximum rank =  0   Radius =  0.325 angstrom
                   Q00  =   0.073013

H          x = -1.791407  y = -1.335449  z = -1.306365 angstrom
           Maximum rank =  0   Radius =  0.325 angstrom
                   Q00  =   0.074628

H          x = -1.137407  y =  1.405551  z =  2.361635 angstrom
           Maximum rank =  0   Radius =  0.325 angstrom
                   Q00  =   0.103713

H          x =  0.473593  y =  0.995551  z =  2.908635 angstrom
           Maximum rank =  0   Radius =  0.325 angstrom
                   Q00  =   0.096273

H          x =  1.108593  y = -1.595449  z =  2.685635 angstrom
           Maximum rank =  0   Radius =  0.325 angstrom
                   Q00  =   0.071642

H          x =  1.278593  y = -3.305449  z =  0.910635 angstrom
           Maximum rank =  0   Radius =  0.325 angstrom
                   Q00  =   0.073570

H          x =  0.420593  y = -4.110449  z = -0.999365 angstrom
           Maximum rank =  0   Radius =  0.325 angstrom
                   Q00  =   0.409119

H          x = -0.957068  y =  0.287800  z =  3.728033 angstrom
           Maximum rank =  0   Radius =  0.325 angstrom
                   Q00  =   0.104311

Total multipoles referred to origin at
           x =   0.000000,  y =    0.000000,  z =    0.000000 angstrom
                   Q00  =  -0.000000

Finished at 8:40:24 on 27 Apr 2020

  DMA results are available in the Python driver through the
	  variable('DMA DISTRIBUTED MULTIPOLES')
  and
	  variable('DMA TOTAL MULTIPOLES')
  commands.

    Psi4 stopped on: Monday, 27 April 2020 08:40AM
    Psi4 wall time for execution: 0:17:43.78

*** Psi4 exiting successfully. Buy a developer a beer!
