                               Psi4 1.3.2 release

  ==> Input File <==

--------------------------------------------------------------------------
import numpy as np
set {scf_type pk
basis cc-pvdz
d_convergence 10
gdma_switch   0
gdma_limit    0
gdma_origin   [ 0.0,  0.0,  0.0 ]
}
molecule test {
    units Angstrom
    0 1
    --
    0 1
    C                1.364900381225833    -0.878294082848201     0.519704154276842
    C                2.797900381225833    -1.312294082848201     0.752704154276842
    H                0.754900381225833    -1.068294082848201     1.404704154276842
    H                1.345900381225833     0.190705917151799     0.297704154276842
    H                0.945900381225833    -1.417294082848201    -0.330295845723158
    H                3.360900381225833    -1.046294082848201    -0.142295845723158
    H                2.853580381225833    -2.399394082848201     0.911164154276842
    H                3.209940381225833    -0.759114082848201     1.609564154276842
    C               -2.036099618774167     0.706705917151799     0.021704154276842
    C               -2.127099618774167     1.474705917151799    -1.292295845723158
    H               -2.686099618774167    -0.169294082848201    -0.004295845723158
    H               -1.008099618774167     0.395705917151799     0.196704154276842
    H               -2.344099618774167     1.352705917151799     0.845704154276842
    H               -1.553099618774167     2.388705917151799    -1.164295845723158
    H               -3.176559618774168     1.723995917151799    -1.507915845723158
    H               -1.698419618774167     0.917125917151799    -2.138075845723157

}
e, wfn = energy('scf', return_wfn=True)
gdma(wfn)
dmavals = variable('DMA DISTRIBUTED MULTIPOLES')
charges = np.array(dmavals)
print(charges)
np.save('SSI-120VAL-275LEU-1-dimer.npy', np.array(charges))--------------------------------------------------------------------------

*** tstart() called on ds3
*** at Tue Apr 28 10:36:54 2020

   => Loading Basis Set <=

    Name: CC-PVDZ
    Role: ORBITAL
    Keyword: BASIS
    atoms 1-2, 9-10  entry C          line   138 file /theoryfs2/ds/metcalf/miniconda2/envs/tf2gpu/share/psi4/basis/cc-pvdz.gbs
    atoms 3-8, 11-16 entry H          line    22 file /theoryfs2/ds/metcalf/miniconda2/envs/tf2gpu/share/psi4/basis/cc-pvdz.gbs

         ---------------------------------------------------------
                                   SCF
               by Justin Turney, Rob Parrish, Andy Simmonett
                          and Daniel G. A. Smith
                              RHF Reference
                        1 Threads,    500 MiB Core
         ---------------------------------------------------------

  ==> Geometry <==

    Molecular point group: c1
    Full point group: C1

    Geometry (in Angstrom), charge = 0, multiplicity = 1:

       Center              X                  Y                   Z               Mass
    ------------   -----------------  -----------------  -----------------  -----------------
         C            1.364900381226    -0.878294082848     0.519704154277    12.000000000000
         C            2.797900381226    -1.312294082848     0.752704154277    12.000000000000
         H            0.754900381226    -1.068294082848     1.404704154277     1.007825032230
         H            1.345900381226     0.190705917152     0.297704154277     1.007825032230
         H            0.945900381226    -1.417294082848    -0.330295845723     1.007825032230
         H            3.360900381226    -1.046294082848    -0.142295845723     1.007825032230
         H            2.853580381226    -2.399394082848     0.911164154277     1.007825032230
         H            3.209940381226    -0.759114082848     1.609564154277     1.007825032230
         C           -2.036099618774     0.706705917152     0.021704154277    12.000000000000
         C           -2.127099618774     1.474705917152    -1.292295845723    12.000000000000
         H           -2.686099618774    -0.169294082848    -0.004295845723     1.007825032230
         H           -1.008099618774     0.395705917152     0.196704154277     1.007825032230
         H           -2.344099618774     1.352705917152     0.845704154277     1.007825032230
         H           -1.553099618774     2.388705917152    -1.164295845723     1.007825032230
         H           -3.176559618774     1.723995917152    -1.507915845723     1.007825032230
         H           -1.698419618774     0.917125917152    -2.138075845723     1.007825032230

  Running in c1 symmetry.

  Rotational constants: A =      0.61428  B =      0.04309  C =      0.04158 [cm^-1]
  Rotational constants: A =  18415.52044  B =   1291.75094  C =   1246.51255 [MHz]
  Nuclear repulsion =  120.800684113915878

  Charge       = 0
  Multiplicity = 1
  Electrons    = 36
  Nalpha       = 18
  Nbeta        = 18

  ==> Algorithm <==

  SCF Algorithm Type is PK.
  DIIS enabled.
  MOM disabled.
  Fractional occupation disabled.
  Guess Type is SAD.
  Energy threshold   = 1.00e-06
  Density threshold  = 1.00e-10
  Integral threshold = 0.00e+00

  ==> Primary Basis <==

  Basis Set: CC-PVDZ
    Blend: CC-PVDZ
    Number of shells: 60
    Number of basis function: 116
    Number of Cartesian functions: 120
    Spherical Harmonics?: true
    Max angular momentum: 2

  ==> Pre-Iterations <==

   -------------------------------------------------------
    Irrep   Nso     Nmo     Nalpha   Nbeta   Ndocc  Nsocc
   -------------------------------------------------------
     A        116     116       0       0       0       0
   -------------------------------------------------------
    Total     116     116      18      18      18       0
   -------------------------------------------------------

  ==> Integral Setup <==

  Using integral reordering PK algorithm.
  Sizing the integral batches needed.
  Building batch lookup table.
   Calculation information:
      Number of atoms:                  16
      Number of AO shells:              60
      Number of primitives:            148
      Number of atomic orbitals:       120
      Number of basis functions:       116

      Integral cutoff                 1.00e-12
      Number of threads:                 1

	Batch   1 pq = [       0,    6786] index = [             0,23028291] size =     23028291
  Task number: 3
  Buffer size: 11059200
  Buffer per thread: 2
  We computed 1369122 shell quartets total.
  Whereas there are 1675365 unique shell quartets.

  ==> DiskJK: Disk-Based J/K Matrices <==

    J tasked:                  Yes
    K tasked:                  Yes
    wK tasked:                  No
    Memory [MiB]:              375
    Schwarz Cutoff:          1E-12

    OpenMP threads:              1

  Minimum eigenvalue in the overlap matrix is 5.1363529648E-03.
  Using Symmetric Orthogonalization.

  SCF Guess: Superposition of Atomic Densities via on-the-fly atomic UHF.

  ==> Iterations <==

                        Total Energy        Delta E     RMS |[F,P]|

   @RHF iter SAD:  -157.38351199570133   -1.57384e+02   0.00000e+00
   @RHF iter   1:  -158.30531332931932   -9.21801e-01   4.23784e-03 DIIS
   @RHF iter   2:  -158.43987654322501   -1.34563e-01   1.80832e-03 DIIS
   @RHF iter   3:  -158.46359276874489   -2.37162e-02   3.52127e-04 DIIS
   @RHF iter   4:  -158.46545307258444   -1.86030e-03   3.94419e-05 DIIS
   @RHF iter   5:  -158.46547784267204   -2.47701e-05   6.89583e-06 DIIS
   @RHF iter   6:  -158.46547853714944   -6.94477e-07   1.27656e-06 DIIS
   @RHF iter   7:  -158.46547855305099   -1.59015e-08   3.41779e-07 DIIS
   @RHF iter   8:  -158.46547855419371   -1.14272e-09   5.06838e-08 DIIS
   @RHF iter   9:  -158.46547855423870   -4.49916e-11   1.19761e-08 DIIS
   @RHF iter  10:  -158.46547855424126   -2.55795e-12   3.54132e-09 DIIS
   @RHF iter  11:  -158.46547855424180   -5.40012e-13   9.71723e-10 DIIS
   @RHF iter  12:  -158.46547855424177    2.84217e-14   1.93089e-10 DIIS
   @RHF iter  13:  -158.46547855424191   -1.42109e-13   3.29078e-11 DIIS
  Energy and wave function converged.

  ==> Post-Iterations <==

    Orbital Energies [Eh]
    ---------------------

    Doubly Occupied:

       1A    -11.219145     2A    -11.217352     3A    -11.217039
       4A    -11.213841     5A     -1.023455     6A     -1.017510
       7A     -0.837844     8A     -0.831839     9A     -0.602898
      10A     -0.601213    11A     -0.598360    12A     -0.595080
      13A     -0.506403    14A     -0.498627    15A     -0.487673
      16A     -0.484631    17A     -0.482333    18A     -0.479104

    Virtual:

      19A      0.174675    20A      0.193840    21A      0.229337
      22A      0.239926    23A      0.245298    24A      0.258633
      25A      0.259491    26A      0.275164    27A      0.280163
      28A      0.285734    29A      0.298942    30A      0.333910
      31A      0.396991    32A      0.429816    33A      0.589087
      34A      0.595872    35A      0.603620    36A      0.606836
      37A      0.609325    38A      0.655924    39A      0.663866
      40A      0.684241    41A      0.707061    42A      0.741004
      43A      0.846376    44A      0.879032    45A      0.889727
      46A      0.892326    47A      0.893448    48A      0.895534
      49A      0.901582    50A      0.911262    51A      0.914234
      52A      0.917084    53A      0.936057    54A      0.947179
      55A      0.970181    56A      1.044502    57A      1.122010
      58A      1.124043    59A      1.133315    60A      1.135872
      61A      1.227850    62A      1.341498    63A      1.471452
      64A      1.478679    65A      1.482311    66A      1.484799
      67A      1.577727    68A      1.603805    69A      1.673650
      70A      1.682876    71A      1.690770    72A      1.697872
      73A      1.839153    74A      1.848935    75A      1.863476
      76A      1.875097    77A      1.890649    78A      1.927703
      79A      1.932204    80A      1.943296    81A      1.945064
      82A      1.948845    83A      1.955636    84A      1.959309
      85A      1.965955    86A      1.977324    87A      1.986653
      88A      2.058071    89A      2.099411    90A      2.103357
      91A      2.117576    92A      2.134965    93A      2.298798
      94A      2.300106    95A      2.311691    96A      2.347011
      97A      2.449566    98A      2.461807    99A      2.467340
     100A      2.472101   101A      2.560685   102A      2.566805
     103A      2.574637   104A      2.586859   105A      2.751509
     106A      2.764272   107A      2.781039   108A      2.818605
     109A      2.838708   110A      2.845145   111A      2.851980
     112A      2.864279   113A      2.940546   114A      2.951874
     115A      2.956088   116A      2.983015

    Final Occupation by Irrep:
              A
    DOCC [    18 ]

  @RHF Final Energy:  -158.46547855424191

   => Energetics <=

    Nuclear Repulsion Energy =            120.8006841139158780
    One-Electron Energy =                -450.7036321997801451
    Two-Electron Energy =                 171.4374695316223836
    Total Energy =                       -158.4654785542419120

Computation Completed

Properties will be evaluated at   0.000000,   0.000000,   0.000000 [a0]

Properties computed using the SCF density matrix

  Nuclear Dipole Moment: [e a0]
     X:     0.0044      Y:     0.1024      Z:    -0.0203

  Electronic Dipole Moment: [e a0]
     X:     0.0279      Y:    -0.1063      Z:     0.0293

  Dipole Moment: [e a0]
     X:     0.0323      Y:    -0.0038      Z:     0.0090     Total:     0.0338

  Dipole Moment: [D]
     X:     0.0821      Y:    -0.0098      Z:     0.0229     Total:     0.0859

*** tstop() called on ds3 at Tue Apr 28 10:37:04 2020
Module time:
	user time   =       7.44 seconds =       0.12 minutes
	system time =       2.91 seconds =       0.05 minutes
	total time  =         10 seconds =       0.17 minutes
Total time:
	user time   =       7.44 seconds =       0.12 minutes
	system time =       2.91 seconds =       0.05 minutes
	total time  =         10 seconds =       0.17 minutes
                                     G D M A

                                 by Anthony Stone

                           version 2.2.06, 22 June 2011

               Distributed Multipoles from Gaussian wavefunctions

Starting at 10:37:4 on 28 Apr 2020

Using SCF density matrix from file ./SSI/SSI-120VAL-275LEU-1-dimer.test.4110.fchk

                         Distributed Multipole Analysis

Standard DMA

Positions and radii in angstrom
Multipole moments in atomic units, ea_0^k for rank k

C          x =  1.364900  y = -0.878294  z =  0.519704 angstrom
           Maximum rank =  0   Radius =  0.650 angstrom
                   Q00  =  -0.249381

C          x =  2.797900  y = -1.312294  z =  0.752704 angstrom
           Maximum rank =  0   Radius =  0.650 angstrom
                   Q00  =  -0.215532

H          x =  0.754900  y = -1.068294  z =  1.404704 angstrom
           Maximum rank =  0   Radius =  0.325 angstrom
                   Q00  =   0.077595

H          x =  1.345900  y =  0.190706  z =  0.297704 angstrom
           Maximum rank =  0   Radius =  0.325 angstrom
                   Q00  =   0.072658

H          x =  0.945900  y = -1.417294  z = -0.330296 angstrom
           Maximum rank =  0   Radius =  0.325 angstrom
                   Q00  =   0.078111

H          x =  3.360900  y = -1.046294  z = -0.142296 angstrom
           Maximum rank =  0   Radius =  0.325 angstrom
                   Q00  =   0.077837

H          x =  2.853580  y = -2.399394  z =  0.911164 angstrom
           Maximum rank =  0   Radius =  0.325 angstrom
                   Q00  =   0.081400

H          x =  3.209940  y = -0.759114  z =  1.609564 angstrom
           Maximum rank =  0   Radius =  0.325 angstrom
                   Q00  =   0.079221

C          x = -2.036100  y =  0.706706  z =  0.021704 angstrom
           Maximum rank =  0   Radius =  0.650 angstrom
                   Q00  =  -0.231505

C          x = -2.127100  y =  1.474706  z = -1.292296 angstrom
           Maximum rank =  0   Radius =  0.650 angstrom
                   Q00  =  -0.243137

H          x = -2.686100  y = -0.169294  z = -0.004296 angstrom
           Maximum rank =  0   Radius =  0.325 angstrom
                   Q00  =   0.076597

H          x = -1.008100  y =  0.395706  z =  0.196704 angstrom
           Maximum rank =  0   Radius =  0.325 angstrom
                   Q00  =   0.087195

H          x = -2.344100  y =  1.352706  z =  0.845704 angstrom
           Maximum rank =  0   Radius =  0.325 angstrom
                   Q00  =   0.076602

H          x = -1.553100  y =  2.388706  z = -1.164296 angstrom
           Maximum rank =  0   Radius =  0.325 angstrom
                   Q00  =   0.075082

H          x = -3.176560  y =  1.723996  z = -1.507916 angstrom
           Maximum rank =  0   Radius =  0.325 angstrom
                   Q00  =   0.078415

H          x = -1.698420  y =  0.917126  z = -2.138076 angstrom
           Maximum rank =  0   Radius =  0.325 angstrom
                   Q00  =   0.078842

Total multipoles referred to origin at
           x =   0.000000,  y =    0.000000,  z =    0.000000 angstrom
                   Q00  =  -0.000000

Finished at 10:37:4 on 28 Apr 2020

  DMA results are available in the Python driver through the
	  variable('DMA DISTRIBUTED MULTIPOLES')
  and
	  variable('DMA TOTAL MULTIPOLES')
  commands.

    Psi4 stopped on: Tuesday, 28 April 2020 10:37AM
    Psi4 wall time for execution: 0:00:10.04

*** Psi4 exiting successfully. Buy a developer a beer!
