                               Psi4 1.3.2 release

  ==> Input File <==

--------------------------------------------------------------------------
import numpy as np
set {scf_type pk
basis cc-pvdz
d_convergence 10
gdma_switch   0
gdma_limit    0
gdma_origin   [ 0.0,  0.0,  0.0 ]
}
molecule test {
    units Angstrom
    0 1
    --
    0 1
    C               -0.848510605525786    -0.721233932363133    -1.037252816009481
    C               -0.883510605525786    -1.928233932363133    -1.984252816009481
    C               -2.209510605525786    -0.189233932363133    -0.614252816009481
    C               -3.021510605525786    -0.919233932363133     0.260747183990519
    C               -2.655510605525786     1.060766067636867    -1.059252816009481
    C               -4.261510605525787    -0.422233932363133     0.669747183990519
    C               -3.889510605525786     1.567766067636867    -0.651252816009481
    C               -4.692510605525786     0.821766067636867     0.209747183990519
    O               -5.902510605525786     1.299766067636867     0.604747183990519
    H               -0.311510605525786    -1.009233932363133    -0.135252816009481
    H               -0.289510605525786     0.087766067636867    -1.508252816009481
    H               -1.167510605525786    -2.801233932363133    -1.402252816009481
    H               -2.684510605525786    -1.881233932363133     0.627747183990519
    H               -2.036510605525786     1.648766067636867    -1.723252816009481
    H               -4.879510605525787    -0.997233932363133     1.343747183990519
    H               -4.228510605525786     2.533766067636867    -0.994252816009481
    H               -6.368510605525786     0.674766067636867     1.167747183990519
    H                0.096556994474214    -2.079361932363133    -2.460302816009481
    H               -1.625088305525786    -1.769739932363133    -2.781082816009481
    C                6.495489394474214    -0.833233932363133     0.043747183990519
    C                2.696489394474214    -0.504233932363133    -0.045252816009481
    C                2.474489394474214     0.497766067636867     0.906747183990519
    C                3.995489394474214    -0.921233932363133    -0.324252816009481
    C                5.091489394474214    -0.340233932363133     0.321747183990519
    C                3.565489394474214     1.073766067636867     1.570747183990519
    C                4.865489394474214     0.650766067636867     1.281747183990519
    H                1.869489394474214    -0.963233932363133    -0.560252816009481
    H                1.466489394474214     0.812766067636867     1.126747183990519
    H                4.151489394474214    -1.705233932363133    -1.047252816009481
    H                3.394489394474214     1.846766067636867     2.305747183990519
    H                6.450489394474213    -1.920233932363133    -0.013252816009481
    H                7.137489394474213    -0.589233932363133     0.891747183990519
    H                5.699489394474214     1.097766067636867     1.803747183990519
    H                6.960555394474214    -0.439606932363133    -0.872092816009481

}
e, wfn = energy('scf', return_wfn=True)
gdma(wfn)
dmavals = variable('DMA DISTRIBUTED MULTIPOLES')
charges = np.array(dmavals)
print(charges)
np.save('SSI-120TYR-141PHE-1-dimer.npy', np.array(charges))--------------------------------------------------------------------------

*** tstart() called on ds3
*** at Tue Apr 28 12:06:03 2020

   => Loading Basis Set <=

    Name: CC-PVDZ
    Role: ORBITAL
    Keyword: BASIS
    atoms 1-8, 20-26   entry C          line   138 file /theoryfs2/ds/metcalf/miniconda2/envs/tf2gpu/share/psi4/basis/cc-pvdz.gbs
    atoms 9            entry O          line   198 file /theoryfs2/ds/metcalf/miniconda2/envs/tf2gpu/share/psi4/basis/cc-pvdz.gbs
    atoms 10-19, 27-34 entry H          line    22 file /theoryfs2/ds/metcalf/miniconda2/envs/tf2gpu/share/psi4/basis/cc-pvdz.gbs

         ---------------------------------------------------------
                                   SCF
               by Justin Turney, Rob Parrish, Andy Simmonett
                          and Daniel G. A. Smith
                              RHF Reference
                        1 Threads,    500 MiB Core
         ---------------------------------------------------------

  ==> Geometry <==

    Molecular point group: c1
    Full point group: C1

    Geometry (in Angstrom), charge = 0, multiplicity = 1:

       Center              X                  Y                   Z               Mass
    ------------   -----------------  -----------------  -----------------  -----------------
         C           -0.848510605526    -0.721233932363    -1.037252816009    12.000000000000
         C           -0.883510605526    -1.928233932363    -1.984252816009    12.000000000000
         C           -2.209510605526    -0.189233932363    -0.614252816009    12.000000000000
         C           -3.021510605526    -0.919233932363     0.260747183991    12.000000000000
         C           -2.655510605526     1.060766067637    -1.059252816009    12.000000000000
         C           -4.261510605526    -0.422233932363     0.669747183991    12.000000000000
         C           -3.889510605526     1.567766067637    -0.651252816009    12.000000000000
         C           -4.692510605526     0.821766067637     0.209747183991    12.000000000000
         O           -5.902510605526     1.299766067637     0.604747183991    15.994914619570
         H           -0.311510605526    -1.009233932363    -0.135252816009     1.007825032230
         H           -0.289510605526     0.087766067637    -1.508252816009     1.007825032230
         H           -1.167510605526    -2.801233932363    -1.402252816009     1.007825032230
         H           -2.684510605526    -1.881233932363     0.627747183991     1.007825032230
         H           -2.036510605526     1.648766067637    -1.723252816009     1.007825032230
         H           -4.879510605526    -0.997233932363     1.343747183991     1.007825032230
         H           -4.228510605526     2.533766067637    -0.994252816009     1.007825032230
         H           -6.368510605526     0.674766067637     1.167747183991     1.007825032230
         H            0.096556994474    -2.079361932363    -2.460302816009     1.007825032230
         H           -1.625088305526    -1.769739932363    -2.781082816009     1.007825032230
         C            6.495489394474    -0.833233932363     0.043747183991    12.000000000000
         C            2.696489394474    -0.504233932363    -0.045252816009    12.000000000000
         C            2.474489394474     0.497766067637     0.906747183991    12.000000000000
         C            3.995489394474    -0.921233932363    -0.324252816009    12.000000000000
         C            5.091489394474    -0.340233932363     0.321747183991    12.000000000000
         C            3.565489394474     1.073766067637     1.570747183991    12.000000000000
         C            4.865489394474     0.650766067637     1.281747183991    12.000000000000
         H            1.869489394474    -0.963233932363    -0.560252816009     1.007825032230
         H            1.466489394474     0.812766067637     1.126747183991     1.007825032230
         H            4.151489394474    -1.705233932363    -1.047252816009     1.007825032230
         H            3.394489394474     1.846766067637     2.305747183991     1.007825032230
         H            6.450489394474    -1.920233932363    -0.013252816009     1.007825032230
         H            7.137489394474    -0.589233932363     0.891747183991     1.007825032230
         H            5.699489394474     1.097766067637     1.803747183991     1.007825032230
         H            6.960555394474    -0.439606932363    -0.872092816009     1.007825032230

  Running in c1 symmetry.

  Rotational constants: A =      0.04247  B =      0.00478  C =      0.00450 [cm^-1]
  Rotational constants: A =   1273.25617  B =    143.31076  C =    135.03279 [MHz]
  Nuclear repulsion =  932.469753055004276

  Charge       = 0
  Multiplicity = 1
  Electrons    = 116
  Nalpha       = 58
  Nbeta        = 58

  ==> Algorithm <==

  SCF Algorithm Type is PK.
  DIIS enabled.
  MOM disabled.
  Fractional occupation disabled.
  Guess Type is SAD.
  Energy threshold   = 1.00e-06
  Density threshold  = 1.00e-10
  Integral threshold = 0.00e+00

  ==> Primary Basis <==

  Basis Set: CC-PVDZ
    Blend: CC-PVDZ
    Number of shells: 150
    Number of basis function: 314
    Number of Cartesian functions: 330
    Spherical Harmonics?: true
    Max angular momentum: 2

  ==> Pre-Iterations <==

   -------------------------------------------------------
    Irrep   Nso     Nmo     Nalpha   Nbeta   Ndocc  Nsocc
   -------------------------------------------------------
     A        314     314       0       0       0       0
   -------------------------------------------------------
    Total     314     314      58      58      58       0
   -------------------------------------------------------

  ==> Integral Setup <==

  Using integral reordering PK algorithm.
  Sizing the integral batches needed.
  Building batch lookup table.
   Calculation information:
      Number of atoms:                  34
      Number of AO shells:             150
      Number of primitives:            442
      Number of atomic orbitals:       330
      Number of basis functions:       314

      Integral cutoff                 1.00e-12
      Number of threads:                 1

	Batch   1 pq = [       0,    9405] index = [             0,44231715] size =     44231715
	Batch   2 pq = [    9405,   13301] index = [      44231715,88464951] size =     44233236
	Batch   3 pq = [   13301,   16290] index = [      88464951,132690195] size =     44225244
	Batch   4 pq = [   16290,   18810] index = [     132690195,176917455] size =     44227260
	Batch   5 pq = [   18810,   21030] index = [     176917455,221140965] size =     44223510
	Batch   6 pq = [   21030,   23037] index = [     221140965,265363203] size =     44222238
	Batch   7 pq = [   23037,   24883] index = [     265363203,309594286] size =     44231083
	Batch   8 pq = [   24883,   26601] index = [     309594286,353819901] size =     44225615
	Batch   9 pq = [   26601,   28214] index = [     353819901,398029005] size =     44209104
	Batch  10 pq = [   28214,   29740] index = [     398029005,442248670] size =     44219665
	Batch  11 pq = [   29740,   31191] index = [     442248670,486454836] size =     44206166
	Batch  12 pq = [   31191,   32578] index = [     486454836,530679331] size =     44224495
	Batch  13 pq = [   32578,   33908] index = [     530679331,574893186] size =     44213855
	Batch  14 pq = [   33908,   35188] index = [     574893186,619115266] size =     44222080
	Batch  15 pq = [   35188,   36423] index = [     619115266,663335676] size =     44220410
	Batch  16 pq = [   36423,   37617] index = [     663335676,707538153] size =     44202477
	Batch  17 pq = [   37617,   38775] index = [     707538153,751769700] size =     44231547
	Batch  18 pq = [   38775,   39899] index = [     751769700,795985050] size =     44215350
	Batch  19 pq = [   39899,   40992] index = [     795985050,840192528] size =     44207478
	Batch  20 pq = [   40992,   42057] index = [     840192528,884416653] size =     44224125
	Batch  21 pq = [   42057,   43095] index = [     884416653,928611060] size =     44194407
	Batch  22 pq = [   43095,   44109] index = [     928611060,972823995] size =     44212935
	Batch  23 pq = [   44109,   45100] index = [     972823995,1017027550] size =     44203555
	Batch  24 pq = [   45100,   46070] index = [    1017027550,1061245485] size =     44217935
	Batch  25 pq = [   46070,   47020] index = [    1061245485,1105463710] size =     44218225
	Batch  26 pq = [   47020,   47951] index = [    1105463710,1149673176] size =     44209466
	Batch  27 pq = [   47951,   48864] index = [    1149673176,1193869680] size =     44196504
	Batch  28 pq = [   48864,   49455] index = [    1193869680,1222923240] size =     29053560
  Task number: 111
  Buffer size: 11059200
  Buffer per thread: 2
  We computed 49188697 shell quartets total.
  Whereas there are 64133475 unique shell quartets.

  ==> DiskJK: Disk-Based J/K Matrices <==

    J tasked:                  Yes
    K tasked:                  Yes
    wK tasked:                  No
    Memory [MiB]:              375
    Schwarz Cutoff:          1E-12

    OpenMP threads:              1

  Minimum eigenvalue in the overlap matrix is 3.1223698860E-04.
  Using Symmetric Orthogonalization.

  SCF Guess: Superposition of Atomic Densities via on-the-fly atomic UHF.

  ==> Iterations <==

                        Total Energy        Delta E     RMS |[F,P]|

   @RHF iter SAD:  -652.09019454230724   -6.52090e+02   0.00000e+00
   @RHF iter   1:  -653.07313927369557   -9.82945e-01   2.26356e-03 DIIS
   @RHF iter   2:  -653.36910351069480   -2.95964e-01   9.34442e-04 DIIS
   @RHF iter   3:  -653.41342819763918   -4.43247e-02   2.24375e-04 DIIS
   @RHF iter   4:  -653.41734657497989   -3.91838e-03   8.61127e-05 DIIS
   @RHF iter   5:  -653.41777043254433   -4.23858e-04   1.64149e-05 DIIS
   @RHF iter   6:  -653.41779302743635   -2.25949e-05   5.04257e-06 DIIS
   @RHF iter   7:  -653.41779513900156   -2.11157e-06   1.51731e-06 DIIS
   @RHF iter   8:  -653.41779539310380   -2.54102e-07   5.58806e-07 DIIS
   @RHF iter   9:  -653.41779542722020   -3.41164e-08   1.95514e-07 DIIS
   @RHF iter  10:  -653.41779543184248   -4.62228e-09   7.06800e-08 DIIS
   @RHF iter  11:  -653.41779543286543   -1.02295e-09   3.25171e-08 DIIS
   @RHF iter  12:  -653.41779543311645   -2.51021e-10   1.81221e-08 DIIS
   @RHF iter  13:  -653.41779543320592   -8.94715e-11   6.72323e-09 DIIS
   @RHF iter  14:  -653.41779543321206   -6.13909e-12   1.96017e-09 DIIS
   @RHF iter  15:  -653.41779543322116   -9.09495e-12   6.02717e-10 DIIS
   @RHF iter  16:  -653.41779543321377    7.38964e-12   2.63664e-10 DIIS
   @RHF iter  17:  -653.41779543321468   -9.09495e-13   1.08238e-10 DIIS
   @RHF iter  18:  -653.41779543321377    9.09495e-13   5.21939e-11 DIIS
  Energy and wave function converged.

  ==> Post-Iterations <==

    Orbital Energies [Eh]
    ---------------------

    Doubly Occupied:

       1A    -20.583495     2A    -11.300777     3A    -11.242169
       4A    -11.241459     5A    -11.239996     6A    -11.236649
       7A    -11.235016     8A    -11.234744     9A    -11.233478
      10A    -11.232508    11A    -11.231714    12A    -11.230794
      13A    -11.230453    14A    -11.230305    15A    -11.229944
      16A    -11.224430    17A     -1.402007    18A     -1.149790
      19A     -1.148703    20A     -1.056627    21A     -1.040725
      22A     -1.017293    23A     -1.010212    24A     -0.977251
      25A     -0.929805    26A     -0.861441    27A     -0.844502
      28A     -0.823160    29A     -0.795599    30A     -0.791827
      31A     -0.732568    32A     -0.689945    33A     -0.671807
      34A     -0.646524    35A     -0.630609    36A     -0.628161
      37A     -0.613782    38A     -0.599072    39A     -0.586551
      40A     -0.585073    41A     -0.582351    42A     -0.576366
      43A     -0.571510    44A     -0.560380    45A     -0.546480
      46A     -0.533598    47A     -0.519062    48A     -0.498698
      49A     -0.484813    50A     -0.484768    51A     -0.481307
      52A     -0.479766    53A     -0.471816    54A     -0.463450
      55A     -0.338682    56A     -0.331278    57A     -0.320228
      58A     -0.301298

    Virtual:

      59A      0.128471    60A      0.134479    61A      0.140201
      62A      0.152183    63A      0.178219    64A      0.179416
      65A      0.190040    66A      0.204111    67A      0.205863
      68A      0.212577    69A      0.225003    70A      0.232704
      71A      0.249787    72A      0.252911    73A      0.259239
      74A      0.263998    75A      0.274459    76A      0.284874
      77A      0.298426    78A      0.306416    79A      0.307677
      80A      0.326210    81A      0.356735    82A      0.365627
      83A      0.373676    84A      0.403440    85A      0.412920
      86A      0.426051    87A      0.445797    88A      0.458483
      89A      0.472871    90A      0.484068    91A      0.487928
      92A      0.491301    93A      0.508405    94A      0.537746
      95A      0.569496    96A      0.595531    97A      0.610476
      98A      0.611970    99A      0.632852   100A      0.643877
     101A      0.648315   102A      0.659930   103A      0.675627
     104A      0.690601   105A      0.694210   106A      0.696876
     107A      0.700044   108A      0.710347   109A      0.716378
     110A      0.720382   111A      0.729728   112A      0.734992
     113A      0.735971   114A      0.741223   115A      0.745045
     116A      0.749855   117A      0.757590   118A      0.764369
     119A      0.775047   120A      0.780216   121A      0.792828
     122A      0.801127   123A      0.808234   124A      0.822526
     125A      0.830001   126A      0.841274   127A      0.853333
     128A      0.863917   129A      0.869702   130A      0.872120
     131A      0.872540   132A      0.877658   133A      0.881930
     134A      0.885608   135A      0.891971   136A      0.898490
     137A      0.902701   138A      0.916678   139A      0.919016
     140A      0.925709   141A      0.929090   142A      0.936082
     143A      0.938252   144A      0.946676   145A      0.959021
     146A      0.962893   147A      0.979525   148A      0.985965
     149A      0.991600   150A      1.021075   151A      1.029928
     152A      1.042545   153A      1.065956   154A      1.085978
     155A      1.123800   156A      1.129943   157A      1.141294
     158A      1.143939   159A      1.146334   160A      1.153997
     161A      1.167376   162A      1.177269   163A      1.189611
     164A      1.199477   165A      1.234823   166A      1.241802
     167A      1.244583   168A      1.249038   169A      1.252526
     170A      1.266115   171A      1.285116   172A      1.290557
     173A      1.292472   174A      1.302925   175A      1.304111
     176A      1.304905   177A      1.315485   178A      1.318858
     179A      1.332319   180A      1.349121   181A      1.358587
     182A      1.374327   183A      1.412664   184A      1.430491
     185A      1.442975   186A      1.494873   187A      1.502920
     188A      1.516061   189A      1.520782   190A      1.539706
     191A      1.549147   192A      1.588807   193A      1.609064
     194A      1.618834   195A      1.642797   196A      1.671281
     197A      1.683530   198A      1.694714   199A      1.709946
     200A      1.718003   201A      1.732603   202A      1.735383
     203A      1.748173   204A      1.756004   205A      1.766422
     206A      1.787374   207A      1.794326   208A      1.808965
     209A      1.827933   210A      1.842877   211A      1.857010
     212A      1.871950   213A      1.879819   214A      1.887210
     215A      1.892588   216A      1.898587   217A      1.907058
     218A      1.909367   219A      1.911652   220A      1.914312
     221A      1.920528   222A      1.923821   223A      1.935508
     224A      1.939001   225A      1.944126   226A      1.951715
     227A      1.958488   228A      1.969811   229A      1.977024
     230A      1.980003   231A      1.983293   232A      1.995297
     233A      2.001507   234A      2.017481   235A      2.028286
     236A      2.036662   237A      2.043201   238A      2.049689
     239A      2.058007   240A      2.069351   241A      2.071864
     242A      2.085850   243A      2.103451   244A      2.118426
     245A      2.123520   246A      2.138063   247A      2.141428
     248A      2.155378   249A      2.167830   250A      2.177603
     251A      2.187853   252A      2.194061   253A      2.225625
     254A      2.241255   255A      2.250353   256A      2.256052
     257A      2.268440   258A      2.275571   259A      2.293231
     260A      2.297228   261A      2.305827   262A      2.314819
     263A      2.318014   264A      2.328791   265A      2.348092
     266A      2.365208   267A      2.435247   268A      2.451795
     269A      2.458209   270A      2.461759   271A      2.470206
     272A      2.476762   273A      2.503707   274A      2.524512
     275A      2.533706   276A      2.537517   277A      2.552047
     278A      2.570053   279A      2.617452   280A      2.632405
     281A      2.644682   282A      2.736553   283A      2.747791
     284A      2.765033   285A      2.766387   286A      2.774383
     287A      2.785947   288A      2.789882   289A      2.811871
     290A      2.826095   291A      2.853002   292A      2.861868
     293A      2.870213   294A      2.880373   295A      2.910733
     296A      2.946723   297A      2.974875   298A      2.980645
     299A      3.002463   300A      3.006449   301A      3.023717
     302A      3.087781   303A      3.149477   304A      3.157023
     305A      3.195112   306A      3.251537   307A      3.276777
     308A      3.298134   309A      3.347343   310A      3.575127
     311A      3.669774   312A      3.950979   313A      3.969026
     314A      4.190851

    Final Occupation by Irrep:
              A
    DOCC [    58 ]

  @RHF Final Energy:  -653.41779543321377

   => Energetics <=

    Nuclear Repulsion Energy =            932.4697530550042757
    One-Electron Energy =               -2735.9014643902896751
    Two-Electron Energy =                1150.0139159020716306
    Total Energy =                       -653.4177954332137688

Computation Completed

Properties will be evaluated at   0.000000,   0.000000,   0.000000 [a0]

Properties computed using the SCF density matrix

  Nuclear Dipole Moment: [e a0]
     X:    12.7544      Y:    -6.9809      Z:    -3.9628

  Electronic Dipole Moment: [e a0]
     X:   -12.6154      Y:     6.4317      Z:     4.1860

  Dipole Moment: [e a0]
     X:     0.1390      Y:    -0.5492      Z:     0.2231     Total:     0.6089

  Dipole Moment: [D]
     X:     0.3533      Y:    -1.3960      Z:     0.5672     Total:     1.5477

*** tstop() called on ds3 at Tue Apr 28 12:25:39 2020
Module time:
	user time   =     457.19 seconds =       7.62 minutes
	system time =     190.25 seconds =       3.17 minutes
	total time  =       1176 seconds =      19.60 minutes
Total time:
	user time   =     457.19 seconds =       7.62 minutes
	system time =     190.25 seconds =       3.17 minutes
	total time  =       1176 seconds =      19.60 minutes
                                     G D M A

                                 by Anthony Stone

                           version 2.2.06, 22 June 2011

               Distributed Multipoles from Gaussian wavefunctions

Starting at 12:25:39 on 28 Apr 2020

Using SCF density matrix from file ./SSI/SSI-120TYR-141PHE-1-dimer.test.2633.fchk

                         Distributed Multipole Analysis

Standard DMA

Positions and radii in angstrom
Multipole moments in atomic units, ea_0^k for rank k

C          x = -0.848511  y = -0.721234  z = -1.037253 angstrom
           Maximum rank =  0   Radius =  0.650 angstrom
                   Q00  =  -0.037487

C          x = -0.883511  y = -1.928234  z = -1.984253 angstrom
           Maximum rank =  0   Radius =  0.650 angstrom
                   Q00  =  -0.239321

C          x = -2.209511  y = -0.189234  z = -0.614253 angstrom
           Maximum rank =  0   Radius =  0.650 angstrom
                   Q00  =  -0.138808

C          x = -3.021511  y = -0.919234  z =  0.260747 angstrom
           Maximum rank =  0   Radius =  0.650 angstrom
                   Q00  =  -0.031517

C          x = -2.655511  y =  1.060766  z = -1.059253 angstrom
           Maximum rank =  0   Radius =  0.650 angstrom
                   Q00  =   0.036375

C          x = -4.261511  y = -0.422234  z =  0.669747 angstrom
           Maximum rank =  0   Radius =  0.650 angstrom
                   Q00  =  -0.181503

C          x = -3.889511  y =  1.567766  z = -0.651253 angstrom
           Maximum rank =  0   Radius =  0.650 angstrom
                   Q00  =  -0.123591

C          x = -4.692511  y =  0.821766  z =  0.209747 angstrom
           Maximum rank =  0   Radius =  0.650 angstrom
                   Q00  =   0.318603

O          x = -5.902511  y =  1.299766  z =  0.604747 angstrom
           Maximum rank =  0   Radius =  0.650 angstrom
                   Q00  =  -0.671362

H          x = -0.311511  y = -1.009234  z = -0.135253 angstrom
           Maximum rank =  0   Radius =  0.325 angstrom
                   Q00  =   0.060240

H          x = -0.289511  y =  0.087766  z = -1.508253 angstrom
           Maximum rank =  0   Radius =  0.325 angstrom
                   Q00  =   0.063899

H          x = -1.167511  y = -2.801234  z = -1.402253 angstrom
           Maximum rank =  0   Radius =  0.325 angstrom
                   Q00  =   0.080498

H          x = -2.684511  y = -1.881234  z =  0.627747 angstrom
           Maximum rank =  0   Radius =  0.325 angstrom
                   Q00  =   0.069256

H          x = -2.036511  y =  1.648766  z = -1.723253 angstrom
           Maximum rank =  0   Radius =  0.325 angstrom
                   Q00  =   0.066376

H          x = -4.879511  y = -0.997234  z =  1.343747 angstrom
           Maximum rank =  0   Radius =  0.325 angstrom
                   Q00  =   0.072109

H          x = -4.228511  y =  2.533766  z = -0.994253 angstrom
           Maximum rank =  0   Radius =  0.325 angstrom
                   Q00  =   0.081585

H          x = -6.368511  y =  0.674766  z =  1.167747 angstrom
           Maximum rank =  0   Radius =  0.325 angstrom
                   Q00  =   0.406329

H          x =  0.096557  y = -2.079362  z = -2.460303 angstrom
           Maximum rank =  0   Radius =  0.325 angstrom
                   Q00  =   0.083378

H          x = -1.625088  y = -1.769740  z = -2.781083 angstrom
           Maximum rank =  0   Radius =  0.325 angstrom
                   Q00  =   0.086393

C          x =  6.495489  y = -0.833234  z =  0.043747 angstrom
           Maximum rank =  0   Radius =  0.650 angstrom
                   Q00  =  -0.199384

C          x =  2.696489  y = -0.504234  z = -0.045253 angstrom
           Maximum rank =  0   Radius =  0.650 angstrom
                   Q00  =  -0.067368

C          x =  2.474489  y =  0.497766  z =  0.906747 angstrom
           Maximum rank =  0   Radius =  0.650 angstrom
                   Q00  =  -0.091471

C          x =  3.995489  y = -0.921234  z = -0.324253 angstrom
           Maximum rank =  0   Radius =  0.650 angstrom
                   Q00  =   0.002263

C          x =  5.091489  y = -0.340234  z =  0.321747 angstrom
           Maximum rank =  0   Radius =  0.650 angstrom
                   Q00  =  -0.104541

C          x =  3.565489  y =  1.073766  z =  1.570747 angstrom
           Maximum rank =  0   Radius =  0.650 angstrom
                   Q00  =  -0.060873

C          x =  4.865489  y =  0.650766  z =  1.281747 angstrom
           Maximum rank =  0   Radius =  0.650 angstrom
                   Q00  =  -0.085927

H          x =  1.869489  y = -0.963234  z = -0.560253 angstrom
           Maximum rank =  0   Radius =  0.325 angstrom
                   Q00  =   0.060975

H          x =  1.466489  y =  0.812766  z =  1.126747 angstrom
           Maximum rank =  0   Radius =  0.325 angstrom
                   Q00  =   0.064187

H          x =  4.151489  y = -1.705234  z = -1.047253 angstrom
           Maximum rank =  0   Radius =  0.325 angstrom
                   Q00  =   0.053860

H          x =  3.394489  y =  1.846766  z =  2.305747 angstrom
           Maximum rank =  0   Radius =  0.325 angstrom
                   Q00  =   0.066561

H          x =  6.450489  y = -1.920234  z = -0.013253 angstrom
           Maximum rank =  0   Radius =  0.325 angstrom
                   Q00  =   0.097727

H          x =  7.137489  y = -0.589234  z =  0.891747 angstrom
           Maximum rank =  0   Radius =  0.325 angstrom
                   Q00  =   0.097248

H          x =  5.699489  y =  1.097766  z =  1.803747 angstrom
           Maximum rank =  0   Radius =  0.325 angstrom
                   Q00  =   0.059551

H          x =  6.960555  y = -0.439607  z = -0.872093 angstrom
           Maximum rank =  0   Radius =  0.325 angstrom
                   Q00  =   0.105739

Total multipoles referred to origin at
           x =   0.000000,  y =    0.000000,  z =    0.000000 angstrom
                   Q00  =  -0.000000

Finished at 12:25:39 on 28 Apr 2020

  DMA results are available in the Python driver through the
	  variable('DMA DISTRIBUTED MULTIPOLES')
  and
	  variable('DMA TOTAL MULTIPOLES')
  commands.

    Psi4 stopped on: Tuesday, 28 April 2020 12:25PM
    Psi4 wall time for execution: 0:19:36.79

*** Psi4 exiting successfully. Buy a developer a beer!
