                               Psi4 1.3.2 release

  ==> Input File <==

--------------------------------------------------------------------------
import numpy as np
set {scf_type pk
basis cc-pvdz
d_convergence 10
gdma_switch   0
gdma_limit    0
gdma_origin   [ 0.0,  0.0,  0.0 ]
}
molecule test {
    units Angstrom
    0 1
    --
    0 1
    C               -2.984148627963783     2.063008076318309     1.527960651236648
    C               -1.983148627963783     0.461008076318309    -0.052039348763352
    N               -1.012148627963783     0.131008076318309    -0.875039348763352
    N               -1.986148627963783     1.647008076318309     0.535960651236648
    N               -2.951148627963783    -0.415991923681691     0.146960651236648
    H               -0.249148627963783     0.763008076318309    -1.057039348763352
    H               -0.961148627963783    -0.793991923681691    -1.271039348763352
    H               -1.285148627963783     2.321008076318309     0.260960651236648
    H               -3.887148627963783    -0.057991923681691     0.209960651236648
    H               -2.860148627963783    -1.331991923681691    -0.269039348763352
    H               -3.627148627963783     2.840008076318309     1.113960651236648
    H               -2.450148627963783     2.471008076318309     2.387960651236648
    H               -3.596428627963783     1.211518076318309     1.859730651236648
    C                3.777851372036217    -1.925991923681691    -0.387039348763352
    C                2.691851372036217    -0.915991923681691    -0.317039348763352
    O                1.503851372036217    -1.278991923681691    -0.312039348763352
    O                3.005851372036217     0.273008076318309    -0.226039348763352
    H                3.713851372036217    -2.467991923681691    -1.334039348763352
    H                3.623851372036217    -2.643991923681691     0.419960651236648
    H                4.781311372036217    -1.483351923681691    -0.302519348763352

}
e, wfn = energy('scf', return_wfn=True)
gdma(wfn)
dmavals = variable('DMA DISTRIBUTED MULTIPOLES')
charges = np.array(dmavals)
print(charges)
np.save('SSI-001ARG-015GLU-1-dimer.npy', np.array(charges))--------------------------------------------------------------------------

*** tstart() called on ds3
*** at Tue Apr 28 13:08:53 2020

   => Loading Basis Set <=

    Name: CC-PVDZ
    Role: ORBITAL
    Keyword: BASIS
    atoms 1-2, 14-15  entry C          line   138 file /theoryfs2/ds/metcalf/miniconda2/envs/tf2gpu/share/psi4/basis/cc-pvdz.gbs
    atoms 3-5         entry N          line   168 file /theoryfs2/ds/metcalf/miniconda2/envs/tf2gpu/share/psi4/basis/cc-pvdz.gbs
    atoms 6-13, 18-20 entry H          line    22 file /theoryfs2/ds/metcalf/miniconda2/envs/tf2gpu/share/psi4/basis/cc-pvdz.gbs
    atoms 16-17       entry O          line   198 file /theoryfs2/ds/metcalf/miniconda2/envs/tf2gpu/share/psi4/basis/cc-pvdz.gbs

         ---------------------------------------------------------
                                   SCF
               by Justin Turney, Rob Parrish, Andy Simmonett
                          and Daniel G. A. Smith
                              RHF Reference
                        1 Threads,    500 MiB Core
         ---------------------------------------------------------

  ==> Geometry <==

    Molecular point group: c1
    Full point group: C1

    Geometry (in Angstrom), charge = 0, multiplicity = 1:

       Center              X                  Y                   Z               Mass
    ------------   -----------------  -----------------  -----------------  -----------------
         C           -2.984148627964     2.063008076318     1.527960651237    12.000000000000
         C           -1.983148627964     0.461008076318    -0.052039348763    12.000000000000
         N           -1.012148627964     0.131008076318    -0.875039348763    14.003074004430
         N           -1.986148627964     1.647008076318     0.535960651237    14.003074004430
         N           -2.951148627964    -0.415991923682     0.146960651237    14.003074004430
         H           -0.249148627964     0.763008076318    -1.057039348763     1.007825032230
         H           -0.961148627964    -0.793991923682    -1.271039348763     1.007825032230
         H           -1.285148627964     2.321008076318     0.260960651237     1.007825032230
         H           -3.887148627964    -0.057991923682     0.209960651237     1.007825032230
         H           -2.860148627964    -1.331991923682    -0.269039348763     1.007825032230
         H           -3.627148627964     2.840008076318     1.113960651237     1.007825032230
         H           -2.450148627964     2.471008076318     2.387960651237     1.007825032230
         H           -3.596428627964     1.211518076318     1.859730651237     1.007825032230
         C            3.777851372036    -1.925991923682    -0.387039348763    12.000000000000
         C            2.691851372036    -0.915991923682    -0.317039348763    12.000000000000
         O            1.503851372036    -1.278991923682    -0.312039348763    15.994914619570
         O            3.005851372036     0.273008076318    -0.226039348763    15.994914619570
         H            3.713851372036    -2.467991923682    -1.334039348763     1.007825032230
         H            3.623851372036    -2.643991923682     0.419960651237     1.007825032230
         H            4.781311372036    -1.483351923682    -0.302519348763     1.007825032230

  Running in c1 symmetry.

  Rotational constants: A =      0.11530  B =      0.01596  C =      0.01474 [cm^-1]
  Rotational constants: A =   3456.66159  B =    478.59389  C =    441.88167 [MHz]
  Nuclear repulsion =  437.829229220153820

  Charge       = 0
  Multiplicity = 1
  Electrons    = 72
  Nalpha       = 36
  Nbeta        = 36

  ==> Algorithm <==

  SCF Algorithm Type is PK.
  DIIS enabled.
  MOM disabled.
  Fractional occupation disabled.
  Guess Type is SAD.
  Energy threshold   = 1.00e-06
  Density threshold  = 1.00e-10
  Integral threshold = 0.00e+00

  ==> Primary Basis <==

  Basis Set: CC-PVDZ
    Blend: CC-PVDZ
    Number of shells: 87
    Number of basis function: 181
    Number of Cartesian functions: 190
    Spherical Harmonics?: true
    Max angular momentum: 2

  ==> Pre-Iterations <==

   -------------------------------------------------------
    Irrep   Nso     Nmo     Nalpha   Nbeta   Ndocc  Nsocc
   -------------------------------------------------------
     A        181     181       0       0       0       0
   -------------------------------------------------------
    Total     181     181      36      36      36       0
   -------------------------------------------------------

  ==> Integral Setup <==

  Using integral reordering PK algorithm.
  Sizing the integral batches needed.
  Building batch lookup table.
   Calculation information:
      Number of atoms:                  20
      Number of AO shells:              87
      Number of primitives:            253
      Number of atomic orbitals:       190
      Number of basis functions:       181

      Integral cutoff                 1.00e-12
      Number of threads:                 1

	Batch   1 pq = [       0,    9405] index = [             0,44231715] size =     44231715
	Batch   2 pq = [    9405,   13301] index = [      44231715,88464951] size =     44233236
	Batch   3 pq = [   13301,   16471] index = [      88464951,135655156] size =     47190205
  Task number: 13
  Buffer size: 11059200
  Buffer per thread: 2
  We computed 4887463 shell quartets total.
  Whereas there are 7328706 unique shell quartets.

  ==> DiskJK: Disk-Based J/K Matrices <==

    J tasked:                  Yes
    K tasked:                  Yes
    wK tasked:                  No
    Memory [MiB]:              375
    Schwarz Cutoff:          1E-12

    OpenMP threads:              1

  Minimum eigenvalue in the overlap matrix is 4.0261948154E-03.
  Using Symmetric Orthogonalization.

  SCF Guess: Superposition of Atomic Densities via on-the-fly atomic UHF.

  ==> Iterations <==

                        Total Energy        Delta E     RMS |[F,P]|

   @RHF iter SAD:  -469.74560247883761   -4.69746e+02   0.00000e+00
   @RHF iter   1:  -470.64152878077334   -8.95926e-01   4.34385e-03 DIIS
   @RHF iter   2:  -470.87941433388266   -2.37886e-01   2.24787e-03 DIIS
   @RHF iter   3:  -470.93914076574345   -5.97264e-02   3.84081e-04 DIIS
   @RHF iter   4:  -470.94234489206980   -3.20413e-03   1.34073e-04 DIIS
   @RHF iter   5:  -470.94271714104326   -3.72249e-04   2.41745e-05 DIIS
   @RHF iter   6:  -470.94273727671197   -2.01357e-05   9.37429e-06 DIIS
   @RHF iter   7:  -470.94273932344998   -2.04674e-06   2.96678e-06 DIIS
   @RHF iter   8:  -470.94273970437456   -3.80925e-07   1.44179e-06 DIIS
   @RHF iter   9:  -470.94273976299303   -5.86185e-08   4.54998e-07 DIIS
   @RHF iter  10:  -470.94273977437047   -1.13774e-08   1.67211e-07 DIIS
   @RHF iter  11:  -470.94273977569839   -1.32792e-09   3.96584e-08 DIIS
   @RHF iter  12:  -470.94273977577421   -7.58291e-11   1.40059e-08 DIIS
   @RHF iter  13:  -470.94273977578007   -5.85487e-12   4.40472e-09 DIIS
   @RHF iter  14:  -470.94273977578132   -1.25056e-12   1.28663e-09 DIIS
   @RHF iter  15:  -470.94273977578143   -1.13687e-13   5.57384e-10 DIIS
   @RHF iter  16:  -470.94273977578433   -2.89901e-12   1.94575e-10 DIIS
   @RHF iter  17:  -470.94273977578285    1.47793e-12   6.19470e-11 DIIS
  Energy and wave function converged.

  ==> Post-Iterations <==

    Orbital Energies [Eh]
    ---------------------

    Doubly Occupied:

       1A    -20.363165     2A    -20.356931     3A    -15.673894
       4A    -15.670169     5A    -15.646676     6A    -11.465151
       7A    -11.342648     8A    -11.210340     9A    -11.134777
      10A     -1.425785    11A     -1.290711    12A     -1.264230
      13A     -1.260359    14A     -1.143268    15A     -1.033061
      16A     -0.921595    17A     -0.892406    18A     -0.854192
      19A     -0.811515    20A     -0.754642    21A     -0.725256
      22A     -0.698256    23A     -0.681079    24A     -0.633625
      25A     -0.624265    26A     -0.600364    27A     -0.512556
      28A     -0.507384    29A     -0.504675    30A     -0.498789
      31A     -0.463028    32A     -0.438124    33A     -0.405323
      34A     -0.291562    35A     -0.272314    36A     -0.268006

    Virtual:

      37A      0.102286    38A      0.134658    39A      0.144845
      40A      0.146075    41A      0.190182    42A      0.208225
      43A      0.213203    44A      0.222848    45A      0.247242
      46A      0.274837    47A      0.300635    48A      0.311979
      49A      0.337420    50A      0.395396    51A      0.398682
      52A      0.445655    53A      0.464806    54A      0.493928
      55A      0.531064    56A      0.563626    57A      0.590139
      58A      0.613005    59A      0.621109    60A      0.648648
      61A      0.665014    62A      0.674730    63A      0.692274
      64A      0.729114    65A      0.737919    66A      0.759457
      67A      0.779761    68A      0.787483    69A      0.801100
      70A      0.808591    71A      0.841878    72A      0.854362
      73A      0.860344    74A      0.879098    75A      0.894538
      76A      0.928981    77A      0.933737    78A      0.944547
      79A      0.948776    80A      0.956534    81A      0.975620
      82A      0.990788    83A      0.996377    84A      1.024553
      85A      1.049280    86A      1.064615    87A      1.105365
      88A      1.126000    89A      1.139024    90A      1.225830
      91A      1.233752    92A      1.242212    93A      1.262959
      94A      1.265181    95A      1.292451    96A      1.323270
      97A      1.356217    98A      1.379603    99A      1.418923
     100A      1.456510   101A      1.464568   102A      1.477940
     103A      1.488571   104A      1.525010   105A      1.551077
     106A      1.557401   107A      1.591562   108A      1.619426
     109A      1.634795   110A      1.640883   111A      1.641614
     112A      1.686625   113A      1.750931   114A      1.757477
     115A      1.760125   116A      1.784233   117A      1.798161
     118A      1.823969   119A      1.853241   120A      1.869875
     121A      1.881488   122A      1.903824   123A      1.908293
     124A      1.946047   125A      1.960349   126A      2.004327
     127A      2.011226   128A      2.017708   129A      2.023391
     130A      2.066748   131A      2.105740   132A      2.132044
     133A      2.136403   134A      2.154419   135A      2.191176
     136A      2.202382   137A      2.218235   138A      2.222343
     139A      2.279191   140A      2.321404   141A      2.338079
     142A      2.348998   143A      2.412530   144A      2.425902
     145A      2.435278   146A      2.460925   147A      2.477928
     148A      2.506600   149A      2.564378   150A      2.579800
     151A      2.605370   152A      2.650725   153A      2.659115
     154A      2.687341   155A      2.719129   156A      2.724073
     157A      2.764410   158A      2.828423   159A      2.830052
     160A      2.864762   161A      2.875673   162A      2.893875
     163A      2.904203   164A      2.937486   165A      2.974968
     166A      3.019674   167A      3.136123   168A      3.152532
     169A      3.178121   170A      3.191689   171A      3.194563
     172A      3.236182   173A      3.266261   174A      3.558156
     175A      3.682796   176A      3.715772   177A      3.731982
     178A      3.739536   179A      3.987070   180A      3.997926
     181A      4.133809

    Final Occupation by Irrep:
              A
    DOCC [    36 ]

  @RHF Final Energy:  -470.94273977578285

   => Energetics <=

    Nuclear Repulsion Energy =            437.8292292201538203
    One-Electron Energy =               -1512.2636953717467350
    Two-Electron Energy =                 603.4917263758100034
    Total Energy =                       -470.9427397757829112

Computation Completed

Properties will be evaluated at   0.000000,   0.000000,   0.000000 [a0]

Properties computed using the SCF density matrix

  Nuclear Dipole Moment: [e a0]
     X:    -6.3335      Y:     0.7667      Z:     1.8906

  Electronic Dipole Moment: [e a0]
     X:    -0.7468      Y:     0.8910      Z:    -1.7316

  Dipole Moment: [e a0]
     X:    -7.0802      Y:     1.6578      Z:     0.1590     Total:     7.2734

  Dipole Moment: [D]
     X:   -17.9961      Y:     4.2136      Z:     0.4041     Total:    18.4872

*** tstop() called on ds3 at Tue Apr 28 13:11:57 2020
Module time:
	user time   =      37.64 seconds =       0.63 minutes
	system time =      19.57 seconds =       0.33 minutes
	total time  =        184 seconds =       3.07 minutes
Total time:
	user time   =      37.64 seconds =       0.63 minutes
	system time =      19.57 seconds =       0.33 minutes
	total time  =        184 seconds =       3.07 minutes
                                     G D M A

                                 by Anthony Stone

                           version 2.2.06, 22 June 2011

               Distributed Multipoles from Gaussian wavefunctions

Starting at 13:11:57 on 28 Apr 2020

Using SCF density matrix from file ./SSI/SSI-001ARG-015GLU-1-dimer.test.15763.fchk

                         Distributed Multipole Analysis

Standard DMA

Positions and radii in angstrom
Multipole moments in atomic units, ea_0^k for rank k

C          x = -2.984149  y =  2.063008  z =  1.527961 angstrom
           Maximum rank =  0   Radius =  0.650 angstrom
                   Q00  =  -0.118656

C          x = -1.983149  y =  0.461008  z = -0.052039 angstrom
           Maximum rank =  0   Radius =  0.650 angstrom
                   Q00  =   1.055747

N          x = -1.012149  y =  0.131008  z = -0.875039 angstrom
           Maximum rank =  0   Radius =  0.650 angstrom
                   Q00  =  -0.553693

N          x = -1.986149  y =  1.647008  z =  0.535961 angstrom
           Maximum rank =  0   Radius =  0.650 angstrom
                   Q00  =  -0.492957

N          x = -2.951149  y = -0.415992  z =  0.146961 angstrom
           Maximum rank =  0   Radius =  0.650 angstrom
                   Q00  =  -0.548332

H          x = -0.249149  y =  0.763008  z = -1.057039 angstrom
           Maximum rank =  0   Radius =  0.325 angstrom
                   Q00  =   0.276878

H          x = -0.961149  y = -0.793992  z = -1.271039 angstrom
           Maximum rank =  0   Radius =  0.325 angstrom
                   Q00  =   0.275827

H          x = -1.285149  y =  2.321008  z =  0.260961 angstrom
           Maximum rank =  0   Radius =  0.325 angstrom
                   Q00  =   0.242387

H          x = -3.887149  y = -0.057992  z =  0.209961 angstrom
           Maximum rank =  0   Radius =  0.325 angstrom
                   Q00  =   0.230808

H          x = -2.860149  y = -1.331992  z = -0.269039 angstrom
           Maximum rank =  0   Radius =  0.325 angstrom
                   Q00  =   0.247084

H          x = -3.627149  y =  2.840008  z =  1.113961 angstrom
           Maximum rank =  0   Radius =  0.325 angstrom
                   Q00  =   0.112073

H          x = -2.450149  y =  2.471008  z =  2.387961 angstrom
           Maximum rank =  0   Radius =  0.325 angstrom
                   Q00  =   0.140881

H          x = -3.596429  y =  1.211518  z =  1.859731 angstrom
           Maximum rank =  0   Radius =  0.325 angstrom
                   Q00  =   0.119721

C          x =  3.777851  y = -1.925992  z = -0.387039 angstrom
           Maximum rank =  0   Radius =  0.650 angstrom
                   Q00  =  -0.273330

C          x =  2.691851  y = -0.915992  z = -0.317039 angstrom
           Maximum rank =  0   Radius =  0.650 angstrom
                   Q00  =   0.973194

O          x =  1.503851  y = -1.278992  z = -0.312039 angstrom
           Maximum rank =  0   Radius =  0.650 angstrom
                   Q00  =  -0.985005

O          x =  3.005851  y =  0.273008  z = -0.226039 angstrom
           Maximum rank =  0   Radius =  0.650 angstrom
                   Q00  =  -0.925167

H          x =  3.713851  y = -2.467992  z = -1.334039 angstrom
           Maximum rank =  0   Radius =  0.325 angstrom
                   Q00  =   0.074411

H          x =  3.623851  y = -2.643992  z =  0.419961 angstrom
           Maximum rank =  0   Radius =  0.325 angstrom
                   Q00  =   0.075875

H          x =  4.781311  y = -1.483352  z = -0.302519 angstrom
           Maximum rank =  0   Radius =  0.325 angstrom
                   Q00  =   0.072255

Total multipoles referred to origin at
           x =   0.000000,  y =    0.000000,  z =    0.000000 angstrom
                   Q00  =  -0.000000

Finished at 13:11:58 on 28 Apr 2020

  DMA results are available in the Python driver through the
	  variable('DMA DISTRIBUTED MULTIPOLES')
  and
	  variable('DMA TOTAL MULTIPOLES')
  commands.

    Psi4 stopped on: Tuesday, 28 April 2020 01:11PM
    Psi4 wall time for execution: 0:03:04.36

*** Psi4 exiting successfully. Buy a developer a beer!
