                               Psi4 1.3.2 release

  ==> Input File <==

--------------------------------------------------------------------------
import numpy as np
set {scf_type pk
basis cc-pvdz
d_convergence 10
gdma_switch   0
gdma_limit    0
gdma_origin   [ 0.0,  0.0,  0.0 ]
}
molecule test {
    units Angstrom
    0 1
    --
    0 1
    C               -0.566475361810501    -2.827106799519341    -0.999385713605772
    C               -1.006475361810501    -0.682106799519341     0.338614286394228
    C               -0.750475361810501    -2.057106799519342     0.286614286394228
    C               -1.152475361810501    -0.039106799519341     1.575614286394228
    C               -1.022475361810501    -0.760106799519341     2.762614286394228
    C               -0.612475361810501    -2.758106799519342     1.485614286394229
    C               -0.753475361810501    -2.122106799519341     2.713614286394229
    H               -1.068475361810501    -0.094106799519341    -0.549385713605772
    H               -1.358475361810501     1.021893200480659     1.612614286394229
    H               -1.176475361810501    -3.730106799519342    -0.944385713605772
    H                0.476524638189499    -3.132106799519341    -1.036385713605771
    H               -1.135475361810501    -0.262106799519341     3.716614286394228
    H               -0.406475361810501    -3.819106799519342     1.463614286394228
    H               -0.678475361810501    -2.695106799519341     3.623614286394229
    H               -0.790991961810501    -2.299886799519341    -1.938335713605772
    C                0.573524638189499     1.895893200480659    -1.691385713605772
    C                0.347524638189499     2.064893200480658    -3.203385713605772
    S                1.949524638189499     2.841893200480659    -0.998385713605772
    H               -0.343475361810501     2.151893200480659    -1.161385713605772
    H                0.774524638189499     0.840893200480659    -1.506385713605771
    H               -0.307475361810501     1.272893200480659    -3.557385713605772
    H                1.887524638189499     2.313893200480658     0.228614286394228
    H                1.288701638189499     1.995763200480659    -3.768545713605772
    H               -0.149103861810501     3.020343200480659    -3.428065713605772

}
e, wfn = energy('scf', return_wfn=True)
gdma(wfn)
dmavals = variable('DMA DISTRIBUTED MULTIPOLES')
charges = np.array(dmavals)
print(charges)
np.save('SSI-012PHE-166CYS-1-dimer.npy', np.array(charges))--------------------------------------------------------------------------

*** tstart() called on ds3
*** at Mon Apr 27 07:39:26 2020

   => Loading Basis Set <=

    Name: CC-PVDZ
    Role: ORBITAL
    Keyword: BASIS
    atoms 1-7, 16-17  entry C          line   138 file /theoryfs2/ds/metcalf/miniconda2/envs/tf2gpu/share/psi4/basis/cc-pvdz.gbs
    atoms 8-15, 19-24 entry H          line    22 file /theoryfs2/ds/metcalf/miniconda2/envs/tf2gpu/share/psi4/basis/cc-pvdz.gbs
    atoms 18          entry S          line   598 file /theoryfs2/ds/metcalf/miniconda2/envs/tf2gpu/share/psi4/basis/cc-pvdz.gbs

         ---------------------------------------------------------
                                   SCF
               by Justin Turney, Rob Parrish, Andy Simmonett
                          and Daniel G. A. Smith
                              RHF Reference
                        1 Threads,    500 MiB Core
         ---------------------------------------------------------

  ==> Geometry <==

    Molecular point group: c1
    Full point group: C1

    Geometry (in Angstrom), charge = 0, multiplicity = 1:

       Center              X                  Y                   Z               Mass
    ------------   -----------------  -----------------  -----------------  -----------------
         C           -0.566475361811    -2.827106799519    -0.999385713606    12.000000000000
         C           -1.006475361811    -0.682106799519     0.338614286394    12.000000000000
         C           -0.750475361811    -2.057106799519     0.286614286394    12.000000000000
         C           -1.152475361811    -0.039106799519     1.575614286394    12.000000000000
         C           -1.022475361811    -0.760106799519     2.762614286394    12.000000000000
         C           -0.612475361811    -2.758106799519     1.485614286394    12.000000000000
         C           -0.753475361811    -2.122106799519     2.713614286394    12.000000000000
         H           -1.068475361811    -0.094106799519    -0.549385713606     1.007825032230
         H           -1.358475361811     1.021893200481     1.612614286394     1.007825032230
         H           -1.176475361811    -3.730106799519    -0.944385713606     1.007825032230
         H            0.476524638189    -3.132106799519    -1.036385713606     1.007825032230
         H           -1.135475361811    -0.262106799519     3.716614286394     1.007825032230
         H           -0.406475361811    -3.819106799519     1.463614286394     1.007825032230
         H           -0.678475361811    -2.695106799519     3.623614286394     1.007825032230
         H           -0.790991961811    -2.299886799519    -1.938335713606     1.007825032230
         C            0.573524638189     1.895893200481    -1.691385713606    12.000000000000
         C            0.347524638189     2.064893200481    -3.203385713606    12.000000000000
         S            1.949524638189     2.841893200481    -0.998385713606    31.972071174400
         H           -0.343475361811     2.151893200481    -1.161385713606     1.007825032230
         H            0.774524638189     0.840893200481    -1.506385713606     1.007825032230
         H           -0.307475361811     1.272893200481    -3.557385713606     1.007825032230
         H            1.887524638189     2.313893200481     0.228614286394     1.007825032230
         H            1.288701638189     1.995763200481    -3.768545713606     1.007825032230
         H           -0.149103861811     3.020343200481    -3.428065713606     1.007825032230

  Running in c1 symmetry.

  Rotational constants: A =      0.05285  B =      0.01405  C =      0.01206 [cm^-1]
  Rotational constants: A =   1584.47504  B =    421.22315  C =    361.50021 [MHz]
  Nuclear repulsion =  539.841061032638436

  Charge       = 0
  Multiplicity = 1
  Electrons    = 84
  Nalpha       = 42
  Nbeta        = 42

  ==> Algorithm <==

  SCF Algorithm Type is PK.
  DIIS enabled.
  MOM disabled.
  Fractional occupation disabled.
  Guess Type is SAD.
  Energy threshold   = 1.00e-06
  Density threshold  = 1.00e-10
  Integral threshold = 0.00e+00

  ==> Primary Basis <==

  Basis Set: CC-PVDZ
    Blend: CC-PVDZ
    Number of shells: 104
    Number of basis function: 214
    Number of Cartesian functions: 224
    Spherical Harmonics?: true
    Max angular momentum: 2

  ==> Pre-Iterations <==

   -------------------------------------------------------
    Irrep   Nso     Nmo     Nalpha   Nbeta   Ndocc  Nsocc
   -------------------------------------------------------
     A        214     214       0       0       0       0
   -------------------------------------------------------
    Total     214     214      42      42      42       0
   -------------------------------------------------------

  ==> Integral Setup <==

  Using integral reordering PK algorithm.
  Sizing the integral batches needed.
  Building batch lookup table.
   Calculation information:
      Number of atoms:                  24
      Number of AO shells:             104
      Number of primitives:            318
      Number of atomic orbitals:       224
      Number of basis functions:       214

      Integral cutoff                 1.00e-12
      Number of threads:                 1

	Batch   1 pq = [       0,    9405] index = [             0,44231715] size =     44231715
	Batch   2 pq = [    9405,   13301] index = [      44231715,88464951] size =     44233236
	Batch   3 pq = [   13301,   16290] index = [      88464951,132690195] size =     44225244
	Batch   4 pq = [   16290,   18810] index = [     132690195,176917455] size =     44227260
	Batch   5 pq = [   18810,   21030] index = [     176917455,221140965] size =     44223510
	Batch   6 pq = [   21030,   23005] index = [     221140965,264626515] size =     43485550
  Task number: 24
  Buffer size: 11059200
  Buffer per thread: 2
  We computed 12683898 shell quartets total.
  Whereas there are 14908530 unique shell quartets.

  ==> DiskJK: Disk-Based J/K Matrices <==

    J tasked:                  Yes
    K tasked:                  Yes
    wK tasked:                  No
    Memory [MiB]:              375
    Schwarz Cutoff:          1E-12

    OpenMP threads:              1

  Minimum eigenvalue in the overlap matrix is 3.0706899324E-04.
  Using Symmetric Orthogonalization.

  SCF Guess: Superposition of Atomic Densities via on-the-fly atomic UHF.

  ==> Iterations <==

                        Total Energy        Delta E     RMS |[F,P]|

   @RHF iter SAD:  -745.46516774495046   -7.45465e+02   0.00000e+00
   @RHF iter   1:  -746.29553784381358   -8.30370e-01   2.57677e-03 DIIS
   @RHF iter   2:  -746.48753374413332   -1.91996e-01   1.04056e-03 DIIS
   @RHF iter   3:  -746.51519615420750   -2.76624e-02   2.48986e-04 DIIS
   @RHF iter   4:  -746.51786153211754   -2.66538e-03   5.59999e-05 DIIS
   @RHF iter   5:  -746.51796339287375   -1.01861e-04   1.70611e-05 DIIS
   @RHF iter   6:  -746.51797282150710   -9.42863e-06   4.93706e-06 DIIS
   @RHF iter   7:  -746.51797373450950   -9.13002e-07   1.56678e-06 DIIS
   @RHF iter   8:  -746.51797384418694   -1.09677e-07   4.29471e-07 DIIS
   @RHF iter   9:  -746.51797386029386   -1.61069e-08   1.75093e-07 DIIS
   @RHF iter  10:  -746.51797386335306   -3.05920e-09   8.04602e-08 DIIS
   @RHF iter  11:  -746.51797386433054   -9.77479e-10   3.56715e-08 DIIS
   @RHF iter  12:  -746.51797386451676   -1.86219e-10   1.57161e-08 DIIS
   @RHF iter  13:  -746.51797386454177   -2.50111e-11   4.94808e-09 DIIS
   @RHF iter  14:  -746.51797386454678   -5.00222e-12   1.27647e-09 DIIS
   @RHF iter  15:  -746.51797386454462    2.16005e-12   4.91865e-10 DIIS
   @RHF iter  16:  -746.51797386454746   -2.84217e-12   1.97777e-10 DIIS
   @RHF iter  17:  -746.51797386455019   -2.72848e-12   9.44760e-11 DIIS
  Energy and wave function converged.

  ==> Post-Iterations <==

    Orbital Energies [Eh]
    ---------------------

    Doubly Occupied:

       1A    -91.941961     2A    -11.262711     3A    -11.247849
       4A    -11.241014     5A    -11.238776     6A    -11.237210
       7A    -11.235491     8A    -11.234906     9A    -11.234641
      10A    -11.233443    11A     -8.945363    12A     -6.627467
      13A     -6.626084    14A     -6.623651    15A     -1.155207
      16A     -1.067894    17A     -1.047846    18A     -1.015026
      19A     -0.946372    20A     -0.935921    21A     -0.828903
      22A     -0.814083    23A     -0.799825    24A     -0.695351
      25A     -0.636754    26A     -0.633538    27A     -0.626816
      28A     -0.611813    29A     -0.586189    30A     -0.580923
      31A     -0.568337    32A     -0.540533    33A     -0.535981
      34A     -0.514157    35A     -0.503405    36A     -0.489877
      37A     -0.489346    38A     -0.485712    39A     -0.441563
      40A     -0.348604    41A     -0.335519    42A     -0.324752

    Virtual:

      43A      0.128878    44A      0.136331    45A      0.148771
      46A      0.180706    47A      0.190732    48A      0.202643
      49A      0.217381    50A      0.221353    51A      0.229910
      52A      0.239453    53A      0.255123    54A      0.265973
      55A      0.270876    56A      0.275527    57A      0.282079
      58A      0.301505    59A      0.323580    60A      0.359456
      61A      0.366507    62A      0.382890    63A      0.450040
      64A      0.458443    65A      0.467574    66A      0.491368
      67A      0.513100    68A      0.552875    69A      0.581655
      70A      0.588725    71A      0.598160    72A      0.621106
      73A      0.640716    74A      0.661465    75A      0.682661
      76A      0.684872    77A      0.694350    78A      0.698052
      79A      0.704190    80A      0.716301    81A      0.724056
      82A      0.736123    83A      0.738578    84A      0.742392
      85A      0.752418    86A      0.756610    87A      0.774414
      88A      0.794191    89A      0.798354    90A      0.811584
      91A      0.827614    92A      0.839183    93A      0.853662
      94A      0.860392    95A      0.862108    96A      0.869653
      97A      0.874092    98A      0.884670    99A      0.891328
     100A      0.899537   101A      0.906135   102A      0.913324
     103A      0.919721   104A      0.926657   105A      0.941783
     106A      0.961959   107A      0.965776   108A      0.975783
     109A      1.001244   110A      1.010967   111A      1.035300
     112A      1.053215   113A      1.119806   114A      1.132455
     115A      1.149097   116A      1.159546   117A      1.189668
     118A      1.195401   119A      1.217307   120A      1.231264
     121A      1.242151   122A      1.249785   123A      1.259568
     124A      1.274008   125A      1.299163   126A      1.302914
     127A      1.310538   128A      1.314257   129A      1.333595
     130A      1.386904   131A      1.424223   132A      1.469690
     133A      1.514541   134A      1.524973   135A      1.574800
     136A      1.587661   137A      1.607969   138A      1.629907
     139A      1.667518   140A      1.680162   141A      1.683504
     142A      1.718511   143A      1.727077   144A      1.731965
     145A      1.745414   146A      1.756251   147A      1.791232
     148A      1.804820   149A      1.835602   150A      1.852940
     151A      1.860978   152A      1.884077   153A      1.886698
     154A      1.892633   155A      1.893713   156A      1.909924
     157A      1.914583   158A      1.921874   159A      1.936340
     160A      1.951997   161A      1.958028   162A      1.959208
     163A      1.980749   164A      1.991110   165A      1.994291
     166A      2.025903   167A      2.033919   168A      2.056330
     169A      2.058251   170A      2.075903   171A      2.109242
     172A      2.122039   173A      2.127035   174A      2.153122
     175A      2.159720   176A      2.173363   177A      2.193806
     178A      2.218809   179A      2.244867   180A      2.270006
     181A      2.280701   182A      2.289963   183A      2.298091
     184A      2.311318   185A      2.314057   186A      2.390860
     187A      2.411649   188A      2.435355   189A      2.445286
     190A      2.468222   191A      2.497252   192A      2.530520
     193A      2.535693   194A      2.558652   195A      2.643511
     196A      2.715812   197A      2.740601   198A      2.746650
     199A      2.764801   200A      2.784145   201A      2.807616
     202A      2.815607   203A      2.830567   204A      2.840261
     205A      2.853402   206A      2.887299   207A      2.939749
     208A      2.980286   209A      3.004855   210A      3.041135
     211A      3.163719   212A      3.199810   213A      3.300401
     214A      3.956349

    Final Occupation by Irrep:
              A
    DOCC [    42 ]

  @RHF Final Energy:  -746.51797386455019

   => Energetics <=

    Nuclear Repulsion Energy =            539.8410610326384358
    One-Electron Energy =               -2091.7364388430823965
    Two-Electron Energy =                 805.3774039458937750
    Total Energy =                       -746.5179738645501857

Computation Completed

Properties will be evaluated at   0.000000,   0.000000,   0.000000 [a0]

Properties computed using the SCF density matrix

  Nuclear Dipole Moment: [e a0]
     X:    -2.7494      Y:    -3.1264      Z:    -6.8185

  Electronic Dipole Moment: [e a0]
     X:     2.2988      Y:     2.5117      Z:     6.7957

  Dipole Moment: [e a0]
     X:    -0.4506      Y:    -0.6147      Z:    -0.0228     Total:     0.7625

  Dipole Moment: [D]
     X:    -1.1453      Y:    -1.5625      Z:    -0.0580     Total:     1.9382

*** tstop() called on ds3 at Mon Apr 27 07:42:38 2020
Module time:
	user time   =     106.56 seconds =       1.78 minutes
	system time =      38.53 seconds =       0.64 minutes
	total time  =        192 seconds =       3.20 minutes
Total time:
	user time   =     106.56 seconds =       1.78 minutes
	system time =      38.53 seconds =       0.64 minutes
	total time  =        192 seconds =       3.20 minutes
                                     G D M A

                                 by Anthony Stone

                           version 2.2.06, 22 June 2011

               Distributed Multipoles from Gaussian wavefunctions

Starting at 7:42:38 on 27 Apr 2020

Using SCF density matrix from file ./SSI/SSI-012PHE-166CYS-1-dimer.test.30953.fchk

                         Distributed Multipole Analysis

Standard DMA

Positions and radii in angstrom
Multipole moments in atomic units, ea_0^k for rank k

C          x = -0.566475  y = -2.827107  z = -0.999386 angstrom
           Maximum rank =  0   Radius =  0.650 angstrom
                   Q00  =  -0.211259

C          x = -1.006475  y = -0.682107  z =  0.338614 angstrom
           Maximum rank =  0   Radius =  0.650 angstrom
                   Q00  =  -0.090282

C          x = -0.750475  y = -2.057107  z =  0.286614 angstrom
           Maximum rank =  0   Radius =  0.650 angstrom
                   Q00  =  -0.089114

C          x = -1.152475  y = -0.039107  z =  1.575614 angstrom
           Maximum rank =  0   Radius =  0.650 angstrom
                   Q00  =  -0.067786

C          x = -1.022475  y = -0.760107  z =  2.762614 angstrom
           Maximum rank =  0   Radius =  0.650 angstrom
                   Q00  =  -0.087726

C          x = -0.612475  y = -2.758107  z =  1.485614 angstrom
           Maximum rank =  0   Radius =  0.650 angstrom
                   Q00  =  -0.000732

C          x = -0.753475  y = -2.122107  z =  2.713614 angstrom
           Maximum rank =  0   Radius =  0.650 angstrom
                   Q00  =  -0.063778

H          x = -1.068475  y = -0.094107  z = -0.549386 angstrom
           Maximum rank =  0   Radius =  0.325 angstrom
                   Q00  =   0.052894

H          x = -1.358475  y =  1.021893  z =  1.612614 angstrom
           Maximum rank =  0   Radius =  0.325 angstrom
                   Q00  =   0.064175

H          x = -1.176475  y = -3.730107  z = -0.944386 angstrom
           Maximum rank =  0   Radius =  0.325 angstrom
                   Q00  =   0.102371

H          x =  0.476525  y = -3.132107  z = -1.036386 angstrom
           Maximum rank =  0   Radius =  0.325 angstrom
                   Q00  =   0.103601

H          x = -1.135475  y = -0.262107  z =  3.716614 angstrom
           Maximum rank =  0   Radius =  0.325 angstrom
                   Q00  =   0.062854

H          x = -0.406475  y = -3.819107  z =  1.463614 angstrom
           Maximum rank =  0   Radius =  0.325 angstrom
                   Q00  =   0.054653

H          x = -0.678475  y = -2.695107  z =  3.623614 angstrom
           Maximum rank =  0   Radius =  0.325 angstrom
                   Q00  =   0.066217

H          x = -0.790992  y = -2.299887  z = -1.938336 angstrom
           Maximum rank =  0   Radius =  0.325 angstrom
                   Q00  =   0.100461

C          x =  0.573525  y =  1.895893  z = -1.691386 angstrom
           Maximum rank =  0   Radius =  0.650 angstrom
                   Q00  =  -0.186921

C          x =  0.347525  y =  2.064893  z = -3.203386 angstrom
           Maximum rank =  0   Radius =  0.650 angstrom
                   Q00  =  -0.229625

S          x =  1.949525  y =  2.841893  z = -0.998386 angstrom
           Maximum rank =  0   Radius =  0.650 angstrom
                   Q00  =  -0.099813

H          x = -0.343475  y =  2.151893  z = -1.161386 angstrom
           Maximum rank =  0   Radius =  0.325 angstrom
                   Q00  =   0.063177

H          x =  0.774525  y =  0.840893  z = -1.506386 angstrom
           Maximum rank =  0   Radius =  0.325 angstrom
                   Q00  =   0.065254

H          x = -0.307475  y =  1.272893  z = -3.557386 angstrom
           Maximum rank =  0   Radius =  0.325 angstrom
                   Q00  =   0.093661

H          x =  1.887525  y =  2.313893  z =  0.228614 angstrom
           Maximum rank =  0   Radius =  0.325 angstrom
                   Q00  =   0.115824

H          x =  1.288702  y =  1.995763  z = -3.768546 angstrom
           Maximum rank =  0   Radius =  0.325 angstrom
                   Q00  =   0.092985

H          x = -0.149104  y =  3.020343  z = -3.428066 angstrom
           Maximum rank =  0   Radius =  0.325 angstrom
                   Q00  =   0.088911

Total multipoles referred to origin at
           x =   0.000000,  y =    0.000000,  z =    0.000000 angstrom
                   Q00  =   0.000000

Finished at 7:42:38 on 27 Apr 2020

  DMA results are available in the Python driver through the
	  variable('DMA DISTRIBUTED MULTIPOLES')
  and
	  variable('DMA TOTAL MULTIPOLES')
  commands.

    Psi4 stopped on: Monday, 27 April 2020 07:42AM
    Psi4 wall time for execution: 0:03:11.56

*** Psi4 exiting successfully. Buy a developer a beer!
