                               Psi4 1.3.2 release

  ==> Input File <==

--------------------------------------------------------------------------
import numpy as np
set {scf_type pk
basis cc-pvdz
d_convergence 10
gdma_switch   0
gdma_limit    0
gdma_origin   [ 0.0,  0.0,  0.0 ]
}
molecule test {
    units Angstrom
    0 1
    --
    0 1
    C               -3.001501416073487    -1.123904123544337     1.402280180330943
    C                0.384498583926512    -0.547904123544337    -0.220719819669057
    C               -0.394501416073488    -0.725904123544337     0.945280180330943
    C               -1.766501416073488    -0.887904123544337     0.513280180330943
    C               -1.727501416073488    -0.793904123544337    -0.861719819669057
    C                1.745498583926512    -0.331904123544337    -0.171719819669057
    C                2.386498583926512    -0.313904123544337     1.056280180330943
    C                0.270498583926512    -0.719904123544337     2.192280180330943
    C                1.678498583926512    -0.461904123544337     2.231280180330943
    N               -0.456501416073488    -0.559904123544337    -1.291719819669057
    H               -0.174501416073488    -0.515904123544337    -2.268719819669057
    H                2.303498583926512    -0.187904123544337    -1.085719819669057
    H               -2.596501416073488    -0.883904123544337    -1.503719819669057
    H                3.452498583926512    -0.145904123544337     1.096280180330943
    H               -0.295501416073488    -0.870904123544337     3.096280180330943
    H               -3.813501416073488    -0.492904123544337     1.050280180330943
    H               -2.760501416073488    -0.827904123544337     2.424280180330943
    H                2.187498583926513    -0.379904123544337     3.177280180330943
    H               -3.363399416073488    -2.162584123544337     1.388740180330943
    C                0.377498583926512     2.850095876455664    -1.742719819669057
    C                0.723498583926512     2.822095876455663    -3.211719819669057
    H               -0.493501416073488     2.230095876455664    -1.543719819669057
    H                1.210498583926513     2.449095876455663    -1.165719819669057
    H                0.179498583926512     3.872095876455664    -1.415719819669057
    H                0.862498583926512     1.793095876455663    -3.529719819669057
    H               -0.070454736073488     3.324715876455664    -3.783569819669057
    H                1.659877583926512     3.375675876455663    -3.375259819669057

}
e, wfn = energy('scf', return_wfn=True)
gdma(wfn)
dmavals = variable('DMA DISTRIBUTED MULTIPOLES')
charges = np.array(dmavals)
print(charges)
np.save('SSI-002TRP-139LEU-1-dimer.npy', np.array(charges))--------------------------------------------------------------------------

*** tstart() called on ds3
*** at Tue Apr 28 13:40:56 2020

   => Loading Basis Set <=

    Name: CC-PVDZ
    Role: ORBITAL
    Keyword: BASIS
    atoms 1-9, 20-21   entry C          line   138 file /theoryfs2/ds/metcalf/miniconda2/envs/tf2gpu/share/psi4/basis/cc-pvdz.gbs
    atoms 10           entry N          line   168 file /theoryfs2/ds/metcalf/miniconda2/envs/tf2gpu/share/psi4/basis/cc-pvdz.gbs
    atoms 11-19, 22-27 entry H          line    22 file /theoryfs2/ds/metcalf/miniconda2/envs/tf2gpu/share/psi4/basis/cc-pvdz.gbs

         ---------------------------------------------------------
                                   SCF
               by Justin Turney, Rob Parrish, Andy Simmonett
                          and Daniel G. A. Smith
                              RHF Reference
                        1 Threads,    500 MiB Core
         ---------------------------------------------------------

  ==> Geometry <==

    Molecular point group: c1
    Full point group: C1

    Geometry (in Angstrom), charge = 0, multiplicity = 1:

       Center              X                  Y                   Z               Mass
    ------------   -----------------  -----------------  -----------------  -----------------
         C           -3.001501416073    -1.123904123544     1.402280180331    12.000000000000
         C            0.384498583927    -0.547904123544    -0.220719819669    12.000000000000
         C           -0.394501416073    -0.725904123544     0.945280180331    12.000000000000
         C           -1.766501416073    -0.887904123544     0.513280180331    12.000000000000
         C           -1.727501416073    -0.793904123544    -0.861719819669    12.000000000000
         C            1.745498583927    -0.331904123544    -0.171719819669    12.000000000000
         C            2.386498583927    -0.313904123544     1.056280180331    12.000000000000
         C            0.270498583927    -0.719904123544     2.192280180331    12.000000000000
         C            1.678498583927    -0.461904123544     2.231280180331    12.000000000000
         N           -0.456501416073    -0.559904123544    -1.291719819669    14.003074004430
         H           -0.174501416073    -0.515904123544    -2.268719819669     1.007825032230
         H            2.303498583927    -0.187904123544    -1.085719819669     1.007825032230
         H           -2.596501416073    -0.883904123544    -1.503719819669     1.007825032230
         H            3.452498583927    -0.145904123544     1.096280180331     1.007825032230
         H           -0.295501416073    -0.870904123544     3.096280180331     1.007825032230
         H           -3.813501416073    -0.492904123544     1.050280180331     1.007825032230
         H           -2.760501416073    -0.827904123544     2.424280180331     1.007825032230
         H            2.187498583927    -0.379904123544     3.177280180331     1.007825032230
         H           -3.363399416073    -2.162584123544     1.388740180331     1.007825032230
         C            0.377498583927     2.850095876456    -1.742719819669    12.000000000000
         C            0.723498583927     2.822095876456    -3.211719819669    12.000000000000
         H           -0.493501416073     2.230095876456    -1.543719819669     1.007825032230
         H            1.210498583927     2.449095876456    -1.165719819669     1.007825032230
         H            0.179498583927     3.872095876456    -1.415719819669     1.007825032230
         H            0.862498583927     1.793095876456    -3.529719819669     1.007825032230
         H           -0.070454736073     3.324715876456    -3.783569819669     1.007825032230
         H            1.659877583927     3.375675876456    -3.375259819669     1.007825032230

  Running in c1 symmetry.

  Rotational constants: A =      0.03479  B =      0.02227  C =      0.01566 [cm^-1]
  Rotational constants: A =   1042.99361  B =    667.70260  C =    469.59122 [MHz]
  Nuclear repulsion =  660.987254479719354

  Charge       = 0
  Multiplicity = 1
  Electrons    = 88
  Nalpha       = 44
  Nbeta        = 44

  ==> Algorithm <==

  SCF Algorithm Type is PK.
  DIIS enabled.
  MOM disabled.
  Fractional occupation disabled.
  Guess Type is SAD.
  Energy threshold   = 1.00e-06
  Density threshold  = 1.00e-10
  Integral threshold = 0.00e+00

  ==> Primary Basis <==

  Basis Set: CC-PVDZ
    Blend: CC-PVDZ
    Number of shells: 117
    Number of basis function: 243
    Number of Cartesian functions: 255
    Spherical Harmonics?: true
    Max angular momentum: 2

  ==> Pre-Iterations <==

   -------------------------------------------------------
    Irrep   Nso     Nmo     Nalpha   Nbeta   Ndocc  Nsocc
   -------------------------------------------------------
     A        243     243       0       0       0       0
   -------------------------------------------------------
    Total     243     243      44      44      44       0
   -------------------------------------------------------

  ==> Integral Setup <==

  Using integral reordering PK algorithm.
  Sizing the integral batches needed.
  Building batch lookup table.
   Calculation information:
      Number of atoms:                  27
      Number of AO shells:             117
      Number of primitives:            339
      Number of atomic orbitals:       255
      Number of basis functions:       243

      Integral cutoff                 1.00e-12
      Number of threads:                 1

	Batch   1 pq = [       0,    9405] index = [             0,44231715] size =     44231715
	Batch   2 pq = [    9405,   13301] index = [      44231715,88464951] size =     44233236
	Batch   3 pq = [   13301,   16290] index = [      88464951,132690195] size =     44225244
	Batch   4 pq = [   16290,   18810] index = [     132690195,176917455] size =     44227260
	Batch   5 pq = [   18810,   21030] index = [     176917455,221140965] size =     44223510
	Batch   6 pq = [   21030,   23037] index = [     221140965,265363203] size =     44222238
	Batch   7 pq = [   23037,   24883] index = [     265363203,309594286] size =     44231083
	Batch   8 pq = [   24883,   26601] index = [     309594286,353819901] size =     44225615
	Batch   9 pq = [   26601,   28214] index = [     353819901,398029005] size =     44209104
	Batch  10 pq = [   28214,   29646] index = [     398029005,439457481] size =     41428476
  Task number: 40
  Buffer size: 11059200
  Buffer per thread: 2
  We computed 23167944 shell quartets total.
  Whereas there are 23829156 unique shell quartets.

  ==> DiskJK: Disk-Based J/K Matrices <==

    J tasked:                  Yes
    K tasked:                  Yes
    wK tasked:                  No
    Memory [MiB]:              375
    Schwarz Cutoff:          1E-12

    OpenMP threads:              1

  Minimum eigenvalue in the overlap matrix is 2.4713696087E-04.
  Using Symmetric Orthogonalization.

  SCF Guess: Superposition of Atomic Densities via on-the-fly atomic UHF.

  ==> Iterations <==

                        Total Energy        Delta E     RMS |[F,P]|

   @RHF iter SAD:  -478.97764744696286   -4.78978e+02   0.00000e+00
   @RHF iter   1:  -479.48642210298738   -5.08775e-01   2.58805e-03 DIIS
   @RHF iter   2:  -479.71771860103337   -2.31296e-01   1.12971e-03 DIIS
   @RHF iter   3:  -479.75778240870699   -4.00638e-02   2.91345e-04 DIIS
   @RHF iter   4:  -479.76139922223649   -3.61681e-03   1.32950e-04 DIIS
   @RHF iter   5:  -479.76198164736485   -5.82425e-04   2.01687e-05 DIIS
   @RHF iter   6:  -479.76201010531798   -2.84580e-05   9.56707e-06 DIIS
   @RHF iter   7:  -479.76201594165769   -5.83634e-06   3.68679e-06 DIIS
   @RHF iter   8:  -479.76201754789986   -1.60624e-06   1.52301e-06 DIIS
   @RHF iter   9:  -479.76201787384088   -3.25941e-07   6.44057e-07 DIIS
   @RHF iter  10:  -479.76201794015287   -6.63120e-08   2.97870e-07 DIIS
   @RHF iter  11:  -479.76201795605544   -1.59026e-08   1.14495e-07 DIIS
   @RHF iter  12:  -479.76201795839029   -2.33484e-09   3.86376e-08 DIIS
   @RHF iter  13:  -479.76201795856605   -1.75760e-10   1.12658e-08 DIIS
   @RHF iter  14:  -479.76201795858486   -1.88152e-11   5.28949e-09 DIIS
   @RHF iter  15:  -479.76201795858725   -2.38742e-12   2.77403e-09 DIIS
   @RHF iter  16:  -479.76201795858975   -2.50111e-12   1.13637e-09 DIIS
   @RHF iter  17:  -479.76201795859106   -1.30740e-12   4.79878e-10 DIIS
   @RHF iter  18:  -479.76201795858697    4.09273e-12   1.79578e-10 DIIS
   @RHF iter  19:  -479.76201795858663    3.41061e-13   6.64434e-11 DIIS
  Energy and wave function converged.

  ==> Post-Iterations <==

    Orbital Energies [Eh]
    ---------------------

    Doubly Occupied:

       1A    -15.604092     2A    -11.267924     3A    -11.260989
       4A    -11.235407     5A    -11.231080     6A    -11.227222
       7A    -11.225747     8A    -11.225017     9A    -11.224008
      10A    -11.223595    11A    -11.219376    12A    -11.208523
      13A     -1.302283    14A     -1.126943    15A     -1.067213
      16A     -1.022025    17A     -0.994748    18A     -0.985977
      19A     -0.930325    20A     -0.843652    21A     -0.832748
      22A     -0.799708    23A     -0.755088    24A     -0.723143
      25A     -0.662747    26A     -0.643151    27A     -0.606688
      28A     -0.602300    29A     -0.596831    30A     -0.589251
      31A     -0.586342    32A     -0.567992    33A     -0.551815
      34A     -0.534941    35A     -0.525786    36A     -0.501174
      37A     -0.496803    38A     -0.486140    39A     -0.479308
      40A     -0.470325    41A     -0.459542    42A     -0.371199
      43A     -0.297751    44A     -0.270996

    Virtual:

      45A      0.121759    46A      0.155279    47A      0.170848
      48A      0.188555    49A      0.199119    50A      0.210499
      51A      0.218318    52A      0.225875    53A      0.233226
      54A      0.249000    55A      0.256473    56A      0.261333
      57A      0.267253    58A      0.277885    59A      0.291939
      60A      0.309064    61A      0.310313    62A      0.318022
      63A      0.370966    64A      0.382876    65A      0.398049
      66A      0.409596    67A      0.426211    68A      0.437484
      69A      0.465820    70A      0.483498    71A      0.503557
      72A      0.517573    73A      0.586972    74A      0.591673
      75A      0.606501    76A      0.611879    77A      0.624938
      78A      0.641881    79A      0.647332    80A      0.654640
      81A      0.668150    82A      0.675574    83A      0.696004
      84A      0.710089    85A      0.716776    86A      0.730986
      87A      0.738672    88A      0.747407    89A      0.751343
      90A      0.755647    91A      0.761272    92A      0.771179
      93A      0.787265    94A      0.801058    95A      0.822437
      96A      0.840847    97A      0.861586    98A      0.870775
      99A      0.873988   100A      0.879227   101A      0.882317
     102A      0.892560   103A      0.896404   104A      0.896903
     105A      0.904031   106A      0.909814   107A      0.920468
     108A      0.930109   109A      0.947271   110A      0.958757
     111A      0.959829   112A      0.970795   113A      0.986787
     114A      0.997767   115A      1.008818   116A      1.023402
     117A      1.048443   118A      1.089392   119A      1.099385
     120A      1.124594   121A      1.125087   122A      1.132153
     123A      1.151015   124A      1.160664   125A      1.170623
     126A      1.173456   127A      1.207169   128A      1.213074
     129A      1.219074   130A      1.239617   131A      1.245918
     132A      1.266169   133A      1.281777   134A      1.287189
     135A      1.308226   136A      1.332940   137A      1.334563
     138A      1.356584   139A      1.370050   140A      1.423249
     141A      1.456643   142A      1.487914   143A      1.494676
     144A      1.509013   145A      1.537729   146A      1.561139
     147A      1.570699   148A      1.594324   149A      1.632740
     150A      1.640114   151A      1.657872   152A      1.676715
     153A      1.689823   154A      1.698865   155A      1.714018
     156A      1.748658   157A      1.755866   158A      1.772062
     159A      1.781201   160A      1.810714   161A      1.825343
     162A      1.834967   163A      1.862627   164A      1.875629
     165A      1.880559   166A      1.886528   167A      1.894269
     168A      1.907126   169A      1.915456   170A      1.922222
     171A      1.924901   172A      1.934790   173A      1.951669
     174A      1.956377   175A      1.960320   176A      1.964778
     177A      1.968190   178A      1.976282   179A      1.990377
     180A      1.999071   181A      2.004215   182A      2.017549
     183A      2.027100   184A      2.070781   185A      2.071587
     186A      2.085694   187A      2.089191   188A      2.107311
     189A      2.122567   190A      2.125627   191A      2.133021
     192A      2.143693   193A      2.166698   194A      2.169007
     195A      2.180690   196A      2.217210   197A      2.257438
     198A      2.275855   199A      2.293000   200A      2.299304
     201A      2.312938   202A      2.327704   203A      2.341165
     204A      2.358447   205A      2.376376   206A      2.395259
     207A      2.454282   208A      2.455804   209A      2.461134
     210A      2.479084   211A      2.545237   212A      2.573382
     213A      2.578884   214A      2.583935   215A      2.602064
     216A      2.623114   217A      2.667889   218A      2.689006
     219A      2.726564   220A      2.763726   221A      2.768788
     222A      2.774496   223A      2.781723   224A      2.801748
     225A      2.805289   226A      2.812220   227A      2.843148
     228A      2.846601   229A      2.863995   230A      2.874828
     231A      2.917107   232A      2.965115   233A      2.968369
     234A      2.981277   235A      3.010982   236A      3.062148
     237A      3.068250   238A      3.118391   239A      3.205229
     240A      3.278642   241A      3.371527   242A      3.744216
     243A      3.939582

    Final Occupation by Irrep:
              A
    DOCC [    44 ]

  @RHF Final Energy:  -479.76201795858663

   => Energetics <=

    Nuclear Repulsion Energy =            660.9872544797193541
    One-Electron Energy =               -1959.8227104008292372
    Two-Electron Energy =                 819.0734379625231441
    Total Energy =                       -479.7620179585866254

Computation Completed

Properties will be evaluated at   0.000000,   0.000000,   0.000000 [a0]

Properties computed using the SCF density matrix

  Nuclear Dipole Moment: [e a0]
     X:    -1.6036      Y:     9.9172      Z:    -6.9698

  Electronic Dipole Moment: [e a0]
     X:     1.3176      Y:    -9.9462      Z:     6.2683

  Dipole Moment: [e a0]
     X:    -0.2860      Y:    -0.0290      Z:    -0.7015     Total:     0.7581

  Dipole Moment: [D]
     X:    -0.7269      Y:    -0.0738      Z:    -1.7831     Total:     1.9270

*** tstop() called on ds3 at Tue Apr 28 13:46:23 2020
Module time:
	user time   =     187.47 seconds =       3.12 minutes
	system time =      75.19 seconds =       1.25 minutes
	total time  =        327 seconds =       5.45 minutes
Total time:
	user time   =     187.47 seconds =       3.12 minutes
	system time =      75.19 seconds =       1.25 minutes
	total time  =        327 seconds =       5.45 minutes
                                     G D M A

                                 by Anthony Stone

                           version 2.2.06, 22 June 2011

               Distributed Multipoles from Gaussian wavefunctions

Starting at 13:46:24 on 28 Apr 2020

Using SCF density matrix from file ./SSI/SSI-002TRP-139LEU-1-dimer.test.21905.fchk

                         Distributed Multipole Analysis

Standard DMA

Positions and radii in angstrom
Multipole moments in atomic units, ea_0^k for rank k

C          x = -3.001501  y = -1.123904  z =  1.402280 angstrom
           Maximum rank =  0   Radius =  0.650 angstrom
                   Q00  =  -0.217495

C          x =  0.384499  y = -0.547904  z = -0.220720 angstrom
           Maximum rank =  0   Radius =  0.650 angstrom
                   Q00  =   0.272710

C          x = -0.394501  y = -0.725904  z =  0.945280 angstrom
           Maximum rank =  0   Radius =  0.650 angstrom
                   Q00  =  -0.035635

C          x = -1.766501  y = -0.887904  z =  0.513280 angstrom
           Maximum rank =  0   Radius =  0.650 angstrom
                   Q00  =  -0.148664

C          x = -1.727501  y = -0.793904  z = -0.861720 angstrom
           Maximum rank =  0   Radius =  0.650 angstrom
                   Q00  =   0.079021

C          x =  1.745499  y = -0.331904  z = -0.171720 angstrom
           Maximum rank =  0   Radius =  0.650 angstrom
                   Q00  =  -0.132121

C          x =  2.386499  y = -0.313904  z =  1.056280 angstrom
           Maximum rank =  0   Radius =  0.650 angstrom
                   Q00  =  -0.035846

C          x =  0.270499  y = -0.719904  z =  2.192280 angstrom
           Maximum rank =  0   Radius =  0.650 angstrom
                   Q00  =  -0.104254

C          x =  1.678499  y = -0.461904  z =  2.231280 angstrom
           Maximum rank =  0   Radius =  0.650 angstrom
                   Q00  =  -0.100961

N          x = -0.456501  y = -0.559904  z = -1.291720 angstrom
           Maximum rank =  0   Radius =  0.650 angstrom
                   Q00  =  -0.480895

H          x = -0.174501  y = -0.515904  z = -2.268720 angstrom
           Maximum rank =  0   Radius =  0.325 angstrom
                   Q00  =   0.221822

H          x =  2.303499  y = -0.187904  z = -1.085720 angstrom
           Maximum rank =  0   Radius =  0.325 angstrom
                   Q00  =   0.070173

H          x = -2.596501  y = -0.883904  z = -1.503720 angstrom
           Maximum rank =  0   Radius =  0.325 angstrom
                   Q00  =   0.098555

H          x =  3.452499  y = -0.145904  z =  1.096280 angstrom
           Maximum rank =  0   Radius =  0.325 angstrom
                   Q00  =   0.061903

H          x = -0.295501  y = -0.870904  z =  3.096280 angstrom
           Maximum rank =  0   Radius =  0.325 angstrom
                   Q00  =   0.074450

H          x = -3.813501  y = -0.492904  z =  1.050280 angstrom
           Maximum rank =  0   Radius =  0.325 angstrom
                   Q00  =   0.105664

H          x = -2.760501  y = -0.827904  z =  2.424280 angstrom
           Maximum rank =  0   Radius =  0.325 angstrom
                   Q00  =   0.109517

H          x =  2.187499  y = -0.379904  z =  3.177280 angstrom
           Maximum rank =  0   Radius =  0.325 angstrom
                   Q00  =   0.063413

H          x = -3.363399  y = -2.162584  z =  1.388740 angstrom
           Maximum rank =  0   Radius =  0.325 angstrom
                   Q00  =   0.102980

C          x =  0.377499  y =  2.850096  z = -1.742720 angstrom
           Maximum rank =  0   Radius =  0.650 angstrom
                   Q00  =  -0.223654

C          x =  0.723499  y =  2.822096  z = -3.211720 angstrom
           Maximum rank =  0   Radius =  0.650 angstrom
                   Q00  =  -0.233720

H          x = -0.493501  y =  2.230096  z = -1.543720 angstrom
           Maximum rank =  0   Radius =  0.325 angstrom
                   Q00  =   0.080674

H          x =  1.210499  y =  2.449096  z = -1.165720 angstrom
           Maximum rank =  0   Radius =  0.325 angstrom
                   Q00  =   0.082607

H          x =  0.179499  y =  3.872096  z = -1.415720 angstrom
           Maximum rank =  0   Radius =  0.325 angstrom
                   Q00  =   0.076933

H          x =  0.862499  y =  1.793096  z = -3.529720 angstrom
           Maximum rank =  0   Radius =  0.325 angstrom
                   Q00  =   0.060293

H          x = -0.070455  y =  3.324716  z = -3.783570 angstrom
           Maximum rank =  0   Radius =  0.325 angstrom
                   Q00  =   0.075818

H          x =  1.659878  y =  3.375676  z = -3.375260 angstrom
           Maximum rank =  0   Radius =  0.325 angstrom
                   Q00  =   0.076714

Total multipoles referred to origin at
           x =   0.000000,  y =    0.000000,  z =    0.000000 angstrom
                   Q00  =  -0.000000

Finished at 13:46:24 on 28 Apr 2020

  DMA results are available in the Python driver through the
	  variable('DMA DISTRIBUTED MULTIPOLES')
  and
	  variable('DMA TOTAL MULTIPOLES')
  commands.

    Psi4 stopped on: Tuesday, 28 April 2020 01:46PM
    Psi4 wall time for execution: 0:05:27.28

*** Psi4 exiting successfully. Buy a developer a beer!
