                               Psi4 1.3.2 release

  ==> Input File <==

--------------------------------------------------------------------------
import numpy as np
set {scf_type pk
basis cc-pvdz
d_convergence 10
gdma_switch   0
gdma_limit    0
gdma_origin   [ 0.0,  0.0,  0.0 ]
}
molecule test {
    units Angstrom
    0 1
    --
    0 1
    C                0.380579171210859     1.887343580119966    -1.700987059729700
    C                0.581579171210859     3.085343580119966    -2.624987059729700
    H                1.173579171210859     1.158343580119966    -1.871987059729700
    H                0.415579171210859     2.222343580119966    -0.664987059729700
    H               -0.590420828789141     1.427343580119966    -1.882987059729700
    H               -0.252420828789141     3.771343580119966    -2.514987059729699
    H                0.675789171210859     2.761724580119966    -3.672077059729700
    H                1.496339171210858     3.620620580119966    -2.330547059729700
    C               -0.501420828789141    -0.381656419880034     2.202012940270300
    C               -0.251420828789141    -1.340656419880034     1.081012940270301
    O               -0.648420828789141    -2.498656419880034     1.162012940270300
    N                0.380579171210859    -0.872656419880034     0.015012940270300
    H                0.547579171210859    -1.500656419880034    -0.756987059729700
    H                0.688579171210859     0.084343580119966    -0.012987059729700
    H                0.117579171210859     0.509343580119966     2.083012940270300
    H               -0.197420828789141    -0.871656419880034     3.128012940270300
    H               -1.564050828789141    -0.104259419880034     2.264142940270300

}
e, wfn = energy('scf', return_wfn=True)
gdma(wfn)
dmavals = variable('DMA DISTRIBUTED MULTIPOLES')
charges = np.array(dmavals)
print(charges)
np.save('SSI-111LEU-116ASN-1-dimer.npy', np.array(charges))--------------------------------------------------------------------------

*** tstart() called on ds3
*** at Mon Apr 27 14:03:42 2020

   => Loading Basis Set <=

    Name: CC-PVDZ
    Role: ORBITAL
    Keyword: BASIS
    atoms 1-2, 9-10  entry C          line   138 file /theoryfs2/ds/metcalf/miniconda2/envs/tf2gpu/share/psi4/basis/cc-pvdz.gbs
    atoms 3-8, 13-17 entry H          line    22 file /theoryfs2/ds/metcalf/miniconda2/envs/tf2gpu/share/psi4/basis/cc-pvdz.gbs
    atoms 11         entry O          line   198 file /theoryfs2/ds/metcalf/miniconda2/envs/tf2gpu/share/psi4/basis/cc-pvdz.gbs
    atoms 12         entry N          line   168 file /theoryfs2/ds/metcalf/miniconda2/envs/tf2gpu/share/psi4/basis/cc-pvdz.gbs

         ---------------------------------------------------------
                                   SCF
               by Justin Turney, Rob Parrish, Andy Simmonett
                          and Daniel G. A. Smith
                              RHF Reference
                        1 Threads,    500 MiB Core
         ---------------------------------------------------------

  ==> Geometry <==

    Molecular point group: c1
    Full point group: C1

    Geometry (in Angstrom), charge = 0, multiplicity = 1:

       Center              X                  Y                   Z               Mass
    ------------   -----------------  -----------------  -----------------  -----------------
         C            0.380579171211     1.887343580120    -1.700987059730    12.000000000000
         C            0.581579171211     3.085343580120    -2.624987059730    12.000000000000
         H            1.173579171211     1.158343580120    -1.871987059730     1.007825032230
         H            0.415579171211     2.222343580120    -0.664987059730     1.007825032230
         H           -0.590420828789     1.427343580120    -1.882987059730     1.007825032230
         H           -0.252420828789     3.771343580120    -2.514987059730     1.007825032230
         H            0.675789171211     2.761724580120    -3.672077059730     1.007825032230
         H            1.496339171211     3.620620580120    -2.330547059730     1.007825032230
         C           -0.501420828789    -0.381656419880     2.202012940270    12.000000000000
         C           -0.251420828789    -1.340656419880     1.081012940270    12.000000000000
         O           -0.648420828789    -2.498656419880     1.162012940270    15.994914619570
         N            0.380579171211    -0.872656419880     0.015012940270    14.003074004430
         H            0.547579171211    -1.500656419880    -0.756987059730     1.007825032230
         H            0.688579171211     0.084343580120    -0.012987059730     1.007825032230
         H            0.117579171211     0.509343580120     2.083012940270     1.007825032230
         H           -0.197420828789    -0.871656419880     3.128012940270     1.007825032230
         H           -1.564050828789    -0.104259419880     2.264142940270     1.007825032230

  Running in c1 symmetry.

  Rotational constants: A =      0.26560  B =      0.02936  C =      0.02724 [cm^-1]
  Rotational constants: A =   7962.44216  B =    880.26141  C =    816.56499 [MHz]
  Nuclear repulsion =  228.403245009056803

  Charge       = 0
  Multiplicity = 1
  Electrons    = 50
  Nalpha       = 25
  Nbeta        = 25

  ==> Algorithm <==

  SCF Algorithm Type is PK.
  DIIS enabled.
  MOM disabled.
  Fractional occupation disabled.
  Guess Type is SAD.
  Energy threshold   = 1.00e-06
  Density threshold  = 1.00e-10
  Integral threshold = 0.00e+00

  ==> Primary Basis <==

  Basis Set: CC-PVDZ
    Blend: CC-PVDZ
    Number of shells: 69
    Number of basis function: 139
    Number of Cartesian functions: 145
    Spherical Harmonics?: true
    Max angular momentum: 2

  ==> Pre-Iterations <==

   -------------------------------------------------------
    Irrep   Nso     Nmo     Nalpha   Nbeta   Ndocc  Nsocc
   -------------------------------------------------------
     A        139     139       0       0       0       0
   -------------------------------------------------------
    Total     139     139      25      25      25       0
   -------------------------------------------------------

  ==> Integral Setup <==

  Using integral reordering PK algorithm.
  Sizing the integral batches needed.
  Building batch lookup table.
   Calculation information:
      Number of atoms:                  17
      Number of AO shells:              69
      Number of primitives:            187
      Number of atomic orbitals:       145
      Number of basis functions:       139

      Integral cutoff                 1.00e-12
      Number of threads:                 1

	Batch   1 pq = [       0,    9730] index = [             0,47341315] size =     47341315
  Task number: 5
  Buffer size: 11059200
  Buffer per thread: 2
  We computed 2326089 shell quartets total.
  Whereas there are 2917320 unique shell quartets.

  ==> DiskJK: Disk-Based J/K Matrices <==

    J tasked:                  Yes
    K tasked:                  Yes
    wK tasked:                  No
    Memory [MiB]:              375
    Schwarz Cutoff:          1E-12

    OpenMP threads:              1

  Minimum eigenvalue in the overlap matrix is 4.3426335107E-03.
  Using Symmetric Orthogonalization.

  SCF Guess: Superposition of Atomic Densities via on-the-fly atomic UHF.

  ==> Iterations <==

                        Total Energy        Delta E     RMS |[F,P]|

   @RHF iter SAD:  -286.02335583787158   -2.86023e+02   0.00000e+00
   @RHF iter   1:  -286.99715501784374   -9.73799e-01   4.62574e-03 DIIS
   @RHF iter   2:  -287.17254162778983   -1.75387e-01   2.57154e-03 DIIS
   @RHF iter   3:  -287.22161694556991   -4.90753e-02   5.38558e-04 DIIS
   @RHF iter   4:  -287.22499186465382   -3.37492e-03   2.18615e-04 DIIS
   @RHF iter   5:  -287.22558593290398   -5.94068e-04   3.35004e-05 DIIS
   @RHF iter   6:  -287.22561556548362   -2.96326e-05   1.49380e-05 DIIS
   @RHF iter   7:  -287.22562005146602   -4.48598e-06   6.03868e-06 DIIS
   @RHF iter   8:  -287.22562107651441   -1.02505e-06   2.05621e-06 DIIS
   @RHF iter   9:  -287.22562119876363   -1.22249e-07   5.23424e-07 DIIS
   @RHF iter  10:  -287.22562120443826   -5.67462e-09   1.60484e-07 DIIS
   @RHF iter  11:  -287.22562120504210   -6.03848e-10   3.57132e-08 DIIS
   @RHF iter  12:  -287.22562120507354   -3.14344e-11   7.66190e-09 DIIS
   @RHF iter  13:  -287.22562120507484   -1.30740e-12   1.42786e-09 DIIS
   @RHF iter  14:  -287.22562120507541   -5.68434e-13   6.00309e-10 DIIS
   @RHF iter  15:  -287.22562120507422    1.19371e-12   1.82503e-10 DIIS
   @RHF iter  16:  -287.22562120507473   -5.11591e-13   6.25016e-11 DIIS
  Energy and wave function converged.

  ==> Post-Iterations <==

    Orbital Energies [Eh]
    ---------------------

    Doubly Occupied:

       1A    -20.497012     2A    -15.584748     3A    -11.341473
       4A    -11.238474     5A    -11.237282     6A    -11.232645
       7A     -1.364353     8A     -1.215014     9A     -1.037169
      10A     -1.000687    11A     -0.856587    12A     -0.795213
      13A     -0.726688    14A     -0.653418    15A     -0.618478
      16A     -0.614421    17A     -0.611430    18A     -0.567442
      19A     -0.554231    20A     -0.520960    21A     -0.514624
      22A     -0.506222    23A     -0.500685    24A     -0.405767
      25A     -0.399197

    Virtual:

      26A      0.155605    27A      0.183031    28A      0.199447
      29A      0.204201    30A      0.224929    31A      0.240428
      32A      0.254063    33A      0.261503    34A      0.273173
      35A      0.284509    36A      0.295139    37A      0.307326
      38A      0.381213    39A      0.408367    40A      0.467897
      41A      0.572520    42A      0.579350    43A      0.584827
      44A      0.613088    45A      0.630313    46A      0.668409
      47A      0.687107    48A      0.695541    49A      0.706516
      50A      0.735426    51A      0.740571    52A      0.769389
      53A      0.828753    54A      0.850766    55A      0.860806
      56A      0.877675    57A      0.879746    58A      0.889022
      59A      0.891341    60A      0.899200    61A      0.901704
      62A      0.937823    63A      0.942287    64A      0.967192
      65A      1.009484    66A      1.059046    67A      1.080689
      68A      1.102878    69A      1.110076    70A      1.132395
      71A      1.177905    72A      1.230388    73A      1.361804
      74A      1.370608    75A      1.380574    76A      1.415867
      77A      1.426610    78A      1.456492    79A      1.462532
      80A      1.481541    81A      1.509005    82A      1.567013
      83A      1.641157    84A      1.658583    85A      1.662561
      86A      1.675641    87A      1.713050    88A      1.822958
      89A      1.838145    90A      1.849309    91A      1.864745
      92A      1.878781    93A      1.900582    94A      1.905388
      95A      1.915901    96A      1.928405    97A      1.931920
      98A      1.941407    99A      1.945537   100A      1.949041
     101A      2.004715   102A      2.051111   103A      2.067931
     104A      2.089167   105A      2.099168   106A      2.102167
     107A      2.131534   108A      2.235777   109A      2.278384
     110A      2.307162   111A      2.328911   112A      2.420005
     113A      2.440748   114A      2.446441   115A      2.455941
     116A      2.481809   117A      2.545546   118A      2.557398
     119A      2.563962   120A      2.583220   121A      2.673653
     122A      2.749857   123A      2.754300   124A      2.772894
     125A      2.788589   126A      2.794919   127A      2.824156
     128A      2.842053   129A      2.846870   130A      2.934266
     131A      2.935875   132A      2.979586   133A      3.098059
     134A      3.141607   135A      3.328825   136A      3.518011
     137A      3.539940   138A      3.878759   139A      3.911586

    Final Occupation by Irrep:
              A
    DOCC [    25 ]

  @RHF Final Energy:  -287.22562120507473

   => Energetics <=

    Nuclear Repulsion Energy =            228.4032450090568034
    One-Electron Energy =                -842.0692897592973623
    Two-Electron Energy =                 326.4404235451657996
    Total Energy =                       -287.2256212050747308

Computation Completed

Properties will be evaluated at   0.000000,   0.000000,   0.000000 [a0]

Properties computed using the SCF density matrix

  Nuclear Dipole Moment: [e a0]
     X:     2.3495      Y:    12.2515      Z:    -5.8371

  Electronic Dipole Moment: [e a0]
     X:    -1.7356      Y:   -10.6653      Z:     5.3678

  Dipole Moment: [e a0]
     X:     0.6139      Y:     1.5863      Z:    -0.4693     Total:     1.7645

  Dipole Moment: [D]
     X:     1.5604      Y:     4.0319      Z:    -1.1928     Total:     4.4848

*** tstop() called on ds3 at Mon Apr 27 14:04:03 2020
Module time:
	user time   =      15.29 seconds =       0.25 minutes
	system time =       7.03 seconds =       0.12 minutes
	total time  =         21 seconds =       0.35 minutes
Total time:
	user time   =      15.29 seconds =       0.25 minutes
	system time =       7.03 seconds =       0.12 minutes
	total time  =         21 seconds =       0.35 minutes
                                     G D M A

                                 by Anthony Stone

                           version 2.2.06, 22 June 2011

               Distributed Multipoles from Gaussian wavefunctions

Starting at 14:4:3 on 27 Apr 2020

Using SCF density matrix from file ./SSI/SSI-111LEU-116ASN-1-dimer.test.8663.fchk

                         Distributed Multipole Analysis

Standard DMA

Positions and radii in angstrom
Multipole moments in atomic units, ea_0^k for rank k

C          x =  0.380579  y =  1.887344  z = -1.700987 angstrom
           Maximum rank =  0   Radius =  0.650 angstrom
                   Q00  =  -0.273194

C          x =  0.581579  y =  3.085344  z = -2.624987 angstrom
           Maximum rank =  0   Radius =  0.650 angstrom
                   Q00  =  -0.211462

H          x =  1.173579  y =  1.158344  z = -1.871987 angstrom
           Maximum rank =  0   Radius =  0.325 angstrom
                   Q00  =   0.069951

H          x =  0.415579  y =  2.222344  z = -0.664987 angstrom
           Maximum rank =  0   Radius =  0.325 angstrom
                   Q00  =   0.070060

H          x = -0.590421  y =  1.427344  z = -1.882987 angstrom
           Maximum rank =  0   Radius =  0.325 angstrom
                   Q00  =   0.090982

H          x = -0.252421  y =  3.771344  z = -2.514987 angstrom
           Maximum rank =  0   Radius =  0.325 angstrom
                   Q00  =   0.087054

H          x =  0.675789  y =  2.761725  z = -3.672077 angstrom
           Maximum rank =  0   Radius =  0.325 angstrom
                   Q00  =   0.086234

H          x =  1.496339  y =  3.620621  z = -2.330547 angstrom
           Maximum rank =  0   Radius =  0.325 angstrom
                   Q00  =   0.079131

C          x = -0.501421  y = -0.381656  z =  2.202013 angstrom
           Maximum rank =  0   Radius =  0.650 angstrom
                   Q00  =  -0.263580

C          x = -0.251421  y = -1.340656  z =  1.081013 angstrom
           Maximum rank =  0   Radius =  0.650 angstrom
                   Q00  =   0.826117

O          x = -0.648421  y = -2.498656  z =  1.162013 angstrom
           Maximum rank =  0   Radius =  0.650 angstrom
                   Q00  =  -0.803136

N          x =  0.380579  y = -0.872656  z =  0.015013 angstrom
           Maximum rank =  0   Radius =  0.650 angstrom
                   Q00  =  -0.529320

H          x =  0.547579  y = -1.500656  z = -0.756987 angstrom
           Maximum rank =  0   Radius =  0.325 angstrom
                   Q00  =   0.220441

H          x =  0.688579  y =  0.084344  z = -0.012987 angstrom
           Maximum rank =  0   Radius =  0.325 angstrom
                   Q00  =   0.214124

H          x =  0.117579  y =  0.509344  z =  2.083013 angstrom
           Maximum rank =  0   Radius =  0.325 angstrom
                   Q00  =   0.072134

H          x = -0.197421  y = -0.871656  z =  3.128013 angstrom
           Maximum rank =  0   Radius =  0.325 angstrom
                   Q00  =   0.129603

H          x = -1.564051  y = -0.104259  z =  2.264143 angstrom
           Maximum rank =  0   Radius =  0.325 angstrom
                   Q00  =   0.134862

Total multipoles referred to origin at
           x =   0.000000,  y =    0.000000,  z =    0.000000 angstrom
                   Q00  =  -0.000000

Finished at 14:4:3 on 27 Apr 2020

  DMA results are available in the Python driver through the
	  variable('DMA DISTRIBUTED MULTIPOLES')
  and
	  variable('DMA TOTAL MULTIPOLES')
  commands.

    Psi4 stopped on: Monday, 27 April 2020 02:04PM
    Psi4 wall time for execution: 0:00:21.78

*** Psi4 exiting successfully. Buy a developer a beer!
