                               Psi4 1.3.2 release

  ==> Input File <==

--------------------------------------------------------------------------
import numpy as np
set {scf_type pk
basis cc-pvdz
d_convergence 10
gdma_switch   0
gdma_limit    0
gdma_origin   [ 0.0,  0.0,  0.0 ]
}
molecule test {
    units Angstrom
    0 1
    --
    0 1
    C                3.129353270383151     0.044961932349913    -1.014128174425008
    C                4.249353270383151    -0.748038067650087    -1.686128174425008
    H                2.210353270383151    -0.060038067650087    -1.590128174425008
    H                2.964353270383152    -0.332038067650087    -0.006128174425008
    H                3.405353270383152     1.094961932349913    -0.966128174425008
    H                3.965353270383151    -1.800038067650087    -1.737128174425008
    H                4.402504270383151    -0.360908067650087    -2.704298174425008
    H                5.170218270383151    -0.646918067650087    -1.093018174425008
    C               -0.420646729616849    -1.244038067650087    -0.534128174425008
    C               -1.549646729616849    -2.258038067650087    -0.854128174425008
    C               -0.847646729616849    -0.020038067650087     0.238871825574992
    C               -0.931646729616849     1.282961932349913    -0.161128174425008
    C               -1.599646729616849     1.171961932349913     1.936871825574992
    N               -1.257646729616849    -0.048038067650087     1.558871825574992
    N               -1.404646729616849     2.001961932349913     0.910871825574992
    H                0.358353270383151    -1.736038067650087     0.051871825574992
    H                0.009353270383151    -0.896038067650087    -1.473128174425008
    H               -2.365646729616849    -1.732038067650087    -1.356128174425008
    H               -0.699646729616849     1.750961932349913    -1.109128174425008
    H               -1.967646729616849     1.380961932349913     2.935871825574992
    H               -1.576646729616849     2.998961932349913     0.910871825574992
    H               -1.928247729616849    -2.734848067650087     0.062011825574992
    H               -1.121755729616849    -2.997188067650087    -1.547358174425008

}
e, wfn = energy('scf', return_wfn=True)
gdma(wfn)
dmavals = variable('DMA DISTRIBUTED MULTIPOLES')
charges = np.array(dmavals)
print(charges)
np.save('SSI-032VAL-056HIE-1-dimer.npy', np.array(charges))--------------------------------------------------------------------------

*** tstart() called on ds3
*** at Sun Apr 26 22:23:50 2020

   => Loading Basis Set <=

    Name: CC-PVDZ
    Role: ORBITAL
    Keyword: BASIS
    atoms 1-2, 9-13  entry C          line   138 file /theoryfs2/ds/metcalf/miniconda2/envs/tf2gpu/share/psi4/basis/cc-pvdz.gbs
    atoms 3-8, 16-23 entry H          line    22 file /theoryfs2/ds/metcalf/miniconda2/envs/tf2gpu/share/psi4/basis/cc-pvdz.gbs
    atoms 14-15      entry N          line   168 file /theoryfs2/ds/metcalf/miniconda2/envs/tf2gpu/share/psi4/basis/cc-pvdz.gbs

         ---------------------------------------------------------
                                   SCF
               by Justin Turney, Rob Parrish, Andy Simmonett
                          and Daniel G. A. Smith
                              RHF Reference
                        1 Threads,    500 MiB Core
         ---------------------------------------------------------

  ==> Geometry <==

    Molecular point group: c1
    Full point group: C1

    Geometry (in Angstrom), charge = 0, multiplicity = 1:

       Center              X                  Y                   Z               Mass
    ------------   -----------------  -----------------  -----------------  -----------------
         C            3.129353270383     0.044961932350    -1.014128174425    12.000000000000
         C            4.249353270383    -0.748038067650    -1.686128174425    12.000000000000
         H            2.210353270383    -0.060038067650    -1.590128174425     1.007825032230
         H            2.964353270383    -0.332038067650    -0.006128174425     1.007825032230
         H            3.405353270383     1.094961932350    -0.966128174425     1.007825032230
         H            3.965353270383    -1.800038067650    -1.737128174425     1.007825032230
         H            4.402504270383    -0.360908067650    -2.704298174425     1.007825032230
         H            5.170218270383    -0.646918067650    -1.093018174425     1.007825032230
         C           -0.420646729617    -1.244038067650    -0.534128174425    12.000000000000
         C           -1.549646729617    -2.258038067650    -0.854128174425    12.000000000000
         C           -0.847646729617    -0.020038067650     0.238871825575    12.000000000000
         C           -0.931646729617     1.282961932350    -0.161128174425    12.000000000000
         C           -1.599646729617     1.171961932350     1.936871825575    12.000000000000
         N           -1.257646729617    -0.048038067650     1.558871825575    14.003074004430
         N           -1.404646729617     2.001961932350     0.910871825575    14.003074004430
         H            0.358353270383    -1.736038067650     0.051871825575     1.007825032230
         H            0.009353270383    -0.896038067650    -1.473128174425     1.007825032230
         H           -2.365646729617    -1.732038067650    -1.356128174425     1.007825032230
         H           -0.699646729617     1.750961932350    -1.109128174425     1.007825032230
         H           -1.967646729617     1.380961932350     2.935871825575     1.007825032230
         H           -1.576646729617     2.998961932350     0.910871825575     1.007825032230
         H           -1.928247729617    -2.734848067650     0.062011825575     1.007825032230
         H           -1.121755729617    -2.997188067650    -1.547358174425     1.007825032230

  Running in c1 symmetry.

  Rotational constants: A =      0.06069  B =      0.02266  C =      0.01819 [cm^-1]
  Rotational constants: A =   1819.49028  B =    679.27188  C =    545.24146 [MHz]
  Nuclear repulsion =  425.866345367247504

  Charge       = 0
  Multiplicity = 1
  Electrons    = 70
  Nalpha       = 35
  Nbeta        = 35

  ==> Algorithm <==

  SCF Algorithm Type is PK.
  DIIS enabled.
  MOM disabled.
  Fractional occupation disabled.
  Guess Type is SAD.
  Energy threshold   = 1.00e-06
  Density threshold  = 1.00e-10
  Integral threshold = 0.00e+00

  ==> Primary Basis <==

  Basis Set: CC-PVDZ
    Blend: CC-PVDZ
    Number of shells: 96
    Number of basis function: 196
    Number of Cartesian functions: 205
    Spherical Harmonics?: true
    Max angular momentum: 2

  ==> Pre-Iterations <==

   -------------------------------------------------------
    Irrep   Nso     Nmo     Nalpha   Nbeta   Ndocc  Nsocc
   -------------------------------------------------------
     A        196     196       0       0       0       0
   -------------------------------------------------------
    Total     196     196      35      35      35       0
   -------------------------------------------------------

  ==> Integral Setup <==

  Using integral reordering PK algorithm.
  Sizing the integral batches needed.
  Building batch lookup table.
   Calculation information:
      Number of atoms:                  23
      Number of AO shells:              96
      Number of primitives:            268
      Number of atomic orbitals:       205
      Number of basis functions:       196

      Integral cutoff                 1.00e-12
      Number of threads:                 1

	Batch   1 pq = [       0,    9405] index = [             0,44231715] size =     44231715
	Batch   2 pq = [    9405,   13301] index = [      44231715,88464951] size =     44233236
	Batch   3 pq = [   13301,   16290] index = [      88464951,132690195] size =     44225244
	Batch   4 pq = [   16290,   18810] index = [     132690195,176917455] size =     44227260
	Batch   5 pq = [   18810,   19306] index = [     176917455,186370471] size =      9453016
  Task number: 17
  Buffer size: 11059200
  Buffer per thread: 2
  We computed 8592450 shell quartets total.
  Whereas there are 10841496 unique shell quartets.

  ==> DiskJK: Disk-Based J/K Matrices <==

    J tasked:                  Yes
    K tasked:                  Yes
    wK tasked:                  No
    Memory [MiB]:              375
    Schwarz Cutoff:          1E-12

    OpenMP threads:              1

  Minimum eigenvalue in the overlap matrix is 1.1498163657E-03.
  Using Symmetric Orthogonalization.

  SCF Guess: Superposition of Atomic Densities via on-the-fly atomic UHF.

  ==> Iterations <==

                        Total Energy        Delta E     RMS |[F,P]|

   @RHF iter SAD:  -381.13437361608788   -3.81134e+02   0.00000e+00
   @RHF iter   1:  -381.89717897751018   -7.62805e-01   3.11738e-03 DIIS
   @RHF iter   2:  -382.09117631925318   -1.93997e-01   1.58475e-03 DIIS
   @RHF iter   3:  -382.13725673370811   -4.60804e-02   4.07745e-04 DIIS
   @RHF iter   4:  -382.14124146598908   -3.98473e-03   1.73710e-04 DIIS
   @RHF iter   5:  -382.14189671476385   -6.55249e-04   2.38057e-05 DIIS
   @RHF iter   6:  -382.14191901042614   -2.22957e-05   9.85097e-06 DIIS
   @RHF iter   7:  -382.14192214578634   -3.13536e-06   3.48727e-06 DIIS
   @RHF iter   8:  -382.14192279428562   -6.48499e-07   1.36127e-06 DIIS
   @RHF iter   9:  -382.14192293771430   -1.43429e-07   4.38387e-07 DIIS
   @RHF iter  10:  -382.14192295034684   -1.26325e-08   1.49547e-07 DIIS
   @RHF iter  11:  -382.14192295197154   -1.62470e-09   6.62275e-08 DIIS
   @RHF iter  12:  -382.14192295220732   -2.35787e-10   2.52920e-08 DIIS
   @RHF iter  13:  -382.14192295224490   -3.75735e-11   8.23564e-09 DIIS
   @RHF iter  14:  -382.14192295224888   -3.97904e-12   2.92825e-09 DIIS
   @RHF iter  15:  -382.14192295224990   -1.02318e-12   1.14148e-09 DIIS
   @RHF iter  16:  -382.14192295225138   -1.47793e-12   4.00559e-10 DIIS
   @RHF iter  17:  -382.14192295225007    1.30740e-12   1.41303e-10 DIIS
   @RHF iter  18:  -382.14192295224854    1.53477e-12   4.12990e-11 DIIS
  Energy and wave function converged.

  ==> Post-Iterations <==

    Orbital Energies [Eh]
    ---------------------

    Doubly Occupied:

       1A    -15.618969     2A    -15.526701     3A    -11.291298
       4A    -11.251607     5A    -11.240022     6A    -11.225451
       7A    -11.216447     8A    -11.215978     9A    -11.211875
      10A     -1.339489    11A     -1.152623    12A     -1.045246
      13A     -1.015822    14A     -0.980797    15A     -0.857157
      16A     -0.831886    17A     -0.814757    18A     -0.764065
      19A     -0.728343    20A     -0.620598    21A     -0.602317
      22A     -0.596905    23A     -0.596105    24A     -0.595905
      25A     -0.578648    26A     -0.562584    27A     -0.506006
      28A     -0.494211    29A     -0.489262    30A     -0.487635
      31A     -0.482321    32A     -0.477145    33A     -0.407985
      34A     -0.376418    35A     -0.307726

    Virtual:

      36A      0.172633    37A      0.178586    38A      0.190113
      39A      0.203900    40A      0.213644    41A      0.225924
      42A      0.233195    43A      0.246743    44A      0.248217
      45A      0.259321    46A      0.269033    47A      0.279572
      48A      0.285083    49A      0.289355    50A      0.311780
      51A      0.354032    52A      0.381411    53A      0.389669
      54A      0.395903    55A      0.412779    56A      0.439743
      57A      0.475017    58A      0.490711    59A      0.577551
      60A      0.591213    61A      0.598226    62A      0.607688
      63A      0.615644    64A      0.637013    65A      0.652743
      66A      0.662245    67A      0.684253    68A      0.693398
      69A      0.705428    70A      0.728069    71A      0.752433
      72A      0.763938    73A      0.769780    74A      0.814617
      75A      0.821610    76A      0.850089    77A      0.876920
      78A      0.889089    79A      0.893060    80A      0.895659
      81A      0.897499    82A      0.902110    83A      0.904053
      84A      0.918182    85A      0.920767    86A      0.928131
      87A      0.928297    88A      0.953783    89A      0.962280
      90A      0.970490    91A      0.980807    92A      0.987141
      93A      1.006019    94A      1.050516    95A      1.056139
      96A      1.098444    97A      1.102966    98A      1.126831
      99A      1.129295   100A      1.134787   101A      1.152575
     102A      1.183319   103A      1.238128   104A      1.254623
     105A      1.270859   106A      1.307804   107A      1.322717
     108A      1.326426   109A      1.404284   110A      1.405596
     111A      1.430757   112A      1.456981   113A      1.484972
     114A      1.487490   115A      1.513946   116A      1.538021
     117A      1.559288   118A      1.570052   119A      1.602215
     120A      1.667377   121A      1.679673   122A      1.687369
     123A      1.700187   124A      1.721266   125A      1.740717
     126A      1.781845   127A      1.820545   128A      1.834899
     129A      1.855695   130A      1.868134   131A      1.879980
     132A      1.892019   133A      1.908279   134A      1.918866
     135A      1.925940   136A      1.937420   137A      1.948122
     138A      1.951422   139A      1.956788   140A      1.964922
     141A      1.969053   142A      1.974417   143A      1.977885
     144A      1.989967   145A      2.009294   146A      2.021845
     147A      2.028232   148A      2.076222   149A      2.094039
     150A      2.111448   151A      2.122819   152A      2.131368
     153A      2.152696   154A      2.172442   155A      2.206239
     156A      2.243297   157A      2.282715   158A      2.291495
     159A      2.311163   160A      2.317907   161A      2.332358
     162A      2.384003   163A      2.440858   164A      2.451957
     165A      2.465264   166A      2.474107   167A      2.486396
     168A      2.500617   169A      2.559144   170A      2.572740
     171A      2.579811   172A      2.592375   173A      2.611005
     174A      2.677039   175A      2.731322   176A      2.763641
     177A      2.768679   178A      2.780303   179A      2.795402
     180A      2.802550   181A      2.812348   182A      2.846311
     183A      2.848335   184A      2.861238   185A      2.877931
     186A      2.901601   187A      2.921040   188A      2.929792
     189A      2.964139   190A      2.975137   191A      3.008976
     192A      3.104949   193A      3.176266   194A      3.257177
     195A      3.472280   196A      3.791467

    Final Occupation by Irrep:
              A
    DOCC [    35 ]

  @RHF Final Energy:  -382.14192295224854

   => Energetics <=

    Nuclear Repulsion Energy =            425.8663453672475043
    One-Electron Energy =               -1360.9959311264469761
    Two-Electron Energy =                 552.9876628069508797
    Total Energy =                       -382.1419229522485921

Computation Completed

Properties will be evaluated at   0.000000,   0.000000,   0.000000 [a0]

Properties computed using the SCF density matrix

  Nuclear Dipole Moment: [e a0]
     X:    12.0320      Y:    -5.6963      Z:    -9.0275

  Electronic Dipole Moment: [e a0]
     X:   -12.1874      Y:     7.0027      Z:     8.7161

  Dipole Moment: [e a0]
     X:    -0.1554      Y:     1.3064      Z:    -0.3113     Total:     1.3519

  Dipole Moment: [D]
     X:    -0.3950      Y:     3.3205      Z:    -0.7914     Total:     3.4363

*** tstop() called on ds3 at Sun Apr 26 22:25:18 2020
Module time:
	user time   =      60.93 seconds =       1.02 minutes
	system time =      30.74 seconds =       0.51 minutes
	total time  =         88 seconds =       1.47 minutes
Total time:
	user time   =      60.93 seconds =       1.02 minutes
	system time =      30.74 seconds =       0.51 minutes
	total time  =         88 seconds =       1.47 minutes
                                     G D M A

                                 by Anthony Stone

                           version 2.2.06, 22 June 2011

               Distributed Multipoles from Gaussian wavefunctions

Starting at 22:25:18 on 26 Apr 2020

Using SCF density matrix from file ./SSI/SSI-032VAL-056HIE-1-dimer.test.27461.fchk

                         Distributed Multipole Analysis

Standard DMA

Positions and radii in angstrom
Multipole moments in atomic units, ea_0^k for rank k

C          x =  3.129353  y =  0.044962  z = -1.014128 angstrom
           Maximum rank =  0   Radius =  0.650 angstrom
                   Q00  =  -0.228885

C          x =  4.249353  y = -0.748038  z = -1.686128 angstrom
           Maximum rank =  0   Radius =  0.650 angstrom
                   Q00  =  -0.240192

H          x =  2.210353  y = -0.060038  z = -1.590128 angstrom
           Maximum rank =  0   Radius =  0.325 angstrom
                   Q00  =   0.076578

H          x =  2.964353  y = -0.332038  z = -0.006128 angstrom
           Maximum rank =  0   Radius =  0.325 angstrom
                   Q00  =   0.084144

H          x =  3.405353  y =  1.094962  z = -0.966128 angstrom
           Maximum rank =  0   Radius =  0.325 angstrom
                   Q00  =   0.075432

H          x =  3.965353  y = -1.800038  z = -1.737128 angstrom
           Maximum rank =  0   Radius =  0.325 angstrom
                   Q00  =   0.079046

H          x =  4.402504  y = -0.360908  z = -2.704298 angstrom
           Maximum rank =  0   Radius =  0.325 angstrom
                   Q00  =   0.075207

H          x =  5.170218  y = -0.646918  z = -1.093018 angstrom
           Maximum rank =  0   Radius =  0.325 angstrom
                   Q00  =   0.078082

C          x = -0.420647  y = -1.244038  z = -0.534128 angstrom
           Maximum rank =  0   Radius =  0.650 angstrom
                   Q00  =  -0.028001

C          x = -1.549647  y = -2.258038  z = -0.854128 angstrom
           Maximum rank =  0   Radius =  0.650 angstrom
                   Q00  =  -0.236856

C          x = -0.847647  y = -0.020038  z =  0.238872 angstrom
           Maximum rank =  0   Radius =  0.650 angstrom
                   Q00  =   0.218574

C          x = -0.931647  y =  1.282962  z = -0.161128 angstrom
           Maximum rank =  0   Radius =  0.650 angstrom
                   Q00  =  -0.018540

C          x = -1.599647  y =  1.171962  z =  1.936872 angstrom
           Maximum rank =  0   Radius =  0.650 angstrom
                   Q00  =   0.458284

N          x = -1.257647  y = -0.048038  z =  1.558872 angstrom
           Maximum rank =  0   Radius =  0.650 angstrom
                   Q00  =  -0.778404

N          x = -1.404647  y =  2.001962  z =  0.910872 angstrom
           Maximum rank =  0   Radius =  0.650 angstrom
                   Q00  =  -0.461730

H          x =  0.358353  y = -1.736038  z =  0.051872 angstrom
           Maximum rank =  0   Radius =  0.325 angstrom
                   Q00  =   0.084646

H          x =  0.009353  y = -0.896038  z = -1.473128 angstrom
           Maximum rank =  0   Radius =  0.325 angstrom
                   Q00  =   0.057175

H          x = -2.365647  y = -1.732038  z = -1.356128 angstrom
           Maximum rank =  0   Radius =  0.325 angstrom
                   Q00  =   0.080638

H          x = -0.699647  y =  1.750962  z = -1.109128 angstrom
           Maximum rank =  0   Radius =  0.325 angstrom
                   Q00  =   0.102321

H          x = -1.967647  y =  1.380962  z =  2.935872 angstrom
           Maximum rank =  0   Radius =  0.325 angstrom
                   Q00  =   0.126466

H          x = -1.576647  y =  2.998962  z =  0.910872 angstrom
           Maximum rank =  0   Radius =  0.325 angstrom
                   Q00  =   0.217435

H          x = -1.928248  y = -2.734848  z =  0.062012 angstrom
           Maximum rank =  0   Radius =  0.325 angstrom
                   Q00  =   0.100006

H          x = -1.121756  y = -2.997188  z = -1.547358 angstrom
           Maximum rank =  0   Radius =  0.325 angstrom
                   Q00  =   0.078576

Total multipoles referred to origin at
           x =   0.000000,  y =    0.000000,  z =    0.000000 angstrom
                   Q00  =  -0.000000

Finished at 22:25:18 on 26 Apr 2020

  DMA results are available in the Python driver through the
	  variable('DMA DISTRIBUTED MULTIPOLES')
  and
	  variable('DMA TOTAL MULTIPOLES')
  commands.

    Psi4 stopped on: Sunday, 26 April 2020 10:25PM
    Psi4 wall time for execution: 0:01:28.39

*** Psi4 exiting successfully. Buy a developer a beer!
