                               Psi4 1.3.2 release

  ==> Input File <==

--------------------------------------------------------------------------
import numpy as np
set {scf_type pk
basis cc-pvdz
d_convergence 10
gdma_switch   0
gdma_limit    0
gdma_origin   [ 0.0,  0.0,  0.0 ]
}
molecule test {
    units Angstrom
    0 1
    --
    0 1
    C                3.701732304167748    -0.806773173755326    -0.423179437622603
    C                4.226732304167747    -1.900773173755326    -1.307179437622603
    H                3.512732304167748     0.098226826244674    -1.000179437622603
    H                2.774732304167747    -1.137773173755326     0.040820562377397
    H                4.420732304167746    -0.593773173755326     0.368820562377397
    H                3.483732304167748    -2.112773173755325    -2.075179437622603
    H                4.312732304167747    -2.789773173755326    -0.685179437622603
    H                5.185552304167746    -1.656243173755326    -1.787659437622603
    C               -3.118267695832253     1.433226826244674     1.586820562377397
    C                0.075732304167747    -0.304773173755326    -0.713179437622603
    C               -0.731267695832253     0.655226826244674    -1.279179437622603
    C               -0.128267695832253    -0.703773173755326     0.603820562377397
    C               -1.770267695832253     1.214226826244674    -0.532179437622603
    C               -1.151267695832253    -0.140773173755326     1.354820562377397
    C               -1.985267695832253     0.828226826244674     0.795820562377397
    H                0.867732304167747    -0.748773173755326    -1.299179437622603
    H               -0.566267695832253     0.972226826244674    -2.297179437622603
    H                0.504732304167747    -1.462773173755326     1.042820562377397
    H               -2.408267695832253     1.961226826244674    -0.985179437622603
    H               -1.313267695832253    -0.476773173755326     2.364820562377397
    H               -3.438267695832253     0.729226826244674     2.352820562377397
    H               -3.954267695832252     1.541226826244674     0.895820562377397
    H               -2.899457695832253     2.413556826244674     2.035240562377397

}
e, wfn = energy('scf', return_wfn=True)
gdma(wfn)
dmavals = variable('DMA DISTRIBUTED MULTIPOLES')
charges = np.array(dmavals)
print(charges)
np.save('SSI-027ILE-046PHE-1-dimer.npy', np.array(charges))--------------------------------------------------------------------------

*** tstart() called on ds3
*** at Sun Apr 26 22:57:59 2020

   => Loading Basis Set <=

    Name: CC-PVDZ
    Role: ORBITAL
    Keyword: BASIS
    atoms 1-2, 9-15  entry C          line   138 file /theoryfs2/ds/metcalf/miniconda2/envs/tf2gpu/share/psi4/basis/cc-pvdz.gbs
    atoms 3-8, 16-23 entry H          line    22 file /theoryfs2/ds/metcalf/miniconda2/envs/tf2gpu/share/psi4/basis/cc-pvdz.gbs

         ---------------------------------------------------------
                                   SCF
               by Justin Turney, Rob Parrish, Andy Simmonett
                          and Daniel G. A. Smith
                              RHF Reference
                        1 Threads,    500 MiB Core
         ---------------------------------------------------------

  ==> Geometry <==

    Molecular point group: c1
    Full point group: C1

    Geometry (in Angstrom), charge = 0, multiplicity = 1:

       Center              X                  Y                   Z               Mass
    ------------   -----------------  -----------------  -----------------  -----------------
         C            3.701732304168    -0.806773173755    -0.423179437623    12.000000000000
         C            4.226732304168    -1.900773173755    -1.307179437623    12.000000000000
         H            3.512732304168     0.098226826245    -1.000179437623     1.007825032230
         H            2.774732304168    -1.137773173755     0.040820562377     1.007825032230
         H            4.420732304168    -0.593773173755     0.368820562377     1.007825032230
         H            3.483732304168    -2.112773173755    -2.075179437623     1.007825032230
         H            4.312732304168    -2.789773173755    -0.685179437623     1.007825032230
         H            5.185552304168    -1.656243173755    -1.787659437623     1.007825032230
         C           -3.118267695832     1.433226826245     1.586820562377    12.000000000000
         C            0.075732304168    -0.304773173755    -0.713179437623    12.000000000000
         C           -0.731267695832     0.655226826245    -1.279179437623    12.000000000000
         C           -0.128267695832    -0.703773173755     0.603820562377    12.000000000000
         C           -1.770267695832     1.214226826245    -0.532179437623    12.000000000000
         C           -1.151267695832    -0.140773173755     1.354820562377    12.000000000000
         C           -1.985267695832     0.828226826245     0.795820562377    12.000000000000
         H            0.867732304168    -0.748773173755    -1.299179437623     1.007825032230
         H           -0.566267695832     0.972226826245    -2.297179437623     1.007825032230
         H            0.504732304168    -1.462773173755     1.042820562377     1.007825032230
         H           -2.408267695832     1.961226826245    -0.985179437623     1.007825032230
         H           -1.313267695832    -0.476773173755     2.364820562377     1.007825032230
         H           -3.438267695832     0.729226826245     2.352820562377     1.007825032230
         H           -3.954267695832     1.541226826245     0.895820562377     1.007825032230
         H           -2.899457695832     2.413556826245     2.035240562377     1.007825032230

  Running in c1 symmetry.

  Rotational constants: A =      0.13517  B =      0.01787  C =      0.01652 [cm^-1]
  Rotational constants: A =   4052.33630  B =    535.79305  C =    495.39425 [MHz]
  Nuclear repulsion =  399.513837118354786

  Charge       = 0
  Multiplicity = 1
  Electrons    = 68
  Nalpha       = 34
  Nbeta        = 34

  ==> Algorithm <==

  SCF Algorithm Type is PK.
  DIIS enabled.
  MOM disabled.
  Fractional occupation disabled.
  Guess Type is SAD.
  Energy threshold   = 1.00e-06
  Density threshold  = 1.00e-10
  Integral threshold = 0.00e+00

  ==> Primary Basis <==

  Basis Set: CC-PVDZ
    Blend: CC-PVDZ
    Number of shells: 96
    Number of basis function: 196
    Number of Cartesian functions: 205
    Spherical Harmonics?: true
    Max angular momentum: 2

  ==> Pre-Iterations <==

   -------------------------------------------------------
    Irrep   Nso     Nmo     Nalpha   Nbeta   Ndocc  Nsocc
   -------------------------------------------------------
     A        196     196       0       0       0       0
   -------------------------------------------------------
    Total     196     196      34      34      34       0
   -------------------------------------------------------

  ==> Integral Setup <==

  Using integral reordering PK algorithm.
  Sizing the integral batches needed.
  Building batch lookup table.
   Calculation information:
      Number of atoms:                  23
      Number of AO shells:              96
      Number of primitives:            268
      Number of atomic orbitals:       205
      Number of basis functions:       196

      Integral cutoff                 1.00e-12
      Number of threads:                 1

	Batch   1 pq = [       0,    9405] index = [             0,44231715] size =     44231715
	Batch   2 pq = [    9405,   13301] index = [      44231715,88464951] size =     44233236
	Batch   3 pq = [   13301,   16290] index = [      88464951,132690195] size =     44225244
	Batch   4 pq = [   16290,   18810] index = [     132690195,176917455] size =     44227260
	Batch   5 pq = [   18810,   19306] index = [     176917455,186370471] size =      9453016
  Task number: 17
  Buffer size: 11059200
  Buffer per thread: 2
  We computed 8372859 shell quartets total.
  Whereas there are 10841496 unique shell quartets.

  ==> DiskJK: Disk-Based J/K Matrices <==

    J tasked:                  Yes
    K tasked:                  Yes
    wK tasked:                  No
    Memory [MiB]:              375
    Schwarz Cutoff:          1E-12

    OpenMP threads:              1

  Minimum eigenvalue in the overlap matrix is 3.0262115042E-04.
  Using Symmetric Orthogonalization.

  SCF Guess: Superposition of Atomic Densities via on-the-fly atomic UHF.

  ==> Iterations <==

                        Total Energy        Delta E     RMS |[F,P]|

   @RHF iter SAD:  -347.94850660579596   -3.47949e+02   0.00000e+00
   @RHF iter   1:  -348.76149060006952   -8.12984e-01   2.92295e-03 DIIS
   @RHF iter   2:  -348.95709481130262   -1.95604e-01   1.21126e-03 DIIS
   @RHF iter   3:  -348.98773140711273   -3.06366e-02   2.58601e-04 DIIS
   @RHF iter   4:  -348.99023148879945   -2.50008e-03   4.91731e-05 DIIS
   @RHF iter   5:  -348.99029776891871   -6.62801e-05   1.62297e-05 DIIS
   @RHF iter   6:  -348.99030433556169   -6.56664e-06   4.41109e-06 DIIS
   @RHF iter   7:  -348.99030488526068   -5.49699e-07   1.31369e-06 DIIS
   @RHF iter   8:  -348.99030493898493   -5.37242e-08   3.19225e-07 DIIS
   @RHF iter   9:  -348.99030494576760   -6.78267e-09   1.46709e-07 DIIS
   @RHF iter  10:  -348.99030494740521   -1.63760e-09   6.89650e-08 DIIS
   @RHF iter  11:  -348.99030494800076   -5.95548e-10   2.45833e-08 DIIS
   @RHF iter  12:  -348.99030494806777   -6.70184e-11   9.56208e-09 DIIS
   @RHF iter  13:  -348.99030494807567   -7.90124e-12   3.51749e-09 DIIS
   @RHF iter  14:  -348.99030494807505    6.25278e-13   7.56342e-10 DIIS
   @RHF iter  15:  -348.99030494807454    5.11591e-13   3.34002e-10 DIIS
   @RHF iter  16:  -348.99030494807562   -1.08002e-12   1.69536e-10 DIIS
   @RHF iter  17:  -348.99030494807590   -2.84217e-13   6.83008e-11 DIIS
  Energy and wave function converged.

  ==> Post-Iterations <==

    Orbital Energies [Eh]
    ---------------------

    Doubly Occupied:

       1A    -11.241023     2A    -11.234232     3A    -11.233317
       4A    -11.230691     5A    -11.229799     6A    -11.229232
       7A    -11.228396     8A    -11.216117     9A    -11.213388
      10A     -1.152768    11A     -1.044729    12A     -1.026369
      13A     -1.011435    14A     -0.931353    15A     -0.834553
      16A     -0.824861    17A     -0.794894    18A     -0.691848
      19A     -0.631365    20A     -0.629873    21A     -0.604269
      22A     -0.601357    23A     -0.582657    24A     -0.577598
      25A     -0.560485    26A     -0.534650    27A     -0.505997
      28A     -0.488463    29A     -0.485529    30A     -0.483092
      31A     -0.481519    32A     -0.479268    33A     -0.332130
      34A     -0.321603

    Virtual:

      35A      0.135123    36A      0.142395    37A      0.170250
      38A      0.192066    39A      0.212605    40A      0.215215
      41A      0.232710    42A      0.244313    43A      0.246473
      44A      0.260429    45A      0.267246    46A      0.274767
      47A      0.279823    48A      0.287240    49A      0.333437
      50A      0.344574    51A      0.368895    52A      0.379894
      53A      0.403286    54A      0.455747    55A      0.473181
      56A      0.482736    57A      0.503127    58A      0.571108
      59A      0.591366    60A      0.597244    61A      0.605832
      62A      0.623220    63A      0.638130    64A      0.666852
      65A      0.675163    66A      0.688010    67A      0.695729
      68A      0.716326    69A      0.720440    70A      0.741651
      71A      0.743340    72A      0.748511    73A      0.756992
      74A      0.765749    75A      0.781668    76A      0.820455
      77A      0.842763    78A      0.856885    79A      0.862377
      80A      0.871540    81A      0.875579    82A      0.884982
      83A      0.893085    84A      0.894599    85A      0.897775
      86A      0.910537    87A      0.914378    88A      0.921913
      89A      0.932491    90A      0.940428    91A      0.941742
      92A      0.963840    93A      1.000753    94A      1.005694
      95A      1.038198    96A      1.061570    97A      1.110525
      98A      1.131060    99A      1.143858   100A      1.146746
     101A      1.159895   102A      1.163976   103A      1.191387
     104A      1.239257   105A      1.250297   106A      1.250947
     107A      1.259760   108A      1.288392   109A      1.304902
     110A      1.310699   111A      1.320031   112A      1.333755
     113A      1.416884   114A      1.467922   115A      1.496430
     116A      1.511061   117A      1.519387   118A      1.551751
     119A      1.595210   120A      1.607265   121A      1.678742
     122A      1.681493   123A      1.693493   124A      1.706474
     125A      1.744166   126A      1.751537   127A      1.763215
     128A      1.789385   129A      1.809641   130A      1.846201
     131A      1.867124   132A      1.873050   133A      1.888015
     134A      1.896536   135A      1.905267   136A      1.909545
     137A      1.917394   138A      1.932163   139A      1.942120
     140A      1.947322   141A      1.957697   142A      1.960074
     143A      1.969205   144A      1.976796   145A      1.984256
     146A      1.995704   147A      1.999359   148A      2.004320
     149A      2.045742   150A      2.060009   151A      2.071097
     152A      2.093321   153A      2.123678   154A      2.133361
     155A      2.151459   156A      2.162520   157A      2.177355
     158A      2.191042   159A      2.194783   160A      2.250001
     161A      2.277961   162A      2.292783   163A      2.298204
     164A      2.307283   165A      2.317244   166A      2.322592
     167A      2.347091   168A      2.464705   169A      2.470723
     170A      2.475825   171A      2.486631   172A      2.506008
     173A      2.536951   174A      2.569659   175A      2.597287
     176A      2.621586   177A      2.740746   178A      2.757097
     179A      2.768425   180A      2.773322   181A      2.801566
     182A      2.807148   183A      2.814433   184A      2.850645
     185A      2.855090   186A      2.874445   187A      2.881464
     188A      2.969304   189A      2.974361   190A      2.992945
     191A      3.014964   192A      3.027012   193A      3.156912
     194A      3.206136   195A      3.302094   196A      3.974914

    Final Occupation by Irrep:
              A
    DOCC [    34 ]

  @RHF Final Energy:  -348.99030494807590

   => Energetics <=

    Nuclear Repulsion Energy =            399.5138371183547861
    One-Electron Energy =               -1261.6705691378074334
    Two-Electron Energy =                 513.1664270713766882
    Total Energy =                       -348.9903049480759591

Computation Completed

Properties will be evaluated at   0.000000,   0.000000,   0.000000 [a0]

Properties computed using the SCF density matrix

  Nuclear Dipole Moment: [e a0]
     X:     9.8274      Y:    -3.0589      Z:    -0.9643

  Electronic Dipole Moment: [e a0]
     X:    -9.9463      Y:     3.1163      Z:     1.0334

  Dipole Moment: [e a0]
     X:    -0.1189      Y:     0.0574      Z:     0.0691     Total:     0.1490

  Dipole Moment: [D]
     X:    -0.3022      Y:     0.1459      Z:     0.1757     Total:     0.3788

*** tstop() called on ds3 at Sun Apr 26 23:01:01 2020
Module time:
	user time   =      58.27 seconds =       0.97 minutes
	system time =      25.69 seconds =       0.43 minutes
	total time  =        182 seconds =       3.03 minutes
Total time:
	user time   =      58.27 seconds =       0.97 minutes
	system time =      25.69 seconds =       0.43 minutes
	total time  =        182 seconds =       3.03 minutes
                                     G D M A

                                 by Anthony Stone

                           version 2.2.06, 22 June 2011

               Distributed Multipoles from Gaussian wavefunctions

Starting at 23:1:1 on 26 Apr 2020

Using SCF density matrix from file ./SSI/SSI-027ILE-046PHE-1-dimer.test.18975.fchk

                         Distributed Multipole Analysis

Standard DMA

Positions and radii in angstrom
Multipole moments in atomic units, ea_0^k for rank k

C          x =  3.701732  y = -0.806773  z = -0.423179 angstrom
           Maximum rank =  0   Radius =  0.650 angstrom
                   Q00  =  -0.222726

C          x =  4.226732  y = -1.900773  z = -1.307179 angstrom
           Maximum rank =  0   Radius =  0.650 angstrom
                   Q00  =  -0.232191

H          x =  3.512732  y =  0.098227  z = -1.000179 angstrom
           Maximum rank =  0   Radius =  0.325 angstrom
                   Q00  =   0.076571

H          x =  2.774732  y = -1.137773  z =  0.040821 angstrom
           Maximum rank =  0   Radius =  0.325 angstrom
                   Q00  =   0.074218

H          x =  4.420732  y = -0.593773  z =  0.368821 angstrom
           Maximum rank =  0   Radius =  0.325 angstrom
                   Q00  =   0.076589

H          x =  3.483732  y = -2.112773  z = -2.075179 angstrom
           Maximum rank =  0   Radius =  0.325 angstrom
                   Q00  =   0.071023

H          x =  4.312732  y = -2.789773  z = -0.685179 angstrom
           Maximum rank =  0   Radius =  0.325 angstrom
                   Q00  =   0.073521

H          x =  5.185552  y = -1.656243  z = -1.787659 angstrom
           Maximum rank =  0   Radius =  0.325 angstrom
                   Q00  =   0.081399

C          x = -3.118268  y =  1.433227  z =  1.586821 angstrom
           Maximum rank =  0   Radius =  0.650 angstrom
                   Q00  =  -0.201592

C          x =  0.075732  y = -0.304773  z = -0.713179 angstrom
           Maximum rank =  0   Radius =  0.650 angstrom
                   Q00  =  -0.084686

C          x = -0.731268  y =  0.655227  z = -1.279179 angstrom
           Maximum rank =  0   Radius =  0.650 angstrom
                   Q00  =  -0.062627

C          x = -0.128268  y = -0.703773  z =  0.603821 angstrom
           Maximum rank =  0   Radius =  0.650 angstrom
                   Q00  =  -0.031067

C          x = -1.770268  y =  1.214227  z = -0.532179 angstrom
           Maximum rank =  0   Radius =  0.650 angstrom
                   Q00  =  -0.033745

C          x = -1.151268  y = -0.140773  z =  1.354821 angstrom
           Maximum rank =  0   Radius =  0.650 angstrom
                   Q00  =  -0.081024

C          x = -1.985268  y =  0.828227  z =  0.795821 angstrom
           Maximum rank =  0   Radius =  0.650 angstrom
                   Q00  =  -0.105096

H          x =  0.867732  y = -0.748773  z = -1.299179 angstrom
           Maximum rank =  0   Radius =  0.325 angstrom
                   Q00  =   0.060791

H          x = -0.566268  y =  0.972227  z = -2.297179 angstrom
           Maximum rank =  0   Radius =  0.325 angstrom
                   Q00  =   0.062941

H          x =  0.504732  y = -1.462773  z =  1.042821 angstrom
           Maximum rank =  0   Radius =  0.325 angstrom
                   Q00  =   0.062418

H          x = -2.408268  y =  1.961227  z = -0.985179 angstrom
           Maximum rank =  0   Radius =  0.325 angstrom
                   Q00  =   0.056122

H          x = -1.313268  y = -0.476773  z =  2.364821 angstrom
           Maximum rank =  0   Radius =  0.325 angstrom
                   Q00  =   0.057599

H          x = -3.438268  y =  0.729227  z =  2.352821 angstrom
           Maximum rank =  0   Radius =  0.325 angstrom
                   Q00  =   0.098699

H          x = -3.954268  y =  1.541227  z =  0.895821 angstrom
           Maximum rank =  0   Radius =  0.325 angstrom
                   Q00  =   0.096221

H          x = -2.899458  y =  2.413557  z =  2.035241 angstrom
           Maximum rank =  0   Radius =  0.325 angstrom
                   Q00  =   0.106644

Total multipoles referred to origin at
           x =   0.000000,  y =    0.000000,  z =    0.000000 angstrom
                   Q00  =  -0.000000

Finished at 23:1:1 on 26 Apr 2020

  DMA results are available in the Python driver through the
	  variable('DMA DISTRIBUTED MULTIPOLES')
  and
	  variable('DMA TOTAL MULTIPOLES')
  commands.

    Psi4 stopped on: Sunday, 26 April 2020 11:01PM
    Psi4 wall time for execution: 0:03:02.46

*** Psi4 exiting successfully. Buy a developer a beer!
