                               Psi4 1.3.2 release

  ==> Input File <==

--------------------------------------------------------------------------
import numpy as np
set {scf_type pk
basis cc-pvdz
d_convergence 10
gdma_switch   0
gdma_limit    0
gdma_origin   [ 0.0,  0.0,  0.0 ]
}
molecule test {
    units Angstrom
    0 1
    --
    0 1
    C                2.371049100447044    -1.136641484047969     0.583389049717966
    C                3.739049100447044    -0.500641484047969     0.450389049717966
    C                2.337049100447044    -2.620641484047969     0.315389049717965
    H                2.014049100447044    -0.983641484047969     1.603389049717965
    H                1.676049100447044    -0.634641484047969    -0.091610950282034
    H                4.032049100447044    -0.494641484047969    -0.597610950282034
    H                3.044049100447044    -3.147641484047969     0.955389049717966
    H                1.342049100447044    -2.978641484047969     0.587389049717966
    H                4.514069100447043    -1.051091484047969     1.003869049717966
    H                3.677139100447044     0.525148515952031     0.842709049717966
    H                2.512969100447044    -2.901381484047969    -0.733530950282034
    C               -1.058950899552956     2.822358515952031    -2.077610950282034
    C               -1.194950899552956    -0.480641484047969     0.692389049717966
    C               -0.505950899552956     0.683358515952031     1.015389049717966
    C               -1.856950899552956    -0.561641484047969    -0.523610950282034
    C               -0.465950899552956     1.751358515952031     0.117389049717966
    C               -1.812950899552956     0.499358515952031    -1.423610950282034
    C               -1.120950899552956     1.676358515952031    -1.109610950282034
    O               -1.222950899552956    -1.518641484047969     1.583389049717965
    H               -0.000950899552956     0.765358515952031     1.967389049717966
    H               -0.755950899552956    -1.310641484047969     2.401389049717966
    H               -2.402950899552956    -1.460641484047969    -0.772610950282034
    H                0.059049100447044     2.655358515952031     0.382389049717966
    H               -2.341950899552956     0.414358515952031    -2.363610950282034
    H               -1.411950899552956     2.499358515952031    -3.058610950282035
    H               -0.021950899552956     3.132358515952031    -2.187610950282035
    H               -1.652430899552956     3.680638515952031    -1.729560950282034

}
e, wfn = energy('scf', return_wfn=True)
gdma(wfn)
dmavals = variable('DMA DISTRIBUTED MULTIPOLES')
charges = np.array(dmavals)
print(charges)
np.save('SSI-012GLN-048TYR-1-dimer.npy', np.array(charges))--------------------------------------------------------------------------

*** tstart() called on ds3
*** at Mon Apr 27 16:22:33 2020

   => Loading Basis Set <=

    Name: CC-PVDZ
    Role: ORBITAL
    Keyword: BASIS
    atoms 1-3, 12-18  entry C          line   138 file /theoryfs2/ds/metcalf/miniconda2/envs/tf2gpu/share/psi4/basis/cc-pvdz.gbs
    atoms 4-11, 20-27 entry H          line    22 file /theoryfs2/ds/metcalf/miniconda2/envs/tf2gpu/share/psi4/basis/cc-pvdz.gbs
    atoms 19          entry O          line   198 file /theoryfs2/ds/metcalf/miniconda2/envs/tf2gpu/share/psi4/basis/cc-pvdz.gbs

         ---------------------------------------------------------
                                   SCF
               by Justin Turney, Rob Parrish, Andy Simmonett
                          and Daniel G. A. Smith
                              RHF Reference
                        1 Threads,    500 MiB Core
         ---------------------------------------------------------

  ==> Geometry <==

    Molecular point group: c1
    Full point group: C1

    Geometry (in Angstrom), charge = 0, multiplicity = 1:

       Center              X                  Y                   Z               Mass
    ------------   -----------------  -----------------  -----------------  -----------------
         C            2.371049100447    -1.136641484048     0.583389049718    12.000000000000
         C            3.739049100447    -0.500641484048     0.450389049718    12.000000000000
         C            2.337049100447    -2.620641484048     0.315389049718    12.000000000000
         H            2.014049100447    -0.983641484048     1.603389049718     1.007825032230
         H            1.676049100447    -0.634641484048    -0.091610950282     1.007825032230
         H            4.032049100447    -0.494641484048    -0.597610950282     1.007825032230
         H            3.044049100447    -3.147641484048     0.955389049718     1.007825032230
         H            1.342049100447    -2.978641484048     0.587389049718     1.007825032230
         H            4.514069100447    -1.051091484048     1.003869049718     1.007825032230
         H            3.677139100447     0.525148515952     0.842709049718     1.007825032230
         H            2.512969100447    -2.901381484048    -0.733530950282     1.007825032230
         C           -1.058950899553     2.822358515952    -2.077610950282    12.000000000000
         C           -1.194950899553    -0.480641484048     0.692389049718    12.000000000000
         C           -0.505950899553     0.683358515952     1.015389049718    12.000000000000
         C           -1.856950899553    -0.561641484048    -0.523610950282    12.000000000000
         C           -0.465950899553     1.751358515952     0.117389049718    12.000000000000
         C           -1.812950899553     0.499358515952    -1.423610950282    12.000000000000
         C           -1.120950899553     1.676358515952    -1.109610950282    12.000000000000
         O           -1.222950899553    -1.518641484048     1.583389049718    15.994914619570
         H           -0.000950899553     0.765358515952     1.967389049718     1.007825032230
         H           -0.755950899553    -1.310641484048     2.401389049718     1.007825032230
         H           -2.402950899553    -1.460641484048    -0.772610950282     1.007825032230
         H            0.059049100447     2.655358515952     0.382389049718     1.007825032230
         H           -2.341950899553     0.414358515952    -2.363610950282     1.007825032230
         H           -1.411950899553     2.499358515952    -3.058610950282     1.007825032230
         H           -0.021950899553     3.132358515952    -2.187610950282     1.007825032230
         H           -1.652430899553     3.680638515952    -1.729560950282     1.007825032230

  Running in c1 symmetry.

  Rotational constants: A =      0.04294  B =      0.02001  C =      0.01614 [cm^-1]
  Rotational constants: A =   1287.20731  B =    600.02309  C =    483.76528 [MHz]
  Nuclear repulsion =  590.755261748969701

  Charge       = 0
  Multiplicity = 1
  Electrons    = 84
  Nalpha       = 42
  Nbeta        = 42

  ==> Algorithm <==

  SCF Algorithm Type is PK.
  DIIS enabled.
  MOM disabled.
  Fractional occupation disabled.
  Guess Type is SAD.
  Energy threshold   = 1.00e-06
  Density threshold  = 1.00e-10
  Integral threshold = 0.00e+00

  ==> Primary Basis <==

  Basis Set: CC-PVDZ
    Blend: CC-PVDZ
    Number of shells: 114
    Number of basis function: 234
    Number of Cartesian functions: 245
    Spherical Harmonics?: true
    Max angular momentum: 2

  ==> Pre-Iterations <==

   -------------------------------------------------------
    Irrep   Nso     Nmo     Nalpha   Nbeta   Ndocc  Nsocc
   -------------------------------------------------------
     A        234     234       0       0       0       0
   -------------------------------------------------------
    Total     234     234      42      42      42       0
   -------------------------------------------------------

  ==> Integral Setup <==

  Using integral reordering PK algorithm.
  Sizing the integral batches needed.
  Building batch lookup table.
   Calculation information:
      Number of atoms:                  27
      Number of AO shells:             114
      Number of primitives:            322
      Number of atomic orbitals:       245
      Number of basis functions:       234

      Integral cutoff                 1.00e-12
      Number of threads:                 1

	Batch   1 pq = [       0,    9405] index = [             0,44231715] size =     44231715
	Batch   2 pq = [    9405,   13301] index = [      44231715,88464951] size =     44233236
	Batch   3 pq = [   13301,   16290] index = [      88464951,132690195] size =     44225244
	Batch   4 pq = [   16290,   18810] index = [     132690195,176917455] size =     44227260
	Batch   5 pq = [   18810,   21030] index = [     176917455,221140965] size =     44223510
	Batch   6 pq = [   21030,   23037] index = [     221140965,265363203] size =     44222238
	Batch   7 pq = [   23037,   24883] index = [     265363203,309594286] size =     44231083
	Batch   8 pq = [   24883,   26601] index = [     309594286,353819901] size =     44225615
	Batch   9 pq = [   26601,   27495] index = [     353819901,378001260] size =     24181359
  Task number: 35
  Buffer size: 11059200
  Buffer per thread: 2
  We computed 20857933 shell quartets total.
  Whereas there are 21487290 unique shell quartets.

  ==> DiskJK: Disk-Based J/K Matrices <==

    J tasked:                  Yes
    K tasked:                  Yes
    wK tasked:                  No
    Memory [MiB]:              375
    Schwarz Cutoff:          1E-12

    OpenMP threads:              1

  Minimum eigenvalue in the overlap matrix is 3.2221303209E-04.
  Using Symmetric Orthogonalization.

  SCF Guess: Superposition of Atomic Densities via on-the-fly atomic UHF.

  ==> Iterations <==

                        Total Energy        Delta E     RMS |[F,P]|

   @RHF iter SAD:  -461.74884501415971   -4.61749e+02   0.00000e+00
   @RHF iter   1:  -462.60130884117285   -8.52464e-01   2.84239e-03 DIIS
   @RHF iter   2:  -462.84688410907080   -2.45575e-01   1.21845e-03 DIIS
   @RHF iter   3:  -462.88787732792809   -4.09932e-02   2.70341e-04 DIIS
   @RHF iter   4:  -462.89117073569923   -3.29341e-03   1.06208e-04 DIIS
   @RHF iter   5:  -462.89152911801307   -3.58382e-04   2.06245e-05 DIIS
   @RHF iter   6:  -462.89154874066702   -1.96227e-05   6.40191e-06 DIIS
   @RHF iter   7:  -462.89155066064666   -1.91998e-06   1.76305e-06 DIIS
   @RHF iter   8:  -462.89155086152095   -2.00874e-07   6.73384e-07 DIIS
   @RHF iter   9:  -462.89155088578275   -2.42618e-08   2.19579e-07 DIIS
   @RHF iter  10:  -462.89155088856222   -2.77947e-09   6.23806e-08 DIIS
   @RHF iter  11:  -462.89155088890817   -3.45949e-10   2.17053e-08 DIIS
   @RHF iter  12:  -462.89155088896803   -5.98561e-11   1.32564e-08 DIIS
   @RHF iter  13:  -462.89155088898815   -2.01226e-11   5.70279e-09 DIIS
   @RHF iter  14:  -462.89155088899508   -6.93490e-12   1.82324e-09 DIIS
   @RHF iter  15:  -462.89155088899616   -1.08002e-12   6.12302e-10 DIIS
   @RHF iter  16:  -462.89155088899616    0.00000e+00   1.83740e-10 DIIS
   @RHF iter  17:  -462.89155088899867   -2.50111e-12   7.62300e-11 DIIS
  Energy and wave function converged.

  ==> Post-Iterations <==

    Orbital Energies [Eh]
    ---------------------

    Doubly Occupied:

       1A    -20.584828     2A    -11.298644     3A    -11.239016
       4A    -11.238356     5A    -11.234707     6A    -11.233883
       7A    -11.230908     8A    -11.228643     9A    -11.212653
      10A    -11.211732    11A    -11.207832    12A     -1.397916
      13A     -1.151456    14A     -1.053431    15A     -1.039826
      16A     -1.017380    17A     -0.927833    18A     -0.922729
      19A     -0.844742    20A     -0.802039    21A     -0.790086
      22A     -0.732300    23A     -0.668501    24A     -0.641675
      25A     -0.622541    26A     -0.609064    27A     -0.594983
      28A     -0.585935    29A     -0.582327    30A     -0.571489
      31A     -0.567771    32A     -0.550065    33A     -0.528272
      34A     -0.527255    35A     -0.499966    36A     -0.484046
      37A     -0.475664    38A     -0.466925    39A     -0.459621
      40A     -0.457647    41A     -0.337982    42A     -0.302680

    Virtual:

      43A      0.129288    44A      0.153569    45A      0.163557
      46A      0.183468    47A      0.199358    48A      0.210298
      49A      0.214875    50A      0.238728    51A      0.246916
      52A      0.256098    53A      0.264320    54A      0.267824
      55A      0.272220    56A      0.285096    57A      0.292070
      58A      0.302415    59A      0.308138    60A      0.310156
      61A      0.367180    62A      0.372532    63A      0.377755
      64A      0.428367    65A      0.438725    66A      0.453749
      67A      0.485093    68A      0.494934    69A      0.509467
      70A      0.581002    71A      0.596514    72A      0.606750
      73A      0.607630    74A      0.618128    75A      0.629176
      76A      0.634885    77A      0.659583    78A      0.663445
      79A      0.692353    80A      0.709906    81A      0.727039
      82A      0.730727    83A      0.738156    84A      0.761037
      85A      0.771177    86A      0.777885    87A      0.784523
      88A      0.789942    89A      0.818615    90A      0.824624
      91A      0.833184    92A      0.842740    93A      0.856868
      94A      0.871529    95A      0.884380    96A      0.890541
      97A      0.893026    98A      0.894793    99A      0.905300
     100A      0.906118   101A      0.914203   102A      0.920868
     103A      0.920961   104A      0.924550   105A      0.934718
     106A      0.943917   107A      0.947228   108A      0.962534
     109A      0.969799   110A      0.995706   111A      1.004948
     112A      1.033116   113A      1.041686   114A      1.070485
     115A      1.122099   116A      1.132005   117A      1.143185
     118A      1.146901   119A      1.151379   120A      1.188643
     121A      1.208519   122A      1.224739   123A      1.241901
     124A      1.251461   125A      1.269272   126A      1.290178
     127A      1.304248   128A      1.317584   129A      1.322720
     130A      1.354738   131A      1.366644   132A      1.384396
     133A      1.401009   134A      1.466108   135A      1.482370
     136A      1.492761   137A      1.514314   138A      1.526431
     139A      1.553084   140A      1.561478   141A      1.618105
     142A      1.622037   143A      1.653925   144A      1.678365
     145A      1.687155   146A      1.691729   147A      1.700874
     148A      1.711476   149A      1.735350   150A      1.755879
     151A      1.787320   152A      1.815796   153A      1.819848
     154A      1.862674   155A      1.870205   156A      1.879134
     157A      1.889116   158A      1.895568   159A      1.907675
     160A      1.911095   161A      1.916972   162A      1.923170
     163A      1.927291   164A      1.943146   165A      1.950316
     166A      1.956967   167A      1.961555   168A      1.972642
     169A      1.979069   170A      1.989063   171A      2.003687
     172A      2.005717   173A      2.017341   174A      2.025779
     175A      2.039809   176A      2.046396   177A      2.060432
     178A      2.067920   179A      2.073788   180A      2.096881
     181A      2.122024   182A      2.139841   183A      2.145480
     184A      2.159993   185A      2.182313   186A      2.209438
     187A      2.223894   188A      2.258519   189A      2.271212
     190A      2.293428   191A      2.308317   192A      2.317956
     193A      2.351550   194A      2.354087   195A      2.371726
     196A      2.399394   197A      2.405739   198A      2.457190
     199A      2.475811   200A      2.497908   201A      2.502154
     202A      2.530607   203A      2.546544   204A      2.578815
     205A      2.584331   206A      2.613734   207A      2.619230
     208A      2.635425   209A      2.659699   210A      2.739844
     211A      2.761281   212A      2.765700   213A      2.771755
     214A      2.792580   215A      2.793027   216A      2.808643
     217A      2.831543   218A      2.843685   219A      2.895016
     220A      2.931845   221A      2.962098   222A      2.990975
     223A      3.003485   224A      3.015279   225A      3.080098
     226A      3.088579   227A      3.120338   228A      3.248778
     229A      3.285665   230A      3.345581   231A      3.580006
     232A      3.662610   233A      3.979231   234A      4.187627

    Final Occupation by Irrep:
              A
    DOCC [    42 ]

  @RHF Final Energy:  -462.89155088899867

   => Energetics <=

    Nuclear Repulsion Energy =            590.7552617489697013
    One-Electron Energy =               -1799.0229264330314436
    Two-Electron Energy =                 745.3761137950631337
    Total Energy =                       -462.8915508889987223

Computation Completed

Properties will be evaluated at   0.000000,   0.000000,   0.000000 [a0]

Properties computed using the SCF density matrix

  Nuclear Dipole Moment: [e a0]
     X:    13.3843      Y:    -1.2170      Z:    -1.6713

  Electronic Dipole Moment: [e a0]
     X:   -13.1977      Y:     1.7007      Z:     1.8533

  Dipole Moment: [e a0]
     X:     0.1867      Y:     0.4837      Z:     0.1821     Total:     0.5495

  Dipole Moment: [D]
     X:     0.4744      Y:     1.2294      Z:     0.4628     Total:     1.3967

*** tstop() called on ds3 at Mon Apr 27 16:25:55 2020
Module time:
	user time   =     154.30 seconds =       2.57 minutes
	system time =      58.39 seconds =       0.97 minutes
	total time  =        202 seconds =       3.37 minutes
Total time:
	user time   =     154.30 seconds =       2.57 minutes
	system time =      58.39 seconds =       0.97 minutes
	total time  =        202 seconds =       3.37 minutes
                                     G D M A

                                 by Anthony Stone

                           version 2.2.06, 22 June 2011

               Distributed Multipoles from Gaussian wavefunctions

Starting at 16:25:55 on 27 Apr 2020

Using SCF density matrix from file ./SSI/SSI-012GLN-048TYR-1-dimer.test.26615.fchk

                         Distributed Multipole Analysis

Standard DMA

Positions and radii in angstrom
Multipole moments in atomic units, ea_0^k for rank k

C          x =  2.371049  y = -1.136641  z =  0.583389 angstrom
           Maximum rank =  0   Radius =  0.650 angstrom
                   Q00  =  -0.050256

C          x =  3.739049  y = -0.500641  z =  0.450389 angstrom
           Maximum rank =  0   Radius =  0.650 angstrom
                   Q00  =  -0.244761

C          x =  2.337049  y = -2.620641  z =  0.315389 angstrom
           Maximum rank =  0   Radius =  0.650 angstrom
                   Q00  =  -0.247858

H          x =  2.014049  y = -0.983641  z =  1.603389 angstrom
           Maximum rank =  0   Radius =  0.325 angstrom
                   Q00  =   0.017274

H          x =  1.676049  y = -0.634641  z = -0.091611 angstrom
           Maximum rank =  0   Radius =  0.325 angstrom
                   Q00  =   0.062423

H          x =  4.032049  y = -0.494641  z = -0.597611 angstrom
           Maximum rank =  0   Radius =  0.325 angstrom
                   Q00  =   0.078181

H          x =  3.044049  y = -3.147641  z =  0.955389 angstrom
           Maximum rank =  0   Radius =  0.325 angstrom
                   Q00  =   0.069995

H          x =  1.342049  y = -2.978641  z =  0.587389 angstrom
           Maximum rank =  0   Radius =  0.325 angstrom
                   Q00  =   0.080596

H          x =  4.514069  y = -1.051091  z =  1.003869 angstrom
           Maximum rank =  0   Radius =  0.325 angstrom
                   Q00  =   0.072250

H          x =  3.677139  y =  0.525149  z =  0.842709 angstrom
           Maximum rank =  0   Radius =  0.325 angstrom
                   Q00  =   0.076120

H          x =  2.512969  y = -2.901381  z = -0.733531 angstrom
           Maximum rank =  0   Radius =  0.325 angstrom
                   Q00  =   0.078470

C          x = -1.058951  y =  2.822359  z = -2.077611 angstrom
           Maximum rank =  0   Radius =  0.650 angstrom
                   Q00  =  -0.197787

C          x = -1.194951  y = -0.480641  z =  0.692389 angstrom
           Maximum rank =  0   Radius =  0.650 angstrom
                   Q00  =   0.315161

C          x = -0.505951  y =  0.683359  z =  1.015389 angstrom
           Maximum rank =  0   Radius =  0.650 angstrom
                   Q00  =  -0.141211

C          x = -1.856951  y = -0.561641  z = -0.523611 angstrom
           Maximum rank =  0   Radius =  0.650 angstrom
                   Q00  =  -0.076684

C          x = -0.465951  y =  1.751359  z =  0.117389 angstrom
           Maximum rank =  0   Radius =  0.650 angstrom
                   Q00  =  -0.061155

C          x = -1.812951  y =  0.499359  z = -1.423611 angstrom
           Maximum rank =  0   Radius =  0.650 angstrom
                   Q00  =  -0.001197

C          x = -1.120951  y =  1.676359  z = -1.109611 angstrom
           Maximum rank =  0   Radius =  0.650 angstrom
                   Q00  =  -0.134441

O          x = -1.222951  y = -1.518641  z =  1.583389 angstrom
           Maximum rank =  0   Radius =  0.650 angstrom
                   Q00  =  -0.682019

H          x = -0.000951  y =  0.765359  z =  1.967389 angstrom
           Maximum rank =  0   Radius =  0.325 angstrom
                   Q00  =   0.070913

H          x = -0.755951  y = -1.310641  z =  2.401389 angstrom
           Maximum rank =  0   Radius =  0.325 angstrom
                   Q00  =   0.409889

H          x = -2.402951  y = -1.460641  z = -0.772611 angstrom
           Maximum rank =  0   Radius =  0.325 angstrom
                   Q00  =   0.080487

H          x =  0.059049  y =  2.655359  z =  0.382389 angstrom
           Maximum rank =  0   Radius =  0.325 angstrom
                   Q00  =   0.066601

H          x = -2.341951  y =  0.414359  z = -2.363611 angstrom
           Maximum rank =  0   Radius =  0.325 angstrom
                   Q00  =   0.065333

H          x = -1.411951  y =  2.499359  z = -3.058611 angstrom
           Maximum rank =  0   Radius =  0.325 angstrom
                   Q00  =   0.097629

H          x = -0.021951  y =  3.132359  z = -2.187611 angstrom
           Maximum rank =  0   Radius =  0.325 angstrom
                   Q00  =   0.097075

H          x = -1.652431  y =  3.680639  z = -1.729561 angstrom
           Maximum rank =  0   Radius =  0.325 angstrom
                   Q00  =   0.098972

Total multipoles referred to origin at
           x =   0.000000,  y =    0.000000,  z =    0.000000 angstrom
                   Q00  =  -0.000000

Finished at 16:25:55 on 27 Apr 2020

  DMA results are available in the Python driver through the
	  variable('DMA DISTRIBUTED MULTIPOLES')
  and
	  variable('DMA TOTAL MULTIPOLES')
  commands.

    Psi4 stopped on: Monday, 27 April 2020 04:25PM
    Psi4 wall time for execution: 0:03:22.54

*** Psi4 exiting successfully. Buy a developer a beer!
