                               Psi4 1.3.2 release

  ==> Input File <==

--------------------------------------------------------------------------
import numpy as np
set {scf_type pk
basis cc-pvdz
d_convergence 10
gdma_switch   0
gdma_limit    0
gdma_origin   [ 0.0,  0.0,  0.0 ]
}
molecule test {
    units Angstrom
    0 1
    --
    0 1
    C                1.451644179154158    -0.883642042923169     1.282118594183879
    C                2.167644179154158    -2.202642042923169     1.065118594183879
    H                0.376644179154158    -1.037642042923169     1.246118594183879
    H                1.690644179154158    -0.494642042923169     2.271118594183879
    H                1.769644179154158    -0.156642042923169     0.537118594183879
    H                1.768644179154158    -2.917642042923169     1.785118594183879
    H                1.999057179154158    -2.585729042923169     0.047856594183879
    H                3.241515179154158    -2.072833042923169     1.264994594183879
    C               -0.641355820845842     0.882357957076831    -0.836881405816121
    C               -1.331355820845842     1.990357957076831    -1.536881405816121
    O               -1.495355820845842     0.160357957076831    -0.005881405816121
    H               -0.680355820845842     0.560357957076831    -1.857881405816121
    H                0.322644179154158     1.179357957076831    -0.423881405816121
    H               -0.690355820845842     2.377357957076831    -2.327881405816121
    H               -1.922355820845842     0.697357957076831     0.698118594183879
    H               -1.490026820845842     2.806597957076831    -0.816759405816121
    H               -2.258823820845842     1.642022957076831    -2.014862305816121

}
e, wfn = energy('scf', return_wfn=True)
gdma(wfn)
dmavals = variable('DMA DISTRIBUTED MULTIPOLES')
charges = np.array(dmavals)
print(charges)
np.save('SSI-002VAL-046SER-1-dimer.npy', np.array(charges))--------------------------------------------------------------------------

*** tstart() called on ds3
*** at Mon Apr 27 21:26:07 2020

   => Loading Basis Set <=

    Name: CC-PVDZ
    Role: ORBITAL
    Keyword: BASIS
    atoms 1-2, 9-10  entry C          line   138 file /theoryfs2/ds/metcalf/miniconda2/envs/tf2gpu/share/psi4/basis/cc-pvdz.gbs
    atoms 3-8, 12-17 entry H          line    22 file /theoryfs2/ds/metcalf/miniconda2/envs/tf2gpu/share/psi4/basis/cc-pvdz.gbs
    atoms 11         entry O          line   198 file /theoryfs2/ds/metcalf/miniconda2/envs/tf2gpu/share/psi4/basis/cc-pvdz.gbs

         ---------------------------------------------------------
                                   SCF
               by Justin Turney, Rob Parrish, Andy Simmonett
                          and Daniel G. A. Smith
                              RHF Reference
                        1 Threads,    500 MiB Core
         ---------------------------------------------------------

  ==> Geometry <==

    Molecular point group: c1
    Full point group: C1

    Geometry (in Angstrom), charge = 0, multiplicity = 1:

       Center              X                  Y                   Z               Mass
    ------------   -----------------  -----------------  -----------------  -----------------
         C            1.451644179154    -0.883642042923     1.282118594184    12.000000000000
         C            2.167644179154    -2.202642042923     1.065118594184    12.000000000000
         H            0.376644179154    -1.037642042923     1.246118594184     1.007825032230
         H            1.690644179154    -0.494642042923     2.271118594184     1.007825032230
         H            1.769644179154    -0.156642042923     0.537118594184     1.007825032230
         H            1.768644179154    -2.917642042923     1.785118594184     1.007825032230
         H            1.999057179154    -2.585729042923     0.047856594184     1.007825032230
         H            3.241515179154    -2.072833042923     1.264994594184     1.007825032230
         C           -0.641355820846     0.882357957077    -0.836881405816    12.000000000000
         C           -1.331355820846     1.990357957077    -1.536881405816    12.000000000000
         O           -1.495355820846     0.160357957077    -0.005881405816    15.994914619570
         H           -0.680355820846     0.560357957077    -1.857881405816     1.007825032230
         H            0.322644179154     1.179357957077    -0.423881405816     1.007825032230
         H           -0.690355820846     2.377357957077    -2.327881405816     1.007825032230
         H           -1.922355820846     0.697357957077     0.698118594184     1.007825032230
         H           -1.490026820846     2.806597957077    -0.816759405816     1.007825032230
         H           -2.258823820846     1.642022957077    -2.014862305816     1.007825032230

  Running in c1 symmetry.

  Rotational constants: A =      0.34955  B =      0.04145  C =      0.03956 [cm^-1]
  Rotational constants: A =  10479.31168  B =   1242.53029  C =   1185.99678 [MHz]
  Nuclear repulsion =  182.548793801622622

  Charge       = 0
  Multiplicity = 1
  Electrons    = 44
  Nalpha       = 22
  Nbeta        = 22

  ==> Algorithm <==

  SCF Algorithm Type is PK.
  DIIS enabled.
  MOM disabled.
  Fractional occupation disabled.
  Guess Type is SAD.
  Energy threshold   = 1.00e-06
  Density threshold  = 1.00e-10
  Integral threshold = 0.00e+00

  ==> Primary Basis <==

  Basis Set: CC-PVDZ
    Blend: CC-PVDZ
    Number of shells: 66
    Number of basis function: 130
    Number of Cartesian functions: 135
    Spherical Harmonics?: true
    Max angular momentum: 2

  ==> Pre-Iterations <==

   -------------------------------------------------------
    Irrep   Nso     Nmo     Nalpha   Nbeta   Ndocc  Nsocc
   -------------------------------------------------------
     A        130     130       0       0       0       0
   -------------------------------------------------------
    Total     130     130      22      22      22       0
   -------------------------------------------------------

  ==> Integral Setup <==

  Using integral reordering PK algorithm.
  Sizing the integral batches needed.
  Building batch lookup table.
   Calculation information:
      Number of atoms:                  17
      Number of AO shells:              66
      Number of primitives:            170
      Number of atomic orbitals:       135
      Number of basis functions:       130

      Integral cutoff                 1.00e-12
      Number of threads:                 1

	Batch   1 pq = [       0,    8515] index = [             0,36256870] size =     36256870
  Task number: 4
  Buffer size: 11059200
  Buffer per thread: 2
  We computed 1977972 shell quartets total.
  Whereas there are 2445366 unique shell quartets.

  ==> DiskJK: Disk-Based J/K Matrices <==

    J tasked:                  Yes
    K tasked:                  Yes
    wK tasked:                  No
    Memory [MiB]:              375
    Schwarz Cutoff:          1E-12

    OpenMP threads:              1

  Minimum eigenvalue in the overlap matrix is 4.8488006113E-03.
  Using Symmetric Orthogonalization.

  SCF Guess: Superposition of Atomic Densities via on-the-fly atomic UHF.

  ==> Iterations <==

                        Total Energy        Delta E     RMS |[F,P]|

   @RHF iter SAD:  -232.33440820704902   -2.32334e+02   0.00000e+00
   @RHF iter   1:  -233.08356951493448   -7.49161e-01   4.23793e-03 DIIS
   @RHF iter   2:  -233.23696688871797   -1.53397e-01   1.94111e-03 DIIS
   @RHF iter   3:  -233.26583726156358   -2.88704e-02   3.83437e-04 DIIS
   @RHF iter   4:  -233.26798295004838   -2.14569e-03   1.24101e-04 DIIS
   @RHF iter   5:  -233.26812975601231   -1.46806e-04   2.78790e-05 DIIS
   @RHF iter   6:  -233.26814133087109   -1.15749e-05   5.84755e-06 DIIS
   @RHF iter   7:  -233.26814214764926   -8.16778e-07   1.46625e-06 DIIS
   @RHF iter   8:  -233.26814220332116   -5.56719e-08   4.13215e-07 DIIS
   @RHF iter   9:  -233.26814220696480   -3.64363e-09   1.18405e-07 DIIS
   @RHF iter  10:  -233.26814220724930   -2.84501e-10   2.51565e-08 DIIS
   @RHF iter  11:  -233.26814220726146   -1.21645e-11   6.22800e-09 DIIS
   @RHF iter  12:  -233.26814220726271   -1.25056e-12   1.93607e-09 DIIS
   @RHF iter  13:  -233.26814220726229    4.26326e-13   5.96942e-10 DIIS
   @RHF iter  14:  -233.26814220726192    3.69482e-13   1.78497e-10 DIIS
   @RHF iter  15:  -233.26814220726197   -5.68434e-14   5.44749e-11 DIIS
  Energy and wave function converged.

  ==> Post-Iterations <==

    Orbital Energies [Eh]
    ---------------------

    Doubly Occupied:

       1A    -20.556558     2A    -11.264037     3A    -11.225491
       4A    -11.210793     5A    -11.203955     6A     -1.358413
       7A     -1.045885     8A     -1.013258     9A     -0.832615
      10A     -0.824963    11A     -0.688336    12A     -0.659954
      13A     -0.618336    14A     -0.593784    15A     -0.588707
      16A     -0.547736    17A     -0.517189    18A     -0.492381
      19A     -0.480861    20A     -0.473336    21A     -0.451712
      22A     -0.409940

    Virtual:

      23A      0.178639    24A      0.195577    25A      0.206180
      26A      0.228113    27A      0.250776    28A      0.254888
      29A      0.261859    30A      0.270570    31A      0.277067
      32A      0.288774    33A      0.317355    34A      0.339532
      35A      0.386389    36A      0.401381    37A      0.416714
      38A      0.573233    39A      0.606057    40A      0.611842
      41A      0.627004    42A      0.640222    43A      0.659450
      44A      0.681979    45A      0.694197    46A      0.756948
      47A      0.794249    48A      0.844089    49A      0.866089
      50A      0.871516    51A      0.882697    52A      0.894225
      53A      0.901058    54A      0.901918    55A      0.906391
      56A      0.918410    57A      0.925174    58A      0.933324
      59A      0.954777    60A      0.956799    61A      0.991162
      62A      1.104984    63A      1.131150    64A      1.169325
      65A      1.185171    66A      1.237092    67A      1.253080
      68A      1.279363    69A      1.340309    70A      1.423304
      71A      1.476778    72A      1.491402    73A      1.494975
      74A      1.519056    75A      1.580853    76A      1.625421
      77A      1.656574    78A      1.687777    79A      1.694347
      80A      1.713067    81A      1.774281    82A      1.805455
      83A      1.829230    84A      1.858919    85A      1.874945
      86A      1.887952    87A      1.899477    88A      1.933858
      89A      1.951445    90A      1.960122    91A      1.966630
      92A      1.974478    93A      1.980132    94A      1.988139
      95A      2.004942    96A      2.053427    97A      2.104174
      98A      2.116321    99A      2.131477   100A      2.142805
     101A      2.197148   102A      2.252077   103A      2.295128
     104A      2.314148   105A      2.323830   106A      2.397520
     107A      2.437728   108A      2.464447   109A      2.494708
     110A      2.521295   111A      2.538531   112A      2.578785
     113A      2.590415   114A      2.633707   115A      2.761392
     116A      2.769469   117A      2.799962   118A      2.811439
     119A      2.861473   120A      2.865374   121A      2.872663
     122A      2.923013   123A      2.957892   124A      2.981212
     125A      2.987746   126A      3.294591   127A      3.393592
     128A      3.510150   129A      3.678904   130A      4.066305

    Final Occupation by Irrep:
              A
    DOCC [    22 ]

  @RHF Final Energy:  -233.26814220726197

   => Energetics <=

    Nuclear Repulsion Energy =            182.5487938016226224
    One-Electron Energy =                -677.5173936639142767
    Two-Electron Energy =                 261.7004576550296520
    Total Energy =                       -233.2681422072619739

Computation Completed

Properties will be evaluated at   0.000000,   0.000000,   0.000000 [a0]

Properties computed using the SCF density matrix

  Nuclear Dipole Moment: [e a0]
     X:     3.8616      Y:    -0.0012      Z:     0.3836

  Electronic Dipole Moment: [e a0]
     X:    -3.9235      Y:     0.6846      Z:    -0.3793

  Dipole Moment: [e a0]
     X:    -0.0619      Y:     0.6835      Z:     0.0043     Total:     0.6863

  Dipole Moment: [D]
     X:    -0.1574      Y:     1.7372      Z:     0.0109     Total:     1.7443

*** tstop() called on ds3 at Mon Apr 27 21:26:25 2020
Module time:
	user time   =      11.40 seconds =       0.19 minutes
	system time =       4.76 seconds =       0.08 minutes
	total time  =         18 seconds =       0.30 minutes
Total time:
	user time   =      11.40 seconds =       0.19 minutes
	system time =       4.76 seconds =       0.08 minutes
	total time  =         18 seconds =       0.30 minutes
                                     G D M A

                                 by Anthony Stone

                           version 2.2.06, 22 June 2011

               Distributed Multipoles from Gaussian wavefunctions

Starting at 21:26:25 on 27 Apr 2020

Using SCF density matrix from file ./SSI/SSI-002VAL-046SER-1-dimer.test.7219.fchk

                         Distributed Multipole Analysis

Standard DMA

Positions and radii in angstrom
Multipole moments in atomic units, ea_0^k for rank k

C          x =  1.451644  y = -0.883642  z =  1.282119 angstrom
           Maximum rank =  0   Radius =  0.650 angstrom
                   Q00  =  -0.227619

C          x =  2.167644  y = -2.202642  z =  1.065119 angstrom
           Maximum rank =  0   Radius =  0.650 angstrom
                   Q00  =  -0.228536

H          x =  0.376644  y = -1.037642  z =  1.246119 angstrom
           Maximum rank =  0   Radius =  0.325 angstrom
                   Q00  =   0.090412

H          x =  1.690644  y = -0.494642  z =  2.271119 angstrom
           Maximum rank =  0   Radius =  0.325 angstrom
                   Q00  =   0.067419

H          x =  1.769644  y = -0.156642  z =  0.537119 angstrom
           Maximum rank =  0   Radius =  0.325 angstrom
                   Q00  =   0.066647

H          x =  1.768644  y = -2.917642  z =  1.785119 angstrom
           Maximum rank =  0   Radius =  0.325 angstrom
                   Q00  =   0.074621

H          x =  1.999057  y = -2.585729  z =  0.047857 angstrom
           Maximum rank =  0   Radius =  0.325 angstrom
                   Q00  =   0.079831

H          x =  3.241515  y = -2.072833  z =  1.264995 angstrom
           Maximum rank =  0   Radius =  0.325 angstrom
                   Q00  =   0.070267

C          x = -0.641356  y =  0.882358  z = -0.836881 angstrom
           Maximum rank =  0   Radius =  0.650 angstrom
                   Q00  =   0.063987

C          x = -1.331356  y =  1.990358  z = -1.536881 angstrom
           Maximum rank =  0   Radius =  0.650 angstrom
                   Q00  =  -0.148105

O          x = -1.495356  y =  0.160358  z = -0.005881 angstrom
           Maximum rank =  0   Radius =  0.650 angstrom
                   Q00  =  -0.607888

H          x = -0.680356  y =  0.560358  z = -1.857881 angstrom
           Maximum rank =  0   Radius =  0.325 angstrom
                   Q00  =   0.068037

H          x =  0.322644  y =  1.179358  z = -0.423881 angstrom
           Maximum rank =  0   Radius =  0.325 angstrom
                   Q00  =   0.037205

H          x = -0.690356  y =  2.377358  z = -2.327881 angstrom
           Maximum rank =  0   Radius =  0.325 angstrom
                   Q00  =   0.077072

H          x = -1.922356  y =  0.697358  z =  0.698119 angstrom
           Maximum rank =  0   Radius =  0.325 angstrom
                   Q00  =   0.385981

H          x = -1.490027  y =  2.806598  z = -0.816759 angstrom
           Maximum rank =  0   Radius =  0.325 angstrom
                   Q00  =   0.043336

H          x = -2.258824  y =  1.642023  z = -2.014862 angstrom
           Maximum rank =  0   Radius =  0.325 angstrom
                   Q00  =   0.087332

Total multipoles referred to origin at
           x =   0.000000,  y =    0.000000,  z =    0.000000 angstrom
                   Q00  =  -0.000000

Finished at 21:26:25 on 27 Apr 2020

  DMA results are available in the Python driver through the
	  variable('DMA DISTRIBUTED MULTIPOLES')
  and
	  variable('DMA TOTAL MULTIPOLES')
  commands.

    Psi4 stopped on: Monday, 27 April 2020 09:26PM
    Psi4 wall time for execution: 0:00:17.82

*** Psi4 exiting successfully. Buy a developer a beer!
