                               Psi4 1.3.2 release

  ==> Input File <==

--------------------------------------------------------------------------
import numpy as np
set {scf_type pk
basis cc-pvdz
d_convergence 10
gdma_switch   0
gdma_limit    0
gdma_origin   [ 0.0,  0.0,  0.0 ]
}
molecule test {
    units Angstrom
    1 1
    --
    1 1
    C               -0.656106783209884    -2.800115859433733     0.345937925510924
    C               -0.874106783209883    -0.760115859433733    -1.036062074489076
    N               -0.241106783209884    -1.876115859433733    -0.715062074489076
    N               -1.963106783209883    -0.402115859433733    -0.388062074489076
    N               -0.416106783209883    -0.000115859433733    -2.010062074489076
    H                0.523893216790117    -2.153115859433733    -1.331062074489076
    H               -2.409106783209884    -1.045115859433733     0.253937925510924
    H               -2.445106783209884     0.477884140566267    -0.588062074489076
    H                0.383893216790117    -0.342115859433733    -2.531062074489076
    H               -0.904106783209884     0.840884140566267    -2.278062074489076
    H               -1.007106783209884    -3.725115859433733    -0.118062074489076
    H               -1.462106783209883    -2.401115859433733     0.960937925510924
    H                0.186793216790116    -3.035342859433733     1.012414925510924
    C                1.032893216790116     1.643884140566267     0.973937925510924
    C                1.084893216790117     1.643884140566267     2.486937925510925
    C                2.093893216790117     2.552884140566267     0.365937925510924
    H                1.178893216790117     0.622884140566267     0.627937925510924
    H                0.046893216790116     1.974884140566267     0.646937925510924
    H                0.713893216790116     2.594884140566267     2.872937925510924
    H                2.126893216790117     1.533884140566267     2.793937925510924
    H                1.883893216790117     3.583884140566267     0.658937925510924
    H                3.083893216790116     2.293884140566267     0.746937925510924
    H                0.510123216790116     0.806882540566267     2.910108925510924
    H                2.068363216790116     2.475547140566267    -0.731043074489076

}
e, wfn = energy('scf', return_wfn=True)
gdma(wfn)
dmavals = variable('DMA DISTRIBUTED MULTIPOLES')
charges = np.array(dmavals)
print(charges)
np.save('SSI-009ARG-128ARG-1-dimer.npy', np.array(charges))--------------------------------------------------------------------------

*** tstart() called on ds3
*** at Tue Apr 28 14:20:35 2020

   => Loading Basis Set <=

    Name: CC-PVDZ
    Role: ORBITAL
    Keyword: BASIS
    atoms 1-2, 14-16  entry C          line   138 file /theoryfs2/ds/metcalf/miniconda2/envs/tf2gpu/share/psi4/basis/cc-pvdz.gbs
    atoms 3-5         entry N          line   168 file /theoryfs2/ds/metcalf/miniconda2/envs/tf2gpu/share/psi4/basis/cc-pvdz.gbs
    atoms 6-13, 17-24 entry H          line    22 file /theoryfs2/ds/metcalf/miniconda2/envs/tf2gpu/share/psi4/basis/cc-pvdz.gbs

         ---------------------------------------------------------
                                   SCF
               by Justin Turney, Rob Parrish, Andy Simmonett
                          and Daniel G. A. Smith
                              RHF Reference
                        1 Threads,    500 MiB Core
         ---------------------------------------------------------

  ==> Geometry <==

    Molecular point group: c1
    Full point group: C1

    Geometry (in Angstrom), charge = 1, multiplicity = 1:

       Center              X                  Y                   Z               Mass
    ------------   -----------------  -----------------  -----------------  -----------------
         C           -0.656106783210    -2.800115859434     0.345937925511    12.000000000000
         C           -0.874106783210    -0.760115859434    -1.036062074489    12.000000000000
         N           -0.241106783210    -1.876115859434    -0.715062074489    14.003074004430
         N           -1.963106783210    -0.402115859434    -0.388062074489    14.003074004430
         N           -0.416106783210    -0.000115859434    -2.010062074489    14.003074004430
         H            0.523893216790    -2.153115859434    -1.331062074489     1.007825032230
         H           -2.409106783210    -1.045115859434     0.253937925511     1.007825032230
         H           -2.445106783210     0.477884140566    -0.588062074489     1.007825032230
         H            0.383893216790    -0.342115859434    -2.531062074489     1.007825032230
         H           -0.904106783210     0.840884140566    -2.278062074489     1.007825032230
         H           -1.007106783210    -3.725115859434    -0.118062074489     1.007825032230
         H           -1.462106783210    -2.401115859434     0.960937925511     1.007825032230
         H            0.186793216790    -3.035342859434     1.012414925511     1.007825032230
         C            1.032893216790     1.643884140566     0.973937925511    12.000000000000
         C            1.084893216790     1.643884140566     2.486937925511    12.000000000000
         C            2.093893216790     2.552884140566     0.365937925511    12.000000000000
         H            1.178893216790     0.622884140566     0.627937925511     1.007825032230
         H            0.046893216790     1.974884140566     0.646937925511     1.007825032230
         H            0.713893216790     2.594884140566     2.872937925511     1.007825032230
         H            2.126893216790     1.533884140566     2.793937925511     1.007825032230
         H            1.883893216790     3.583884140566     0.658937925511     1.007825032230
         H            3.083893216790     2.293884140566     0.746937925511     1.007825032230
         H            0.510123216790     0.806882540566     2.910108925511     1.007825032230
         H            2.068363216790     2.475547140566    -0.731043074489     1.007825032230

  Running in c1 symmetry.

  Rotational constants: A =      0.07622  B =      0.02719  C =      0.02398 [cm^-1]
  Rotational constants: A =   2284.96765  B =    815.20434  C =    718.91330 [MHz]
  Nuclear repulsion =  398.289386169648083

  Charge       = 1
  Multiplicity = 1
  Electrons    = 66
  Nalpha       = 33
  Nbeta        = 33

  ==> Algorithm <==

  SCF Algorithm Type is PK.
  DIIS enabled.
  MOM disabled.
  Fractional occupation disabled.
  Guess Type is SAD.
  Energy threshold   = 1.00e-06
  Density threshold  = 1.00e-10
  Integral threshold = 0.00e+00

  ==> Primary Basis <==

  Basis Set: CC-PVDZ
    Blend: CC-PVDZ
    Number of shells: 96
    Number of basis function: 192
    Number of Cartesian functions: 200
    Spherical Harmonics?: true
    Max angular momentum: 2

  ==> Pre-Iterations <==

   -------------------------------------------------------
    Irrep   Nso     Nmo     Nalpha   Nbeta   Ndocc  Nsocc
   -------------------------------------------------------
     A        192     192       0       0       0       0
   -------------------------------------------------------
    Total     192     192      33      33      33       0
   -------------------------------------------------------

  ==> Integral Setup <==

  Using integral reordering PK algorithm.
  Sizing the integral batches needed.
  Building batch lookup table.
   Calculation information:
      Number of atoms:                  24
      Number of AO shells:              96
      Number of primitives:            256
      Number of atomic orbitals:       200
      Number of basis functions:       192

      Integral cutoff                 1.00e-12
      Number of threads:                 1

	Batch   1 pq = [       0,    9405] index = [             0,44231715] size =     44231715
	Batch   2 pq = [    9405,   13301] index = [      44231715,88464951] size =     44233236
	Batch   3 pq = [   13301,   16290] index = [      88464951,132690195] size =     44225244
	Batch   4 pq = [   16290,   18528] index = [     132690195,171652656] size =     38962461
  Task number: 16
  Buffer size: 11059200
  Buffer per thread: 2
  We computed 9459733 shell quartets total.
  Whereas there are 10841496 unique shell quartets.

  ==> DiskJK: Disk-Based J/K Matrices <==

    J tasked:                  Yes
    K tasked:                  Yes
    wK tasked:                  No
    Memory [MiB]:              375
    Schwarz Cutoff:          1E-12

    OpenMP threads:              1

  Minimum eigenvalue in the overlap matrix is 3.4460553927E-03.
  Using Symmetric Orthogonalization.

  SCF Guess: Superposition of Atomic Densities via on-the-fly atomic UHF.

  ==> Iterations <==

                        Total Energy        Delta E     RMS |[F,P]|

   @RHF iter SAD:  -361.17222065261836   -3.61172e+02   0.00000e+00
   @RHF iter   1:  -361.61500439524661   -4.42784e-01   3.20458e-03 DIIS
   @RHF iter   2:  -361.81519058390819   -2.00186e-01   1.30100e-03 DIIS
   @RHF iter   3:  -361.84646749439685   -3.12769e-02   3.01747e-04 DIIS
   @RHF iter   4:  -361.84934276839630   -2.87527e-03   4.91945e-05 DIIS
   @RHF iter   5:  -361.84941815323333   -7.53848e-05   1.78732e-05 DIIS
   @RHF iter   6:  -361.84942756507394   -9.41184e-06   3.68596e-06 DIIS
   @RHF iter   7:  -361.84942815968435   -5.94610e-07   1.36251e-06 DIIS
   @RHF iter   8:  -361.84942821083507   -5.11507e-08   3.70433e-07 DIIS
   @RHF iter   9:  -361.84942821555177   -4.71670e-09   8.46437e-08 DIIS
   @RHF iter  10:  -361.84942821580211   -2.50338e-10   2.68154e-08 DIIS
   @RHF iter  11:  -361.84942821582433   -2.22258e-11   6.72538e-09 DIIS
   @RHF iter  12:  -361.84942821582626   -1.93268e-12   2.09400e-09 DIIS
   @RHF iter  13:  -361.84942821582604    2.27374e-13   8.02465e-10 DIIS
   @RHF iter  14:  -361.84942821582672   -6.82121e-13   2.74412e-10 DIIS
   @RHF iter  15:  -361.84942821582683   -1.13687e-13   7.23805e-11 DIIS
  Energy and wave function converged.

  ==> Post-Iterations <==

    Orbital Energies [Eh]
    ---------------------

    Doubly Occupied:

       1A    -15.789119     2A    -15.787757     3A    -15.787334
       4A    -11.588562     5A    -11.444167     6A    -11.327459
       7A    -11.315577     8A    -11.312804     9A     -1.546662
      10A     -1.401839    11A     -1.390479    12A     -1.161910
      13A     -1.143255    14A     -1.036806    15A     -1.022735
      16A     -0.975132    17A     -0.943391    18A     -0.901835
      19A     -0.860545    20A     -0.852377    21A     -0.822129
      22A     -0.797061    23A     -0.744364    24A     -0.732767
      25A     -0.727491    26A     -0.699194    27A     -0.649327
      28A     -0.626925    29A     -0.616443    30A     -0.585806
      31A     -0.576511    32A     -0.572016    33A     -0.571035

    Virtual:

      34A     -0.015125    35A      0.019221    36A      0.026009
      37A      0.030680    38A      0.059407    39A      0.076286
      40A      0.091803    41A      0.114515    42A      0.117196
      43A      0.132588    44A      0.138593    45A      0.142605
      46A      0.150460    47A      0.166637    48A      0.183052
      49A      0.200574    50A      0.208980    51A      0.219299
      52A      0.259570    53A      0.292051    54A      0.314888
      55A      0.335897    56A      0.349233    57A      0.426864
      58A      0.441477    59A      0.467994    60A      0.486741
      61A      0.494422    62A      0.510070    63A      0.514258
      64A      0.526252    65A      0.534143    66A      0.548694
      67A      0.567545    68A      0.574221    69A      0.654415
      70A      0.680131    71A      0.684376    72A      0.689110
      73A      0.693006    74A      0.710949    75A      0.716549
      76A      0.742410    77A      0.747011    78A      0.753622
      79A      0.759283    80A      0.765755    81A      0.791028
      82A      0.794773    83A      0.800592    84A      0.806819
      85A      0.812162    86A      0.815242    87A      0.850405
      88A      0.856384    89A      0.871391    90A      0.880192
      91A      0.892180    92A      0.904103    93A      0.928962
      94A      0.940851    95A      1.009990    96A      1.021335
      97A      1.037406    98A      1.070227    99A      1.098868
     100A      1.121218   101A      1.134164   102A      1.158126
     103A      1.206901   104A      1.208130   105A      1.225454
     106A      1.290368   107A      1.301149   108A      1.359510
     109A      1.375391   110A      1.381695   111A      1.433938
     112A      1.474536   113A      1.494811   114A      1.519122
     115A      1.534855   116A      1.550079   117A      1.577762
     118A      1.589380   119A      1.602439   120A      1.611486
     121A      1.617071   122A      1.649288   123A      1.692324
     124A      1.707365   125A      1.725133   126A      1.734851
     127A      1.743440   128A      1.770063   129A      1.776740
     130A      1.784002   131A      1.794036   132A      1.800020
     133A      1.812412   134A      1.818704   135A      1.833886
     136A      1.856770   137A      1.862029   138A      1.879530
     139A      1.890373   140A      1.892821   141A      1.904960
     142A      1.916076   143A      1.920700   144A      1.945203
     145A      1.989654   146A      2.022026   147A      2.026966
     148A      2.045832   149A      2.060177   150A      2.099099
     151A      2.135428   152A      2.173247   153A      2.186408
     154A      2.213595   155A      2.224484   156A      2.234112
     157A      2.248361   158A      2.270070   159A      2.298000
     160A      2.323214   161A      2.330040   162A      2.361965
     163A      2.392376   164A      2.417272   165A      2.435216
     166A      2.457851   167A      2.477984   168A      2.514052
     169A      2.541677   170A      2.542792   171A      2.573890
     172A      2.585582   173A      2.629221   174A      2.661258
     175A      2.669760   176A      2.690406   177A      2.717754
     178A      2.732686   179A      2.743392   180A      2.784579
     181A      2.808163   182A      2.812480   183A      2.842963
     184A      2.864528   185A      2.875776   186A      2.906458
     187A      2.975807   188A      3.052598   189A      3.087872
     190A      3.125068   191A      3.557240   192A      3.649699

    Final Occupation by Irrep:
              A
    DOCC [    33 ]

  @RHF Final Energy:  -361.84942821582683

   => Energetics <=

    Nuclear Repulsion Energy =            398.2893861696480826
    One-Electron Energy =               -1267.6560037206409106
    Two-Electron Energy =                 507.5171893351659946
    Total Energy =                       -361.8494282158268334

Computation Completed

Properties will be evaluated at   0.000000,   0.000000,   0.000000 [a0]

Properties computed using the SCF density matrix

  Nuclear Dipole Moment: [e a0]
     X:     4.2074      Y:     4.2286      Z:     5.5473

  Electronic Dipole Moment: [e a0]
     X:    -5.8170      Y:    -5.8968      Z:    -7.2522

  Dipole Moment: [e a0]
     X:    -1.6097      Y:    -1.6682      Z:    -1.7049     Total:     2.8776

  Dipole Moment: [D]
     X:    -4.0913      Y:    -4.2402      Z:    -4.3333     Total:     7.3141

*** tstop() called on ds3 at Tue Apr 28 14:22:08 2020
Module time:
	user time   =      59.69 seconds =       0.99 minutes
	system time =      25.79 seconds =       0.43 minutes
	total time  =         93 seconds =       1.55 minutes
Total time:
	user time   =      59.69 seconds =       0.99 minutes
	system time =      25.79 seconds =       0.43 minutes
	total time  =         93 seconds =       1.55 minutes
                                     G D M A

                                 by Anthony Stone

                           version 2.2.06, 22 June 2011

               Distributed Multipoles from Gaussian wavefunctions

Starting at 14:22:8 on 28 Apr 2020

Using SCF density matrix from file ./SSI/SSI-009ARG-128ARG-1-dimer.test.13135.fchk

                         Distributed Multipole Analysis

Standard DMA

Positions and radii in angstrom
Multipole moments in atomic units, ea_0^k for rank k

C          x = -0.656107  y = -2.800116  z =  0.345938 angstrom
           Maximum rank =  0   Radius =  0.650 angstrom
                   Q00  =  -0.123934

C          x = -0.874107  y = -0.760116  z = -1.036062 angstrom
           Maximum rank =  0   Radius =  0.650 angstrom
                   Q00  =   1.076448

N          x = -0.241107  y = -1.876116  z = -0.715062 angstrom
           Maximum rank =  0   Radius =  0.650 angstrom
                   Q00  =  -0.491210

N          x = -1.963107  y = -0.402116  z = -0.388062 angstrom
           Maximum rank =  0   Radius =  0.650 angstrom
                   Q00  =  -0.589318

N          x = -0.416107  y = -0.000116  z = -2.010062 angstrom
           Maximum rank =  0   Radius =  0.650 angstrom
                   Q00  =  -0.589335

H          x =  0.523893  y = -2.153116  z = -1.331062 angstrom
           Maximum rank =  0   Radius =  0.325 angstrom
                   Q00  =   0.236984

H          x = -2.409107  y = -1.045116  z =  0.253938 angstrom
           Maximum rank =  0   Radius =  0.325 angstrom
                   Q00  =   0.266533

H          x = -2.445107  y =  0.477884  z = -0.588062 angstrom
           Maximum rank =  0   Radius =  0.325 angstrom
                   Q00  =   0.272455

H          x =  0.383893  y = -0.342116  z = -2.531062 angstrom
           Maximum rank =  0   Radius =  0.325 angstrom
                   Q00  =   0.264736

H          x = -0.904107  y =  0.840884  z = -2.278062 angstrom
           Maximum rank =  0   Radius =  0.325 angstrom
                   Q00  =   0.274353

H          x = -1.007107  y = -3.725116  z = -0.118062 angstrom
           Maximum rank =  0   Radius =  0.325 angstrom
                   Q00  =   0.135215

H          x = -1.462107  y = -2.401116  z =  0.960938 angstrom
           Maximum rank =  0   Radius =  0.325 angstrom
                   Q00  =   0.115361

H          x =  0.186793  y = -3.035343  z =  1.012415 angstrom
           Maximum rank =  0   Radius =  0.325 angstrom
                   Q00  =   0.152704

C          x =  1.032893  y =  1.643884  z =  0.973938 angstrom
           Maximum rank =  0   Radius =  0.650 angstrom
                   Q00  =  -0.102891

C          x =  1.084893  y =  1.643884  z =  2.486938 angstrom
           Maximum rank =  0   Radius =  0.650 angstrom
                   Q00  =  -0.213841

C          x =  2.093893  y =  2.552884  z =  0.365938 angstrom
           Maximum rank =  0   Radius =  0.650 angstrom
                   Q00  =  -0.224422

H          x =  1.178893  y =  0.622884  z =  0.627938 angstrom
           Maximum rank =  0   Radius =  0.325 angstrom
                   Q00  =   0.009904

H          x =  0.046893  y =  1.974884  z =  0.646938 angstrom
           Maximum rank =  0   Radius =  0.325 angstrom
                   Q00  =   0.020661

H          x =  0.713893  y =  2.594884  z =  2.872938 angstrom
           Maximum rank =  0   Radius =  0.325 angstrom
                   Q00  =   0.093067

H          x =  2.126893  y =  1.533884  z =  2.793938 angstrom
           Maximum rank =  0   Radius =  0.325 angstrom
                   Q00  =   0.088165

H          x =  1.883893  y =  3.583884  z =  0.658938 angstrom
           Maximum rank =  0   Radius =  0.325 angstrom
                   Q00  =   0.093350

H          x =  3.083893  y =  2.293884  z =  0.746938 angstrom
           Maximum rank =  0   Radius =  0.325 angstrom
                   Q00  =   0.093822

H          x =  0.510123  y =  0.806883  z =  2.910109 angstrom
           Maximum rank =  0   Radius =  0.325 angstrom
                   Q00  =   0.072562

H          x =  2.068363  y =  2.475547  z = -0.731043 angstrom
           Maximum rank =  0   Radius =  0.325 angstrom
                   Q00  =   0.068631

Total multipoles referred to origin at
           x =   0.000000,  y =    0.000000,  z =    0.000000 angstrom
                   Q00  =   1.000000

Finished at 14:22:8 on 28 Apr 2020

  DMA results are available in the Python driver through the
	  variable('DMA DISTRIBUTED MULTIPOLES')
  and
	  variable('DMA TOTAL MULTIPOLES')
  commands.

    Psi4 stopped on: Tuesday, 28 April 2020 02:22PM
    Psi4 wall time for execution: 0:01:32.96

*** Psi4 exiting successfully. Buy a developer a beer!
