                               Psi4 1.3.2 release

  ==> Input File <==

--------------------------------------------------------------------------
import numpy as np
set {scf_type pk
basis cc-pvdz
d_convergence 10
gdma_switch   0
gdma_limit    0
gdma_origin   [ 0.0,  0.0,  0.0 ]
}
molecule test {
    units Angstrom
    0 1
    --
    0 1
    C                1.788373612323328    -2.850090598969692    -1.569135660927329
    C                3.159373612323328    -2.517090598969692    -2.116135660927329
    H                1.840373612323328    -3.607090598969692    -0.785135660927329
    H                1.352373612323328    -1.940090598969692    -1.163135660927329
    H                1.122373612323328    -3.196090598969692    -2.361135660927329
    H                3.020373612323327    -1.927090598969692    -3.019135660927329
    H                3.703473612323327    -3.435883598969692    -2.380285660927329
    H                3.743093612323327    -1.911641598969692    -1.407125660927329
    C               -0.728626387676672    -1.246090598969692     0.793864339072671
    C                0.344373612323328    -1.673090598969692     1.817864339072671
    C               -0.810626387676672     0.221909401030308     0.531864339072671
    C                0.294373612323328     0.921909401030308     0.116864339072671
    C               -2.013626387676672     0.875909401030308     0.618864339072671
    C                0.224373612323328     2.265909401030307    -0.154135660927329
    C               -2.106626387676672     2.256909401030308     0.314864339072671
    C               -0.969626387676672     2.950909401030308    -0.067135660927329
    H               -0.554626387676672    -1.750090598969692    -0.155135660927329
    H               -1.702626387676673    -1.579090598969692     1.138864339072671
    H                1.314373612323328    -1.288090598969692     1.501864339072671
    H                1.243373612323328     0.417909401030308     0.003864339072671
    H               -2.905626387676672     0.339909401030308     0.913864339072671
    H                1.123373612323328     2.764909401030308    -0.466135660927329
    H               -3.058626387676672     2.767909401030308     0.382864339072671
    H               -1.020626387676672     4.006909401030308    -0.296135660927329
    H                0.393093612323328    -2.771500598969692     1.851354339072671
    H                0.128783612323328    -1.263548598969692     2.815764339072671

}
e, wfn = energy('scf', return_wfn=True)
gdma(wfn)
dmavals = variable('DMA DISTRIBUTED MULTIPOLES')
charges = np.array(dmavals)
print(charges)
np.save('SSI-110ILE-116PHE-1-dimer.npy', np.array(charges))--------------------------------------------------------------------------

*** tstart() called on ds3
*** at Mon Apr 27 23:43:56 2020

   => Loading Basis Set <=

    Name: CC-PVDZ
    Role: ORBITAL
    Keyword: BASIS
    atoms 1-2, 9-16  entry C          line   138 file /theoryfs2/ds/metcalf/miniconda2/envs/tf2gpu/share/psi4/basis/cc-pvdz.gbs
    atoms 3-8, 17-26 entry H          line    22 file /theoryfs2/ds/metcalf/miniconda2/envs/tf2gpu/share/psi4/basis/cc-pvdz.gbs

         ---------------------------------------------------------
                                   SCF
               by Justin Turney, Rob Parrish, Andy Simmonett
                          and Daniel G. A. Smith
                              RHF Reference
                        1 Threads,    500 MiB Core
         ---------------------------------------------------------

  ==> Geometry <==

    Molecular point group: c1
    Full point group: C1

    Geometry (in Angstrom), charge = 0, multiplicity = 1:

       Center              X                  Y                   Z               Mass
    ------------   -----------------  -----------------  -----------------  -----------------
         C            1.788373612323    -2.850090598970    -1.569135660927    12.000000000000
         C            3.159373612323    -2.517090598970    -2.116135660927    12.000000000000
         H            1.840373612323    -3.607090598970    -0.785135660927     1.007825032230
         H            1.352373612323    -1.940090598970    -1.163135660927     1.007825032230
         H            1.122373612323    -3.196090598970    -2.361135660927     1.007825032230
         H            3.020373612323    -1.927090598970    -3.019135660927     1.007825032230
         H            3.703473612323    -3.435883598970    -2.380285660927     1.007825032230
         H            3.743093612323    -1.911641598970    -1.407125660927     1.007825032230
         C           -0.728626387677    -1.246090598970     0.793864339073    12.000000000000
         C            0.344373612323    -1.673090598970     1.817864339073    12.000000000000
         C           -0.810626387677     0.221909401030     0.531864339073    12.000000000000
         C            0.294373612323     0.921909401030     0.116864339073    12.000000000000
         C           -2.013626387677     0.875909401030     0.618864339073    12.000000000000
         C            0.224373612323     2.265909401030    -0.154135660927    12.000000000000
         C           -2.106626387677     2.256909401030     0.314864339073    12.000000000000
         C           -0.969626387677     2.950909401030    -0.067135660927    12.000000000000
         H           -0.554626387677    -1.750090598970    -0.155135660927     1.007825032230
         H           -1.702626387677    -1.579090598970     1.138864339073     1.007825032230
         H            1.314373612323    -1.288090598970     1.501864339073     1.007825032230
         H            1.243373612323     0.417909401030     0.003864339073     1.007825032230
         H           -2.905626387677     0.339909401030     0.913864339073     1.007825032230
         H            1.123373612323     2.764909401030    -0.466135660927     1.007825032230
         H           -3.058626387677     2.767909401030     0.382864339073     1.007825032230
         H           -1.020626387677     4.006909401030    -0.296135660927     1.007825032230
         H            0.393093612323    -2.771500598970     1.851354339073     1.007825032230
         H            0.128783612323    -1.263548598970     2.815764339073     1.007825032230

  Running in c1 symmetry.

  Rotational constants: A =      0.06206  B =      0.01891  C =      0.01600 [cm^-1]
  Rotational constants: A =   1860.36439  B =    567.02230  C =    479.61625 [MHz]
  Nuclear repulsion =  489.417373832621365

  Charge       = 0
  Multiplicity = 1
  Electrons    = 76
  Nalpha       = 38
  Nbeta        = 38

  ==> Algorithm <==

  SCF Algorithm Type is PK.
  DIIS enabled.
  MOM disabled.
  Fractional occupation disabled.
  Guess Type is SAD.
  Energy threshold   = 1.00e-06
  Density threshold  = 1.00e-10
  Integral threshold = 0.00e+00

  ==> Primary Basis <==

  Basis Set: CC-PVDZ
    Blend: CC-PVDZ
    Number of shells: 108
    Number of basis function: 220
    Number of Cartesian functions: 230
    Spherical Harmonics?: true
    Max angular momentum: 2

  ==> Pre-Iterations <==

   -------------------------------------------------------
    Irrep   Nso     Nmo     Nalpha   Nbeta   Ndocc  Nsocc
   -------------------------------------------------------
     A        220     220       0       0       0       0
   -------------------------------------------------------
    Total     220     220      38      38      38       0
   -------------------------------------------------------

  ==> Integral Setup <==

  Using integral reordering PK algorithm.
  Sizing the integral batches needed.
  Building batch lookup table.
   Calculation information:
      Number of atoms:                  26
      Number of AO shells:             108
      Number of primitives:            300
      Number of atomic orbitals:       230
      Number of basis functions:       220

      Integral cutoff                 1.00e-12
      Number of threads:                 1

	Batch   1 pq = [       0,    9405] index = [             0,44231715] size =     44231715
	Batch   2 pq = [    9405,   13301] index = [      44231715,88464951] size =     44233236
	Batch   3 pq = [   13301,   16290] index = [      88464951,132690195] size =     44225244
	Batch   4 pq = [   16290,   18810] index = [     132690195,176917455] size =     44227260
	Batch   5 pq = [   18810,   21030] index = [     176917455,221140965] size =     44223510
	Batch   6 pq = [   21030,   23037] index = [     221140965,265363203] size =     44222238
	Batch   7 pq = [   23037,   24310] index = [     265363203,295500205] size =     30137002
  Task number: 27
  Buffer size: 11059200
  Buffer per thread: 2
  We computed 15123277 shell quartets total.
  Whereas there are 17325441 unique shell quartets.

  ==> DiskJK: Disk-Based J/K Matrices <==

    J tasked:                  Yes
    K tasked:                  Yes
    wK tasked:                  No
    Memory [MiB]:              375
    Schwarz Cutoff:          1E-12

    OpenMP threads:              1

  Minimum eigenvalue in the overlap matrix is 2.8830978108E-04.
  Using Symmetric Orthogonalization.

  SCF Guess: Superposition of Atomic Densities via on-the-fly atomic UHF.

  ==> Iterations <==

                        Total Energy        Delta E     RMS |[F,P]|

   @RHF iter SAD:  -387.04019853586499   -3.87040e+02   0.00000e+00
   @RHF iter   1:  -387.76851069372498   -7.28312e-01   2.75449e-03 DIIS
   @RHF iter   2:  -387.98660321879254   -2.18093e-01   1.15770e-03 DIIS
   @RHF iter   3:  -388.02190718237813   -3.53040e-02   2.53568e-04 DIIS
   @RHF iter   4:  -388.02479271872198   -2.88554e-03   6.87739e-05 DIIS
   @RHF iter   5:  -388.02493314837625   -1.40430e-04   2.13046e-05 DIIS
   @RHF iter   6:  -388.02494823191711   -1.50835e-05   4.14220e-06 DIIS
   @RHF iter   7:  -388.02494900226628   -7.70349e-07   1.28666e-06 DIIS
   @RHF iter   8:  -388.02494909305619   -9.07899e-08   4.47327e-07 DIIS
   @RHF iter   9:  -388.02494911687756   -2.38214e-08   2.31301e-07 DIIS
   @RHF iter  10:  -388.02494912398748   -7.10992e-09   1.14190e-07 DIIS
   @RHF iter  11:  -388.02494912587997   -1.89249e-09   3.31523e-08 DIIS
   @RHF iter  12:  -388.02494912600906   -1.29091e-10   1.22972e-08 DIIS
   @RHF iter  13:  -388.02494912601571   -6.65068e-12   4.26942e-09 DIIS
   @RHF iter  14:  -388.02494912601958   -3.86535e-12   1.20481e-09 DIIS
   @RHF iter  15:  -388.02494912601639    3.18323e-12   5.64384e-10 DIIS
   @RHF iter  16:  -388.02494912601787   -1.47793e-12   2.75173e-10 DIIS
   @RHF iter  17:  -388.02494912601833   -4.54747e-13   9.58187e-11 DIIS
  Energy and wave function converged.

  ==> Post-Iterations <==

    Orbital Energies [Eh]
    ---------------------

    Doubly Occupied:

       1A    -11.236281     2A    -11.230835     3A    -11.229966
       4A    -11.228721     5A    -11.228633     6A    -11.226002
       7A    -11.224524     8A    -11.223552     9A    -11.219782
      10A    -11.217466    11A     -1.160014    12A     -1.064852
      13A     -1.024244    14A     -1.010495    15A     -0.983206
      16A     -0.865444    17A     -0.838603    18A     -0.826698
      19A     -0.785984    20A     -0.693499    21A     -0.638896
      22A     -0.631132    23A     -0.604619    24A     -0.601598
      25A     -0.595909    26A     -0.587555    27A     -0.572903
      28A     -0.537382    29A     -0.521482    30A     -0.507742
      31A     -0.502659    32A     -0.488211    33A     -0.484439
      34A     -0.481656    35A     -0.473769    36A     -0.466097
      37A     -0.329941    38A     -0.325774

    Virtual:

      39A      0.135210    40A      0.145248    41A      0.166431
      42A      0.194492    43A      0.198883    44A      0.217678
      45A      0.221967    46A      0.233693    47A      0.244516
      48A      0.249814    49A      0.258209    50A      0.270437
      51A      0.284480    52A      0.288845    53A      0.291054
      54A      0.306219    55A      0.320454    56A      0.345800
      57A      0.369359    58A      0.394014    59A      0.412681
      60A      0.422420    61A      0.453984    62A      0.472649
      63A      0.503560    64A      0.511414    65A      0.559654
      66A      0.584191    67A      0.594446    68A      0.600519
      69A      0.613278    70A      0.628866    71A      0.647490
      72A      0.655678    73A      0.684759    74A      0.699236
      75A      0.704554    76A      0.718381    77A      0.735653
      78A      0.743937    79A      0.748477    80A      0.753400
      81A      0.755392    82A      0.767075    83A      0.779507
      84A      0.799583    85A      0.823268    86A      0.840592
      87A      0.849835    88A      0.866646    89A      0.871357
      90A      0.879110    91A      0.881290    92A      0.888350
      93A      0.890787    94A      0.896851    95A      0.901910
      96A      0.909805    97A      0.920209    98A      0.923183
      99A      0.939327   100A      0.943656   101A      0.951893
     102A      0.971545   103A      0.973674   104A      0.995326
     105A      1.022280   106A      1.047190   107A      1.059889
     108A      1.083376   109A      1.119378   110A      1.123137
     111A      1.140432   112A      1.144700   113A      1.154960
     114A      1.174352   115A      1.195877   116A      1.225771
     117A      1.243494   118A      1.255829   119A      1.262644
     120A      1.283206   121A      1.309926   122A      1.313933
     123A      1.321927   124A      1.336520   125A      1.397145
     126A      1.417513   127A      1.444094   128A      1.479343
     129A      1.490297   130A      1.522322   131A      1.540582
     132A      1.565315   133A      1.603975   134A      1.636042
     135A      1.678558   136A      1.685327   137A      1.686442
     138A      1.714986   139A      1.726415   140A      1.746920
     141A      1.764116   142A      1.774539   143A      1.817058
     144A      1.844719   145A      1.857212   146A      1.859875
     147A      1.887190   148A      1.889354   149A      1.894526
     150A      1.905410   151A      1.910451   152A      1.918302
     153A      1.925761   154A      1.931998   155A      1.940784
     156A      1.948630   157A      1.949681   158A      1.959993
     159A      1.963359   160A      1.969054   161A      1.976515
     162A      1.985555   163A      1.994593   164A      2.015576
     165A      2.032870   166A      2.039531   167A      2.054603
     168A      2.069391   169A      2.083895   170A      2.093116
     171A      2.112546   172A      2.116648   173A      2.135553
     174A      2.159055   175A      2.170573   176A      2.178167
     177A      2.193592   178A      2.221913   179A      2.262886
     180A      2.276227   181A      2.285292   182A      2.305980
     183A      2.313128   184A      2.319458   185A      2.323659
     186A      2.341456   187A      2.369838   188A      2.435306
     189A      2.443107   190A      2.463646   191A      2.474827
     192A      2.501523   193A      2.545120   194A      2.561842
     195A      2.571096   196A      2.592715   197A      2.620905
     198A      2.651205   199A      2.738338   200A      2.761442
     201A      2.772731   202A      2.784686   203A      2.788683
     204A      2.799351   205A      2.821296   206A      2.851936
     207A      2.854959   208A      2.867665   209A      2.883399
     210A      2.920172   211A      2.954258   212A      2.962721
     213A      2.995617   214A      3.012982   215A      3.038595
     216A      3.071786   217A      3.202008   218A      3.237190
     219A      3.322448   220A      4.003058

    Final Occupation by Irrep:
              A
    DOCC [    38 ]

  @RHF Final Energy:  -388.02494912601833

   => Energetics <=

    Nuclear Repulsion Energy =            489.4173738326213652
    One-Electron Energy =               -1493.1435194032831077
    Two-Electron Energy =                 615.7011964446434149
    Total Energy =                       -388.0249491260183277

Computation Completed

Properties will be evaluated at   0.000000,   0.000000,   0.000000 [a0]

Properties computed using the SCF density matrix

  Nuclear Dipole Moment: [e a0]
     X:     9.1337      Y:   -13.4739      Z:    -3.2108

  Electronic Dipole Moment: [e a0]
     X:    -9.1327      Y:    13.3533      Z:     3.1828

  Dipole Moment: [e a0]
     X:     0.0010      Y:    -0.1206      Z:    -0.0279     Total:     0.1238

  Dipole Moment: [D]
     X:     0.0024      Y:    -0.3066      Z:    -0.0710     Total:     0.3147

*** tstop() called on ds3 at Mon Apr 27 23:46:44 2020
Module time:
	user time   =     115.80 seconds =       1.93 minutes
	system time =      59.27 seconds =       0.99 minutes
	total time  =        168 seconds =       2.80 minutes
Total time:
	user time   =     115.80 seconds =       1.93 minutes
	system time =      59.27 seconds =       0.99 minutes
	total time  =        168 seconds =       2.80 minutes
                                     G D M A

                                 by Anthony Stone

                           version 2.2.06, 22 June 2011

               Distributed Multipoles from Gaussian wavefunctions

Starting at 23:46:45 on 27 Apr 2020

Using SCF density matrix from file ./SSI/SSI-110ILE-116PHE-1-dimer.test.3868.fchk

                         Distributed Multipole Analysis

Standard DMA

Positions and radii in angstrom
Multipole moments in atomic units, ea_0^k for rank k

C          x =  1.788374  y = -2.850091  z = -1.569136 angstrom
           Maximum rank =  0   Radius =  0.650 angstrom
                   Q00  =  -0.225334

C          x =  3.159374  y = -2.517091  z = -2.116136 angstrom
           Maximum rank =  0   Radius =  0.650 angstrom
                   Q00  =  -0.240621

H          x =  1.840374  y = -3.607091  z = -0.785136 angstrom
           Maximum rank =  0   Radius =  0.325 angstrom
                   Q00  =   0.079041

H          x =  1.352374  y = -1.940091  z = -1.163136 angstrom
           Maximum rank =  0   Radius =  0.325 angstrom
                   Q00  =   0.071207

H          x =  1.122374  y = -3.196091  z = -2.361136 angstrom
           Maximum rank =  0   Radius =  0.325 angstrom
                   Q00  =   0.079591

H          x =  3.020374  y = -1.927091  z = -3.019136 angstrom
           Maximum rank =  0   Radius =  0.325 angstrom
                   Q00  =   0.078111

H          x =  3.703474  y = -3.435884  z = -2.380286 angstrom
           Maximum rank =  0   Radius =  0.325 angstrom
                   Q00  =   0.079010

H          x =  3.743094  y = -1.911642  z = -1.407126 angstrom
           Maximum rank =  0   Radius =  0.325 angstrom
                   Q00  =   0.076985

C          x = -0.728626  y = -1.246091  z =  0.793864 angstrom
           Maximum rank =  0   Radius =  0.650 angstrom
                   Q00  =  -0.028157

C          x =  0.344374  y = -1.673091  z =  1.817864 angstrom
           Maximum rank =  0   Radius =  0.650 angstrom
                   Q00  =  -0.253066

C          x = -0.810626  y =  0.221909  z =  0.531864 angstrom
           Maximum rank =  0   Radius =  0.650 angstrom
                   Q00  =  -0.094016

C          x =  0.294374  y =  0.921909  z =  0.116864 angstrom
           Maximum rank =  0   Radius =  0.650 angstrom
                   Q00  =  -0.061356

C          x = -2.013626  y =  0.875909  z =  0.618864 angstrom
           Maximum rank =  0   Radius =  0.650 angstrom
                   Q00  =  -0.093744

C          x =  0.224374  y =  2.265909  z = -0.154136 angstrom
           Maximum rank =  0   Radius =  0.650 angstrom
                   Q00  =   0.011775

C          x = -2.106626  y =  2.256909  z =  0.314864 angstrom
           Maximum rank =  0   Radius =  0.650 angstrom
                   Q00  =  -0.083103

C          x = -0.969626  y =  2.950909  z = -0.067136 angstrom
           Maximum rank =  0   Radius =  0.650 angstrom
                   Q00  =  -0.089316

H          x = -0.554626  y = -1.750091  z = -0.155136 angstrom
           Maximum rank =  0   Radius =  0.325 angstrom
                   Q00  =   0.076933

H          x = -1.702626  y = -1.579091  z =  1.138864 angstrom
           Maximum rank =  0   Radius =  0.325 angstrom
                   Q00  =   0.063178

H          x =  1.314374  y = -1.288091  z =  1.501864 angstrom
           Maximum rank =  0   Radius =  0.325 angstrom
                   Q00  =   0.080914

H          x =  1.243374  y =  0.417909  z =  0.003864 angstrom
           Maximum rank =  0   Radius =  0.325 angstrom
                   Q00  =   0.052118

H          x = -2.905626  y =  0.339909  z =  0.913864 angstrom
           Maximum rank =  0   Radius =  0.325 angstrom
                   Q00  =   0.059036

H          x =  1.123374  y =  2.764909  z = -0.466136 angstrom
           Maximum rank =  0   Radius =  0.325 angstrom
                   Q00  =   0.059478

H          x = -3.058626  y =  2.767909  z =  0.382864 angstrom
           Maximum rank =  0   Radius =  0.325 angstrom
                   Q00  =   0.066519

H          x = -1.020626  y =  4.006909  z = -0.296136 angstrom
           Maximum rank =  0   Radius =  0.325 angstrom
                   Q00  =   0.060901

H          x =  0.393094  y = -2.771501  z =  1.851354 angstrom
           Maximum rank =  0   Radius =  0.325 angstrom
                   Q00  =   0.088204

H          x =  0.128784  y = -1.263549  z =  2.815764 angstrom
           Maximum rank =  0   Radius =  0.325 angstrom
                   Q00  =   0.085713

Total multipoles referred to origin at
           x =   0.000000,  y =    0.000000,  z =    0.000000 angstrom
                   Q00  =  -0.000000

Finished at 23:46:45 on 27 Apr 2020

  DMA results are available in the Python driver through the
	  variable('DMA DISTRIBUTED MULTIPOLES')
  and
	  variable('DMA TOTAL MULTIPOLES')
  commands.

    Psi4 stopped on: Monday, 27 April 2020 11:46PM
    Psi4 wall time for execution: 0:02:48.82

*** Psi4 exiting successfully. Buy a developer a beer!
