                               Psi4 1.3.2 release

  ==> Input File <==

--------------------------------------------------------------------------
import numpy as np
set {scf_type pk
basis cc-pvdz
d_convergence 10
gdma_switch   0
gdma_limit    0
gdma_origin   [ 0.0,  0.0,  0.0 ]
}
molecule test {
    units Angstrom
    1 1
    --
    1 1
    C                1.491253393607265    -1.713467443065789     0.782494819131849
    C                0.292253393607265    -0.876467443065788     1.183494819131849
    O               -0.491746606392735    -0.407467443065789     0.363494819131849
    N                0.119253393607265    -0.711467443065789     2.457494819131849
    H                1.494253393607265    -2.611467443065789     1.403494819131849
    H                2.391253393607264    -1.137467443065789     1.008494819131849
    H               -0.673746606392735    -0.181467443065789     2.778494819131849
    H                0.796253393607265    -1.118467443065789     3.096494819131850
    H                1.487664693607265    -2.007027443065788    -0.277605180868151
    C               -0.291746606392735     2.286532556934211    -2.624505180868151
    N               -0.954746606392735     1.187532556934211    -1.897505180868151
    H               -0.777746606392735     1.212532556934212    -0.895505180868151
    H               -1.959746606392735     1.232532556934211    -2.023505180868151
    H               -0.656746606392735     0.277532556934211    -2.240505180868150
    H               -0.822746606392735     3.223532556934211    -2.424505180868151
    H               -0.403746606392735     2.101532556934211    -3.697505180868151
    H                0.775932693607265     2.472982556934211    -2.436635180868151

}
e, wfn = energy('scf', return_wfn=True)
gdma(wfn)
dmavals = variable('DMA DISTRIBUTED MULTIPOLES')
charges = np.array(dmavals)
print(charges)
np.save('SSI-020ASN-039LYS-2-dimer.npy', np.array(charges))--------------------------------------------------------------------------

*** tstart() called on ds3
*** at Tue Apr 28 10:12:52 2020

   => Loading Basis Set <=

    Name: CC-PVDZ
    Role: ORBITAL
    Keyword: BASIS
    atoms 1-2, 10    entry C          line   138 file /theoryfs2/ds/metcalf/miniconda2/envs/tf2gpu/share/psi4/basis/cc-pvdz.gbs
    atoms 3          entry O          line   198 file /theoryfs2/ds/metcalf/miniconda2/envs/tf2gpu/share/psi4/basis/cc-pvdz.gbs
    atoms 4, 11      entry N          line   168 file /theoryfs2/ds/metcalf/miniconda2/envs/tf2gpu/share/psi4/basis/cc-pvdz.gbs
    atoms 5-9, 12-17 entry H          line    22 file /theoryfs2/ds/metcalf/miniconda2/envs/tf2gpu/share/psi4/basis/cc-pvdz.gbs

         ---------------------------------------------------------
                                   SCF
               by Justin Turney, Rob Parrish, Andy Simmonett
                          and Daniel G. A. Smith
                              RHF Reference
                        1 Threads,    500 MiB Core
         ---------------------------------------------------------

  ==> Geometry <==

    Molecular point group: c1
    Full point group: C1

    Geometry (in Angstrom), charge = 1, multiplicity = 1:

       Center              X                  Y                   Z               Mass
    ------------   -----------------  -----------------  -----------------  -----------------
         C            1.491253393607    -1.713467443066     0.782494819132    12.000000000000
         C            0.292253393607    -0.876467443066     1.183494819132    12.000000000000
         O           -0.491746606393    -0.407467443066     0.363494819132    15.994914619570
         N            0.119253393607    -0.711467443066     2.457494819132    14.003074004430
         H            1.494253393607    -2.611467443066     1.403494819132     1.007825032230
         H            2.391253393607    -1.137467443066     1.008494819132     1.007825032230
         H           -0.673746606393    -0.181467443066     2.778494819132     1.007825032230
         H            0.796253393607    -1.118467443066     3.096494819132     1.007825032230
         H            1.487664693607    -2.007027443066    -0.277605180868     1.007825032230
         C           -0.291746606393     2.286532556934    -2.624505180868    12.000000000000
         N           -0.954746606393     1.187532556934    -1.897505180868    14.003074004430
         H           -0.777746606393     1.212532556934    -0.895505180868     1.007825032230
         H           -1.959746606393     1.232532556934    -2.023505180868     1.007825032230
         H           -0.656746606393     0.277532556934    -2.240505180868     1.007825032230
         H           -0.822746606393     3.223532556934    -2.424505180868     1.007825032230
         H           -0.403746606393     2.101532556934    -3.697505180868     1.007825032230
         H            0.775932693607     2.472982556934    -2.436635180868     1.007825032230

  Running in c1 symmetry.

  Rotational constants: A =      0.22659  B =      0.03496  C =      0.03249 [cm^-1]
  Rotational constants: A =   6793.02174  B =   1047.96633  C =    973.89686 [MHz]
  Nuclear repulsion =  244.132690694017725

  Charge       = 1
  Multiplicity = 1
  Electrons    = 50
  Nalpha       = 25
  Nbeta        = 25

  ==> Algorithm <==

  SCF Algorithm Type is PK.
  DIIS enabled.
  MOM disabled.
  Fractional occupation disabled.
  Guess Type is SAD.
  Energy threshold   = 1.00e-06
  Density threshold  = 1.00e-10
  Integral threshold = 0.00e+00

  ==> Primary Basis <==

  Basis Set: CC-PVDZ
    Blend: CC-PVDZ
    Number of shells: 69
    Number of basis function: 139
    Number of Cartesian functions: 145
    Spherical Harmonics?: true
    Max angular momentum: 2

  ==> Pre-Iterations <==

   -------------------------------------------------------
    Irrep   Nso     Nmo     Nalpha   Nbeta   Ndocc  Nsocc
   -------------------------------------------------------
     A        139     139       0       0       0       0
   -------------------------------------------------------
    Total     139     139      25      25      25       0
   -------------------------------------------------------

  ==> Integral Setup <==

  Using integral reordering PK algorithm.
  Sizing the integral batches needed.
  Building batch lookup table.
   Calculation information:
      Number of atoms:                  17
      Number of AO shells:              69
      Number of primitives:            187
      Number of atomic orbitals:       145
      Number of basis functions:       139

      Integral cutoff                 1.00e-12
      Number of threads:                 1

	Batch   1 pq = [       0,    9730] index = [             0,47341315] size =     47341315
  Task number: 5
  Buffer size: 11059200
  Buffer per thread: 2
  We computed 2258560 shell quartets total.
  Whereas there are 2917320 unique shell quartets.

  ==> DiskJK: Disk-Based J/K Matrices <==

    J tasked:                  Yes
    K tasked:                  Yes
    wK tasked:                  No
    Memory [MiB]:              375
    Schwarz Cutoff:          1E-12

    OpenMP threads:              1

  Minimum eigenvalue in the overlap matrix is 4.5785670896E-03.
  Using Symmetric Orthogonalization.

  SCF Guess: Superposition of Atomic Densities via on-the-fly atomic UHF.

  ==> Iterations <==

                        Total Energy        Delta E     RMS |[F,P]|

   @RHF iter SAD:  -302.86405225980326   -3.02864e+02   0.00000e+00
   @RHF iter   1:  -303.43114021815450   -5.67088e-01   4.17529e-03 DIIS
   @RHF iter   2:  -303.57972736718278   -1.48587e-01   2.08795e-03 DIIS
   @RHF iter   3:  -303.61137503330986   -3.16477e-02   5.24857e-04 DIIS
   @RHF iter   4:  -303.61438446767522   -3.00943e-03   1.75519e-04 DIIS
   @RHF iter   5:  -303.61473686105842   -3.52393e-04   3.06049e-05 DIIS
   @RHF iter   6:  -303.61475635288633   -1.94918e-05   1.17939e-05 DIIS
   @RHF iter   7:  -303.61475846104531   -2.10816e-06   3.73634e-06 DIIS
   @RHF iter   8:  -303.61475887345858   -4.12413e-07   1.21114e-06 DIIS
   @RHF iter   9:  -303.61475891748887   -4.40303e-08   3.20076e-07 DIIS
   @RHF iter  10:  -303.61475892050390   -3.01503e-09   9.35679e-08 DIIS
   @RHF iter  11:  -303.61475892069876   -1.94859e-10   2.69617e-08 DIIS
   @RHF iter  12:  -303.61475892071286   -1.40972e-11   6.59117e-09 DIIS
   @RHF iter  13:  -303.61475892071360   -7.38964e-13   1.82695e-09 DIIS
   @RHF iter  14:  -303.61475892071309    5.11591e-13   6.97205e-10 DIIS
   @RHF iter  15:  -303.61475892071320   -1.13687e-13   1.90423e-10 DIIS
   @RHF iter  16:  -303.61475892071428   -1.08002e-12   7.80644e-11 DIIS
  Energy and wave function converged.

  ==> Post-Iterations <==

    Orbital Energies [Eh]
    ---------------------

    Doubly Occupied:

       1A    -20.645675     2A    -15.872100     3A    -15.714003
       4A    -11.481242     5A    -11.464525     6A    -11.360256
       7A     -1.515278     8A     -1.492029     9A     -1.354709
      10A     -1.141178    11A     -1.121548    12A     -0.948420
      13A     -0.946514    14A     -0.926485    15A     -0.858311
      16A     -0.844643    17A     -0.792225    18A     -0.744020
      19A     -0.737164    20A     -0.734936    21A     -0.704462
      22A     -0.679489    23A     -0.651591    24A     -0.553147
      25A     -0.543372

    Virtual:

      26A     -0.017344    27A      0.041309    28A      0.046226
      29A      0.058823    30A      0.069123    31A      0.094898
      32A      0.103694    33A      0.106689    34A      0.115536
      35A      0.126876    36A      0.156545    37A      0.167659
      38A      0.179797    39A      0.266291    40A      0.340673
      41A      0.387874    42A      0.395487    43A      0.421926
      44A      0.456375    45A      0.508238    46A      0.516279
      47A      0.533067    48A      0.571411    49A      0.583433
      50A      0.612087    51A      0.621591    52A      0.639005
      53A      0.672592    54A      0.675178    55A      0.693942
      56A      0.708021    57A      0.724396    58A      0.743142
      59A      0.763654    60A      0.777953    61A      0.788258
      62A      0.805841    63A      0.816414    64A      0.848084
      65A      0.887297    66A      0.892888    67A      0.924425
      68A      0.942359    69A      0.952263    70A      1.007189
      71A      1.054079    72A      1.096074    73A      1.209448
      74A      1.229194    75A      1.255039    76A      1.273678
      77A      1.284817    78A      1.292773    79A      1.348165
      80A      1.361055    81A      1.414872    82A      1.496605
      83A      1.531840    84A      1.538238    85A      1.540730
      86A      1.582665    87A      1.619370    88A      1.645568
      89A      1.675653    90A      1.717886    91A      1.719573
      92A      1.730349    93A      1.742791    94A      1.761810
      95A      1.768859    96A      1.791956    97A      1.808608
      98A      1.828572    99A      1.870657   100A      1.918811
     101A      1.947463   102A      1.960852   103A      1.971735
     104A      1.986699   105A      2.006463   106A      2.012486
     107A      2.028736   108A      2.114326   109A      2.141646
     110A      2.180692   111A      2.260094   112A      2.281798
     113A      2.293070   114A      2.328732   115A      2.376586
     116A      2.397721   117A      2.433518   118A      2.460273
     119A      2.485984   120A      2.498735   121A      2.509145
     122A      2.549364   123A      2.587886   124A      2.624640
     125A      2.669985   126A      2.744350   127A      2.759707
     128A      2.774168   129A      2.822185   130A      2.881504
     131A      2.952362   132A      2.994631   133A      3.102902
     134A      3.140928   135A      3.179502   136A      3.371358
     137A      3.409295   138A      3.749082   139A      3.803440

    Final Occupation by Irrep:
              A
    DOCC [    25 ]

  @RHF Final Energy:  -303.61475892071428

   => Energetics <=

    Nuclear Repulsion Energy =            244.1326906940177253
    One-Electron Energy =                -887.8402567891155286
    Two-Electron Energy =                 340.0928071743835517
    Total Energy =                       -303.6147589207142801

Computation Completed

Properties will be evaluated at   0.000000,   0.000000,   0.000000 [a0]

Properties computed using the SCF density matrix

  Nuclear Dipole Moment: [e a0]
     X:     1.5477      Y:     3.2448      Z:    -5.3517

  Electronic Dipole Moment: [e a0]
     X:    -2.0059      Y:    -1.6377      Z:     3.6073

  Dipole Moment: [e a0]
     X:    -0.4582      Y:     1.6071      Z:    -1.7444     Total:     2.4157

  Dipole Moment: [D]
     X:    -1.1647      Y:     4.0849      Z:    -4.4339     Total:     6.1402

*** tstop() called on ds3 at Tue Apr 28 10:13:15 2020
Module time:
	user time   =      15.17 seconds =       0.25 minutes
	system time =       6.98 seconds =       0.12 minutes
	total time  =         23 seconds =       0.38 minutes
Total time:
	user time   =      15.17 seconds =       0.25 minutes
	system time =       6.98 seconds =       0.12 minutes
	total time  =         23 seconds =       0.38 minutes
                                     G D M A

                                 by Anthony Stone

                           version 2.2.06, 22 June 2011

               Distributed Multipoles from Gaussian wavefunctions

Starting at 10:13:15 on 28 Apr 2020

Using SCF density matrix from file ./SSI/SSI-020ASN-039LYS-2-dimer.test.3541.fchk

                         Distributed Multipole Analysis

Standard DMA

Positions and radii in angstrom
Multipole moments in atomic units, ea_0^k for rank k

C          x =  1.491253  y = -1.713467  z =  0.782495 angstrom
           Maximum rank =  0   Radius =  0.650 angstrom
                   Q00  =  -0.264617

C          x =  0.292253  y = -0.876467  z =  1.183495 angstrom
           Maximum rank =  0   Radius =  0.650 angstrom
                   Q00  =   0.833670

O          x = -0.491747  y = -0.407467  z =  0.363495 angstrom
           Maximum rank =  0   Radius =  0.650 angstrom
                   Q00  =  -0.871961

N          x =  0.119253  y = -0.711467  z =  2.457495 angstrom
           Maximum rank =  0   Radius =  0.650 angstrom
                   Q00  =  -0.528480

H          x =  1.494253  y = -2.611467  z =  1.403495 angstrom
           Maximum rank =  0   Radius =  0.325 angstrom
                   Q00  =   0.123019

H          x =  2.391253  y = -1.137467  z =  1.008495 angstrom
           Maximum rank =  0   Radius =  0.325 angstrom
                   Q00  =   0.128729

H          x = -0.673747  y = -0.181467  z =  2.778495 angstrom
           Maximum rank =  0   Radius =  0.325 angstrom
                   Q00  =   0.240430

H          x =  0.796253  y = -1.118467  z =  3.096495 angstrom
           Maximum rank =  0   Radius =  0.325 angstrom
                   Q00  =   0.234609

H          x =  1.487665  y = -2.007027  z = -0.277605 angstrom
           Maximum rank =  0   Radius =  0.325 angstrom
                   Q00  =   0.126701

C          x = -0.291747  y =  2.286533  z = -2.624505 angstrom
           Maximum rank =  0   Radius =  0.650 angstrom
                   Q00  =  -0.156301

N          x = -0.954747  y =  1.187533  z = -1.897505 angstrom
           Maximum rank =  0   Radius =  0.650 angstrom
                   Q00  =  -0.127572

H          x = -0.777747  y =  1.212533  z = -0.895505 angstrom
           Maximum rank =  0   Radius =  0.325 angstrom
                   Q00  =   0.286294

H          x = -1.959747  y =  1.232533  z = -2.023505 angstrom
           Maximum rank =  0   Radius =  0.325 angstrom
                   Q00  =   0.249634

H          x = -0.656747  y =  0.277533  z = -2.240505 angstrom
           Maximum rank =  0   Radius =  0.325 angstrom
                   Q00  =   0.263422

H          x = -0.822747  y =  3.223533  z = -2.424505 angstrom
           Maximum rank =  0   Radius =  0.325 angstrom
                   Q00  =   0.150085

H          x = -0.403747  y =  2.101533  z = -3.697505 angstrom
           Maximum rank =  0   Radius =  0.325 angstrom
                   Q00  =   0.146818

H          x =  0.775933  y =  2.472983  z = -2.436635 angstrom
           Maximum rank =  0   Radius =  0.325 angstrom
                   Q00  =   0.165522

Total multipoles referred to origin at
           x =   0.000000,  y =    0.000000,  z =    0.000000 angstrom
                   Q00  =   1.000000

Finished at 10:13:15 on 28 Apr 2020

  DMA results are available in the Python driver through the
	  variable('DMA DISTRIBUTED MULTIPOLES')
  and
	  variable('DMA TOTAL MULTIPOLES')
  commands.

    Psi4 stopped on: Tuesday, 28 April 2020 10:13AM
    Psi4 wall time for execution: 0:00:23.00

*** Psi4 exiting successfully. Buy a developer a beer!
