                               Psi4 1.3.2 release

  ==> Input File <==

--------------------------------------------------------------------------
import numpy as np
set {scf_type pk
basis cc-pvdz
d_convergence 10
gdma_switch   0
gdma_limit    0
gdma_origin   [ 0.0,  0.0,  0.0 ]
}
molecule test {
    units Angstrom
    0 1
    --
    0 1
    C                1.855510070662396    -2.182357308047222    -2.554433359123015
    C                0.794510070662396    -3.249357308047223    -2.744433359123015
    H                2.787510070662396    -2.495357308047223    -3.025433359123014
    H                1.523510070662397    -1.253357308047223    -3.018433359123014
    H                2.023510070662397    -2.011357308047223    -1.492433359123015
    H                0.625510070662396    -3.393357308047223    -3.812433359123014
    H                1.164610070662397    -4.182562308047222    -2.294813359123014
    H               -0.155319929337604    -2.974707508047223    -2.262363359123015
    C                0.553510070662396     0.235642691952777    -0.263433359123015
    C                1.954510070662396     0.761642691952777    -0.054433359123015
    C                0.573510070662396     1.993642691952777     1.454566640876986
    C               -2.171489929337604    -0.410357308047223     0.406566640876985
    C               -1.479489929337603     0.718642691952777     1.142566640876986
    O               -2.058489929337604     1.343642691952777     2.038566640876986
    N               -0.221489929337604     0.965642691952777     0.755566640876985
    H                0.196510070662396     0.494642691952777    -1.262433359123015
    H                0.525510070662396    -0.841357308047223    -0.099433359123015
    H                2.492510070662396     0.840642691952777    -0.999433359123015
    H                2.485510070662396     0.077642691952777     0.609566640876985
    H                0.820510070662396     1.643642691952777     2.455566640876985
    H               -1.593489929337603    -1.326357308047223     0.532566640876985
    H               -2.216489929337604    -0.163357308047223    -0.654433359123015
    H                1.870950070662396     1.738679691952777     0.443976640876985
    H                1.491940070662396     2.066856691952777     0.853636640876985
    H                0.119050070662396     2.994766691952778     1.489416640876986
    H               -3.187649929337604    -0.565339308047223     0.798216640876985

}
e, wfn = energy('scf', return_wfn=True)
gdma(wfn)
dmavals = variable('DMA DISTRIBUTED MULTIPOLES')
charges = np.array(dmavals)
print(charges)
np.save('SSI-012LEU-027PRO-1-dimer.npy', np.array(charges))--------------------------------------------------------------------------

*** tstart() called on ds3
*** at Mon Apr 27 21:46:56 2020

   => Loading Basis Set <=

    Name: CC-PVDZ
    Role: ORBITAL
    Keyword: BASIS
    atoms 1-2, 9-13  entry C          line   138 file /theoryfs2/ds/metcalf/miniconda2/envs/tf2gpu/share/psi4/basis/cc-pvdz.gbs
    atoms 3-8, 16-26 entry H          line    22 file /theoryfs2/ds/metcalf/miniconda2/envs/tf2gpu/share/psi4/basis/cc-pvdz.gbs
    atoms 14         entry O          line   198 file /theoryfs2/ds/metcalf/miniconda2/envs/tf2gpu/share/psi4/basis/cc-pvdz.gbs
    atoms 15         entry N          line   168 file /theoryfs2/ds/metcalf/miniconda2/envs/tf2gpu/share/psi4/basis/cc-pvdz.gbs

         ---------------------------------------------------------
                                   SCF
               by Justin Turney, Rob Parrish, Andy Simmonett
                          and Daniel G. A. Smith
                              RHF Reference
                        1 Threads,    500 MiB Core
         ---------------------------------------------------------

  ==> Geometry <==

    Molecular point group: c1
    Full point group: C1

    Geometry (in Angstrom), charge = 0, multiplicity = 1:

       Center              X                  Y                   Z               Mass
    ------------   -----------------  -----------------  -----------------  -----------------
         C            1.855510070662    -2.182357308047    -2.554433359123    12.000000000000
         C            0.794510070662    -3.249357308047    -2.744433359123    12.000000000000
         H            2.787510070662    -2.495357308047    -3.025433359123     1.007825032230
         H            1.523510070662    -1.253357308047    -3.018433359123     1.007825032230
         H            2.023510070662    -2.011357308047    -1.492433359123     1.007825032230
         H            0.625510070662    -3.393357308047    -3.812433359123     1.007825032230
         H            1.164610070662    -4.182562308047    -2.294813359123     1.007825032230
         H           -0.155319929338    -2.974707508047    -2.262363359123     1.007825032230
         C            0.553510070662     0.235642691953    -0.263433359123    12.000000000000
         C            1.954510070662     0.761642691953    -0.054433359123    12.000000000000
         C            0.573510070662     1.993642691953     1.454566640877    12.000000000000
         C           -2.171489929338    -0.410357308047     0.406566640877    12.000000000000
         C           -1.479489929338     0.718642691953     1.142566640877    12.000000000000
         O           -2.058489929338     1.343642691953     2.038566640877    15.994914619570
         N           -0.221489929338     0.965642691953     0.755566640877    14.003074004430
         H            0.196510070662     0.494642691953    -1.262433359123     1.007825032230
         H            0.525510070662    -0.841357308047    -0.099433359123     1.007825032230
         H            2.492510070662     0.840642691953    -0.999433359123     1.007825032230
         H            2.485510070662     0.077642691953     0.609566640877     1.007825032230
         H            0.820510070662     1.643642691953     2.455566640877     1.007825032230
         H           -1.593489929338    -1.326357308047     0.532566640877     1.007825032230
         H           -2.216489929338    -0.163357308047    -0.654433359123     1.007825032230
         H            1.870950070662     1.738679691953     0.443976640877     1.007825032230
         H            1.491940070662     2.066856691953     0.853636640877     1.007825032230
         H            0.119050070662     2.994766691953     1.489416640877     1.007825032230
         H           -3.187649929338    -0.565339308047     0.798216640877     1.007825032230

  Running in c1 symmetry.

  Rotational constants: A =      0.06922  B =      0.02153  C =      0.01678 [cm^-1]
  Rotational constants: A =   2075.27353  B =    645.43945  C =    503.10006 [MHz]
  Nuclear repulsion =  472.814729629750559

  Charge       = 0
  Multiplicity = 1
  Electrons    = 74
  Nalpha       = 37
  Nbeta        = 37

  ==> Algorithm <==

  SCF Algorithm Type is PK.
  DIIS enabled.
  MOM disabled.
  Fractional occupation disabled.
  Guess Type is SAD.
  Energy threshold   = 1.00e-06
  Density threshold  = 1.00e-10
  Integral threshold = 0.00e+00

  ==> Primary Basis <==

  Basis Set: CC-PVDZ
    Blend: CC-PVDZ
    Number of shells: 105
    Number of basis function: 211
    Number of Cartesian functions: 220
    Spherical Harmonics?: true
    Max angular momentum: 2

  ==> Pre-Iterations <==

   -------------------------------------------------------
    Irrep   Nso     Nmo     Nalpha   Nbeta   Ndocc  Nsocc
   -------------------------------------------------------
     A        211     211       0       0       0       0
   -------------------------------------------------------
    Total     211     211      37      37      37       0
   -------------------------------------------------------

  ==> Integral Setup <==

  Using integral reordering PK algorithm.
  Sizing the integral batches needed.
  Building batch lookup table.
   Calculation information:
      Number of atoms:                  26
      Number of AO shells:             105
      Number of primitives:            283
      Number of atomic orbitals:       220
      Number of basis functions:       211

      Integral cutoff                 1.00e-12
      Number of threads:                 1

	Batch   1 pq = [       0,    9405] index = [             0,44231715] size =     44231715
	Batch   2 pq = [    9405,   13301] index = [      44231715,88464951] size =     44233236
	Batch   3 pq = [   13301,   16290] index = [      88464951,132690195] size =     44225244
	Batch   4 pq = [   16290,   18810] index = [     132690195,176917455] size =     44227260
	Batch   5 pq = [   18810,   21030] index = [     176917455,221140965] size =     44223510
	Batch   6 pq = [   21030,   22366] index = [     221140965,250130161] size =     28989196
  Task number: 23
  Buffer size: 11059200
  Buffer per thread: 2
  We computed 13645064 shell quartets total.
  Whereas there are 15487395 unique shell quartets.

  ==> DiskJK: Disk-Based J/K Matrices <==

    J tasked:                  Yes
    K tasked:                  Yes
    wK tasked:                  No
    Memory [MiB]:              375
    Schwarz Cutoff:          1E-12

    OpenMP threads:              1

  Minimum eigenvalue in the overlap matrix is 1.3241950034E-03.
  Using Symmetric Orthogonalization.

  SCF Guess: Superposition of Atomic Densities via on-the-fly atomic UHF.

  ==> Iterations <==

                        Total Energy        Delta E     RMS |[F,P]|

   @RHF iter SAD:  -403.39816061307238   -4.03398e+02   0.00000e+00
   @RHF iter   1:  -403.80976871877340   -4.11608e-01   3.33848e-03 DIIS
   @RHF iter   2:  -404.03924926119021   -2.29481e-01   1.85525e-03 DIIS
   @RHF iter   3:  -404.09966875583331   -6.04195e-02   4.47245e-04 DIIS
   @RHF iter   4:  -404.10500645514185   -5.33770e-03   1.75415e-04 DIIS
   @RHF iter   5:  -404.10587687707209   -8.70422e-04   3.01895e-05 DIIS
   @RHF iter   6:  -404.10592913666238   -5.22596e-05   1.53049e-05 DIIS
   @RHF iter   7:  -404.10593945108047   -1.03144e-05   5.64426e-06 DIIS
   @RHF iter   8:  -404.10594160134559   -2.15027e-06   2.17089e-06 DIIS
   @RHF iter   9:  -404.10594191628871   -3.14943e-07   5.96779e-07 DIIS
   @RHF iter  10:  -404.10594193543466   -1.91459e-08   1.72814e-07 DIIS
   @RHF iter  11:  -404.10594193708732   -1.65267e-09   5.12486e-08 DIIS
   @RHF iter  12:  -404.10594193721147   -1.24146e-10   1.65344e-08 DIIS
   @RHF iter  13:  -404.10594193721784   -6.36646e-12   4.86370e-09 DIIS
   @RHF iter  14:  -404.10594193722233   -4.49063e-12   1.23564e-09 DIIS
   @RHF iter  15:  -404.10594193722392   -1.59162e-12   3.28399e-10 DIIS
   @RHF iter  16:  -404.10594193722488   -9.66338e-13   1.41175e-10 DIIS
   @RHF iter  17:  -404.10594193722272    2.16005e-12   4.32363e-11 DIIS
  Energy and wave function converged.

  ==> Post-Iterations <==

    Orbital Energies [Eh]
    ---------------------

    Doubly Occupied:

       1A    -20.497401     2A    -15.582698     3A    -11.338299
       4A    -11.280738     5A    -11.246134     6A    -11.234197
       7A    -11.228146     8A    -11.226646     9A    -11.220371
      10A     -1.356552    11A     -1.251677    12A     -1.073090
      13A     -1.032329    14A     -1.006890    15A     -0.973272
      16A     -0.854199    17A     -0.845449    18A     -0.754756
      19A     -0.728497    20A     -0.674971    21A     -0.651367
      22A     -0.615638    23A     -0.612206    24A     -0.607952
      25A     -0.598319    26A     -0.577646    27A     -0.548180
      28A     -0.535270    29A     -0.531920    30A     -0.522229
      31A     -0.512426    32A     -0.496423    33A     -0.492928
      34A     -0.485602    35A     -0.400002    36A     -0.389017
      37A     -0.362194

    Virtual:

      38A      0.148183    39A      0.181736    40A      0.188149
      41A      0.196030    42A      0.208226    43A      0.224126
      44A      0.244784    45A      0.246031    46A      0.251954
      47A      0.253846    48A      0.264304    49A      0.266846
      50A      0.273850    51A      0.285292    52A      0.296116
      53A      0.305516    54A      0.329648    55A      0.355564
      56A      0.380216    57A      0.389378    58A      0.393924
      59A      0.416263    60A      0.449848    61A      0.502435
      62A      0.518537    63A      0.536042    64A      0.569094
      65A      0.593493    66A      0.596414    67A      0.602503
      68A      0.627532    69A      0.643158    70A      0.647168
      71A      0.659014    72A      0.671525    73A      0.707180
      74A      0.719150    75A      0.721657    76A      0.748856
      77A      0.785589    78A      0.801171    79A      0.828457
      80A      0.848897    81A      0.853028    82A      0.861706
      83A      0.871881    84A      0.874326    85A      0.878663
      86A      0.887822    87A      0.892121    88A      0.899712
      89A      0.907640    90A      0.912899    91A      0.914253
      92A      0.922973    93A      0.933288    94A      0.938715
      95A      0.954843    96A      0.967003    97A      0.984295
      98A      1.010495    99A      1.031400   100A      1.045329
     101A      1.065781   102A      1.096224   103A      1.117060
     104A      1.130704   105A      1.149012   106A      1.190745
     107A      1.196518   108A      1.215721   109A      1.236673
     110A      1.267754   111A      1.336819   112A      1.379651
     113A      1.397561   114A      1.440396   115A      1.442614
     116A      1.454621   117A      1.478888   118A      1.480214
     119A      1.496133   120A      1.548028   121A      1.561747
     122A      1.563427   123A      1.591124   124A      1.640732
     125A      1.650949   126A      1.663448   127A      1.671845
     128A      1.676646   129A      1.685020   130A      1.693579
     131A      1.744231   132A      1.767828   133A      1.823415
     134A      1.831090   135A      1.848873   136A      1.856345
     137A      1.871502   138A      1.884894   139A      1.892215
     140A      1.901284   141A      1.915029   142A      1.919180
     143A      1.928199   144A      1.938089   145A      1.948158
     146A      1.949939   147A      1.956908   148A      1.961093
     149A      1.978196   150A      1.984178   151A      2.003793
     152A      2.032253   153A      2.043311   154A      2.056265
     155A      2.083335   156A      2.087318   157A      2.110723
     158A      2.124407   159A      2.138158   160A      2.148907
     161A      2.158287   162A      2.162346   163A      2.197586
     164A      2.222820   165A      2.238009   166A      2.273030
     167A      2.291278   168A      2.302043   169A      2.322985
     170A      2.357842   171A      2.368618   172A      2.403124
     173A      2.443710   174A      2.453065   175A      2.475364
     176A      2.481700   177A      2.506768   178A      2.546355
     179A      2.555127   180A      2.567775   181A      2.570722
     182A      2.580390   183A      2.626878   184A      2.697897
     185A      2.747515   186A      2.755198   187A      2.761279
     188A      2.780136   189A      2.790557   190A      2.798950
     191A      2.803603   192A      2.828517   193A      2.834962
     194A      2.844668   195A      2.849839   196A      2.857527
     197A      2.921019   198A      2.964450   199A      2.966243
     200A      2.995253   201A      3.025850   202A      3.103498
     203A      3.124290   204A      3.173142   205A      3.224022
     206A      3.335208   207A      3.393394   208A      3.519681
     209A      3.823002   210A      3.901735   211A      5.198089

    Final Occupation by Irrep:
              A
    DOCC [    37 ]

  @RHF Final Energy:  -404.10594193722272

   => Energetics <=

    Nuclear Repulsion Energy =            472.8147296297505591
    One-Electron Energy =               -1485.1500797596374923
    Two-Electron Energy =                 608.2294081926642093
    Total Energy =                       -404.1059419372227239

Computation Completed

Properties will be evaluated at   0.000000,   0.000000,   0.000000 [a0]

Properties computed using the SCF density matrix

  Nuclear Dipole Moment: [e a0]
     X:    10.2787      Y:    -8.7619      Z:   -10.9971

  Electronic Dipole Moment: [e a0]
     X:    -8.9785      Y:     8.1627      Z:     9.8332

  Dipole Moment: [e a0]
     X:     1.3002      Y:    -0.5992      Z:    -1.1639     Total:     1.8451

  Dipole Moment: [D]
     X:     3.3048      Y:    -1.5231      Z:    -2.9583     Total:     4.6897

*** tstop() called on ds3 at Mon Apr 27 21:49:28 2020
Module time:
	user time   =      83.18 seconds =       1.39 minutes
	system time =      36.79 seconds =       0.61 minutes
	total time  =        152 seconds =       2.53 minutes
Total time:
	user time   =      83.18 seconds =       1.39 minutes
	system time =      36.79 seconds =       0.61 minutes
	total time  =        152 seconds =       2.53 minutes
                                     G D M A

                                 by Anthony Stone

                           version 2.2.06, 22 June 2011

               Distributed Multipoles from Gaussian wavefunctions

Starting at 21:49:28 on 27 Apr 2020

Using SCF density matrix from file ./SSI/SSI-012LEU-027PRO-1-dimer.test.21242.fchk

                         Distributed Multipole Analysis

Standard DMA

Positions and radii in angstrom
Multipole moments in atomic units, ea_0^k for rank k

C          x =  1.855510  y = -2.182357  z = -2.554433 angstrom
           Maximum rank =  0   Radius =  0.650 angstrom
                   Q00  =  -0.232403

C          x =  0.794510  y = -3.249357  z = -2.744433 angstrom
           Maximum rank =  0   Radius =  0.650 angstrom
                   Q00  =  -0.234405

H          x =  2.787510  y = -2.495357  z = -3.025433 angstrom
           Maximum rank =  0   Radius =  0.325 angstrom
                   Q00  =   0.084443

H          x =  1.523510  y = -1.253357  z = -3.018433 angstrom
           Maximum rank =  0   Radius =  0.325 angstrom
                   Q00  =   0.073798

H          x =  2.023510  y = -2.011357  z = -1.492433 angstrom
           Maximum rank =  0   Radius =  0.325 angstrom
                   Q00  =   0.073150

H          x =  0.625510  y = -3.393357  z = -3.812433 angstrom
           Maximum rank =  0   Radius =  0.325 angstrom
                   Q00  =   0.082570

H          x =  1.164610  y = -4.182562  z = -2.294813 angstrom
           Maximum rank =  0   Radius =  0.325 angstrom
                   Q00  =   0.077706

H          x = -0.155320  y = -2.974708  z = -2.262363 angstrom
           Maximum rank =  0   Radius =  0.325 angstrom
                   Q00  =   0.075853

C          x =  0.553510  y =  0.235643  z = -0.263433 angstrom
           Maximum rank =  0   Radius =  0.650 angstrom
                   Q00  =   0.000168

C          x =  1.954510  y =  0.761643  z = -0.054433 angstrom
           Maximum rank =  0   Radius =  0.650 angstrom
                   Q00  =  -0.252733

C          x =  0.573510  y =  1.993643  z =  1.454567 angstrom
           Maximum rank =  0   Radius =  0.650 angstrom
                   Q00  =  -0.098544

C          x = -2.171490  y = -0.410357  z =  0.406567 angstrom
           Maximum rank =  0   Radius =  0.650 angstrom
                   Q00  =  -0.273332

C          x = -1.479490  y =  0.718643  z =  1.142567 angstrom
           Maximum rank =  0   Radius =  0.650 angstrom
                   Q00  =   0.773151

O          x = -2.058490  y =  1.343643  z =  2.038567 angstrom
           Maximum rank =  0   Radius =  0.650 angstrom
                   Q00  =  -0.788586

N          x = -0.221490  y =  0.965643  z =  0.755567 angstrom
           Maximum rank =  0   Radius =  0.650 angstrom
                   Q00  =  -0.470444

H          x =  0.196510  y =  0.494643  z = -1.262433 angstrom
           Maximum rank =  0   Radius =  0.325 angstrom
                   Q00  =   0.068134

H          x =  0.525510  y = -0.841357  z = -0.099433 angstrom
           Maximum rank =  0   Radius =  0.325 angstrom
                   Q00  =   0.083241

H          x =  2.492510  y =  0.840643  z = -0.999433 angstrom
           Maximum rank =  0   Radius =  0.325 angstrom
                   Q00  =   0.090634

H          x =  2.485510  y =  0.077643  z =  0.609567 angstrom
           Maximum rank =  0   Radius =  0.325 angstrom
                   Q00  =   0.097961

H          x =  0.820510  y =  1.643643  z =  2.455567 angstrom
           Maximum rank =  0   Radius =  0.325 angstrom
                   Q00  =   0.100858

H          x = -1.593490  y = -1.326357  z =  0.532567 angstrom
           Maximum rank =  0   Radius =  0.325 angstrom
                   Q00  =   0.104595

H          x = -2.216490  y = -0.163357  z = -0.654433 angstrom
           Maximum rank =  0   Radius =  0.325 angstrom
                   Q00  =   0.110572

H          x =  1.870950  y =  1.738680  z =  0.443977 angstrom
           Maximum rank =  0   Radius =  0.325 angstrom
                   Q00  =   0.121248

H          x =  1.491940  y =  2.066857  z =  0.853637 angstrom
           Maximum rank =  0   Radius =  0.325 angstrom
                   Q00  =   0.094961

H          x =  0.119050  y =  2.994767  z =  1.489417 angstrom
           Maximum rank =  0   Radius =  0.325 angstrom
                   Q00  =   0.108564

H          x = -3.187650  y = -0.565339  z =  0.798217 angstrom
           Maximum rank =  0   Radius =  0.325 angstrom
                   Q00  =   0.128840

Total multipoles referred to origin at
           x =   0.000000,  y =    0.000000,  z =    0.000000 angstrom
                   Q00  =  -0.000000

Finished at 21:49:28 on 27 Apr 2020

  DMA results are available in the Python driver through the
	  variable('DMA DISTRIBUTED MULTIPOLES')
  and
	  variable('DMA TOTAL MULTIPOLES')
  commands.

    Psi4 stopped on: Monday, 27 April 2020 09:49PM
    Psi4 wall time for execution: 0:02:31.50

*** Psi4 exiting successfully. Buy a developer a beer!
