                               Psi4 1.3.2 release

  ==> Input File <==

--------------------------------------------------------------------------
import numpy as np
set {scf_type pk
basis cc-pvdz
d_convergence 10
gdma_switch   0
gdma_limit    0
gdma_origin   [ 0.0,  0.0,  0.0 ]
}
molecule test {
    units Angstrom
    0 1
    --
    0 1
    C                3.721335466621246    -0.173664445611514    -1.469975075870072
    C                0.605335466621246     0.557335554388486     0.666024924129927
    C                1.710335466621246    -0.086664445611514     0.056024924129927
    C                0.308335466621246     1.871335554388485     0.339024924129928
    C                2.529335466621246     0.551335554388486    -0.876975075870073
    C                1.108335466621245     2.516335554388486    -0.595975075870073
    C                2.225335466621246     1.863335554388486    -1.218975075870072
    H               -0.010664533378754     0.043335554388486     1.389024924129928
    H                1.952335466621246    -1.108664445611514     0.306024924129927
    H               -0.526664533378754     2.384335554388486     0.798024924129927
    H                0.846335466621246     3.515335554388486    -0.826975075870073
    H                4.315335466621245    -0.548664445611514    -0.634975075870073
    H                4.308335466621245     0.562335554388486    -2.019975075870073
    H                2.837335466621246     2.375335554388486    -1.952975075870072
    H                3.455695466621246    -0.994864445611514    -2.151925075870073
    C               -2.480664533378754    -1.510664445611514     0.908024924129927
    C               -3.604664533378754    -0.784664445611514     1.705024924129927
    C               -2.803664533378754    -3.021664445611514     0.900024924129927
    C               -2.345664533378754    -0.971664445611514    -0.574975075870073
    H               -1.525664533378754    -1.362664445611514     1.410024924129928
    H               -3.803664533378754    -1.314664445611514     2.639024924129927
    H               -4.517664533378754    -0.774664445611514     1.107024924129927
    H               -3.763664533378754    -3.187664445611514     0.411024924129927
    H               -2.026664533378754    -3.561664445611514     0.359024924129927
    H               -2.851664533378754    -3.401664445611514     1.923024924129928
    H               -2.111664533378754     0.094335554388486    -0.570975075870073
    H               -1.543664533378754    -1.498664445611514    -1.096975075870072
    H               -3.280664533378754    -1.125664445611514    -1.117975075870073
    H               -3.346624533378754     0.251735554388486     1.968074924129927

}
e, wfn = energy('scf', return_wfn=True)
gdma(wfn)
dmavals = variable('DMA DISTRIBUTED MULTIPOLES')
charges = np.array(dmavals)
print(charges)
np.save('SSI-078PHE-108LEU-1-dimer.npy', np.array(charges))--------------------------------------------------------------------------

*** tstart() called on ds3
*** at Sun Apr 26 19:44:40 2020

   => Loading Basis Set <=

    Name: CC-PVDZ
    Role: ORBITAL
    Keyword: BASIS
    atoms 1-7, 16-19  entry C          line   138 file /theoryfs2/ds/metcalf/miniconda2/envs/tf2gpu/share/psi4/basis/cc-pvdz.gbs
    atoms 8-15, 20-29 entry H          line    22 file /theoryfs2/ds/metcalf/miniconda2/envs/tf2gpu/share/psi4/basis/cc-pvdz.gbs

         ---------------------------------------------------------
                                   SCF
               by Justin Turney, Rob Parrish, Andy Simmonett
                          and Daniel G. A. Smith
                              RHF Reference
                        1 Threads,    500 MiB Core
         ---------------------------------------------------------

  ==> Geometry <==

    Molecular point group: c1
    Full point group: C1

    Geometry (in Angstrom), charge = 0, multiplicity = 1:

       Center              X                  Y                   Z               Mass
    ------------   -----------------  -----------------  -----------------  -----------------
         C            3.721335466621    -0.173664445612    -1.469975075870    12.000000000000
         C            0.605335466621     0.557335554388     0.666024924130    12.000000000000
         C            1.710335466621    -0.086664445612     0.056024924130    12.000000000000
         C            0.308335466621     1.871335554388     0.339024924130    12.000000000000
         C            2.529335466621     0.551335554388    -0.876975075870    12.000000000000
         C            1.108335466621     2.516335554388    -0.595975075870    12.000000000000
         C            2.225335466621     1.863335554388    -1.218975075870    12.000000000000
         H           -0.010664533379     0.043335554388     1.389024924130     1.007825032230
         H            1.952335466621    -1.108664445612     0.306024924130     1.007825032230
         H           -0.526664533379     2.384335554388     0.798024924130     1.007825032230
         H            0.846335466621     3.515335554388    -0.826975075870     1.007825032230
         H            4.315335466621    -0.548664445612    -0.634975075870     1.007825032230
         H            4.308335466621     0.562335554388    -2.019975075870     1.007825032230
         H            2.837335466621     2.375335554388    -1.952975075870     1.007825032230
         H            3.455695466621    -0.994864445612    -2.151925075870     1.007825032230
         C           -2.480664533379    -1.510664445612     0.908024924130    12.000000000000
         C           -3.604664533379    -0.784664445612     1.705024924130    12.000000000000
         C           -2.803664533379    -3.021664445612     0.900024924130    12.000000000000
         C           -2.345664533379    -0.971664445612    -0.574975075870    12.000000000000
         H           -1.525664533379    -1.362664445612     1.410024924130     1.007825032230
         H           -3.803664533379    -1.314664445612     2.639024924130     1.007825032230
         H           -4.517664533379    -0.774664445612     1.107024924130     1.007825032230
         H           -3.763664533379    -3.187664445612     0.411024924130     1.007825032230
         H           -2.026664533379    -3.561664445612     0.359024924130     1.007825032230
         H           -2.851664533379    -3.401664445612     1.923024924130     1.007825032230
         H           -2.111664533379     0.094335554388    -0.570975075870     1.007825032230
         H           -1.543664533379    -1.498664445612    -1.096975075870     1.007825032230
         H           -3.280664533379    -1.125664445612    -1.117975075870     1.007825032230
         H           -3.346624533379     0.251735554388     1.968074924130     1.007825032230

  Running in c1 symmetry.

  Rotational constants: A =      0.06133  B =      0.01360  C =      0.01207 [cm^-1]
  Rotational constants: A =   1838.56392  B =    407.59928  C =    361.83251 [MHz]
  Nuclear repulsion =  566.232013677033251

  Charge       = 0
  Multiplicity = 1
  Electrons    = 84
  Nalpha       = 42
  Nbeta        = 42

  ==> Algorithm <==

  SCF Algorithm Type is PK.
  DIIS enabled.
  MOM disabled.
  Fractional occupation disabled.
  Guess Type is SAD.
  Energy threshold   = 1.00e-06
  Density threshold  = 1.00e-10
  Integral threshold = 0.00e+00

  ==> Primary Basis <==

  Basis Set: CC-PVDZ
    Blend: CC-PVDZ
    Number of shells: 120
    Number of basis function: 244
    Number of Cartesian functions: 255
    Spherical Harmonics?: true
    Max angular momentum: 2

  ==> Pre-Iterations <==

   -------------------------------------------------------
    Irrep   Nso     Nmo     Nalpha   Nbeta   Ndocc  Nsocc
   -------------------------------------------------------
     A        244     244       0       0       0       0
   -------------------------------------------------------
    Total     244     244      42      42      42       0
   -------------------------------------------------------

  ==> Integral Setup <==

  Using integral reordering PK algorithm.
  Sizing the integral batches needed.
  Building batch lookup table.
   Calculation information:
      Number of atoms:                  29
      Number of AO shells:             120
      Number of primitives:            332
      Number of atomic orbitals:       255
      Number of basis functions:       244

      Integral cutoff                 1.00e-12
      Number of threads:                 1

	Batch   1 pq = [       0,    9405] index = [             0,44231715] size =     44231715
	Batch   2 pq = [    9405,   13301] index = [      44231715,88464951] size =     44233236
	Batch   3 pq = [   13301,   16290] index = [      88464951,132690195] size =     44225244
	Batch   4 pq = [   16290,   18810] index = [     132690195,176917455] size =     44227260
	Batch   5 pq = [   18810,   21030] index = [     176917455,221140965] size =     44223510
	Batch   6 pq = [   21030,   23037] index = [     221140965,265363203] size =     44222238
	Batch   7 pq = [   23037,   24883] index = [     265363203,309594286] size =     44231083
	Batch   8 pq = [   24883,   26601] index = [     309594286,353819901] size =     44225615
	Batch   9 pq = [   26601,   28214] index = [     353819901,398029005] size =     44209104
	Batch  10 pq = [   28214,   29740] index = [     398029005,442248670] size =     44219665
	Batch  11 pq = [   29740,   29890] index = [     442248670,446720995] size =      4472325
  Task number: 41
  Buffer size: 11059200
  Buffer per thread: 2
  We computed 23680167 shell quartets total.
  Whereas there are 26357430 unique shell quartets.

  ==> DiskJK: Disk-Based J/K Matrices <==

    J tasked:                  Yes
    K tasked:                  Yes
    wK tasked:                  No
    Memory [MiB]:              375
    Schwarz Cutoff:          1E-12

    OpenMP threads:              1

  Minimum eigenvalue in the overlap matrix is 3.2084383572E-04.
  Using Symmetric Orthogonalization.

  SCF Guess: Superposition of Atomic Densities via on-the-fly atomic UHF.

  ==> Iterations <==

                        Total Energy        Delta E     RMS |[F,P]|

   @RHF iter SAD:  -425.67572653651456   -4.25676e+02   0.00000e+00
   @RHF iter   1:  -426.77734363160897   -1.10162e+00   2.58421e-03 DIIS
   @RHF iter   2:  -427.01914029634167   -2.41797e-01   1.06539e-03 DIIS
   @RHF iter   3:  -427.05608996048778   -3.69497e-02   2.38629e-04 DIIS
   @RHF iter   4:  -427.05925776982713   -3.16781e-03   5.36506e-05 DIIS
   @RHF iter   5:  -427.05936993115330   -1.12161e-04   1.38546e-05 DIIS
   @RHF iter   6:  -427.05937811539900   -8.18425e-06   4.25066e-06 DIIS
   @RHF iter   7:  -427.05937900070660   -8.85308e-07   1.43312e-06 DIIS
   @RHF iter   8:  -427.05937915694432   -1.56238e-07   5.32641e-07 DIIS
   @RHF iter   9:  -427.05937920526725   -4.83229e-08   2.54036e-07 DIIS
   @RHF iter  10:  -427.05937921862841   -1.33612e-08   1.15808e-07 DIIS
   @RHF iter  11:  -427.05937922059502   -1.96661e-09   3.85011e-08 DIIS
   @RHF iter  12:  -427.05937922078112   -1.86105e-10   1.38050e-08 DIIS
   @RHF iter  13:  -427.05937922079630   -1.51772e-11   5.08303e-09 DIIS
   @RHF iter  14:  -427.05937922080028   -3.97904e-12   1.71154e-09 DIIS
   @RHF iter  15:  -427.05937922079897    1.30740e-12   7.86284e-10 DIIS
   @RHF iter  16:  -427.05937922079767    1.30740e-12   3.77290e-10 DIIS
   @RHF iter  17:  -427.05937922079880   -1.13687e-12   1.19251e-10 DIIS
   @RHF iter  18:  -427.05937922080130   -2.50111e-12   3.77838e-11 DIIS
  Energy and wave function converged.

  ==> Post-Iterations <==

    Orbital Energies [Eh]
    ---------------------

    Doubly Occupied:

       1A    -11.241946     2A    -11.237967     3A    -11.237791
       4A    -11.236471     5A    -11.232543     6A    -11.232297
       7A    -11.231367     8A    -11.230141     9A    -11.216947
      10A    -11.213851    11A    -11.213470    12A     -1.147365
      13A     -1.066963    14A     -1.047199    15A     -1.000497
      16A     -0.933097    17A     -0.921449    18A     -0.919701
      19A     -0.830914    20A     -0.788652    21A     -0.764872
      22A     -0.690294    23A     -0.635658    24A     -0.628518
      25A     -0.621483    26A     -0.585961    27A     -0.579858
      28A     -0.576280    29A     -0.573150    30A     -0.565443
      31A     -0.537568    32A     -0.533249    33A     -0.531201
      34A     -0.507615    35A     -0.486202    36A     -0.483256
      37A     -0.481407    38A     -0.459534    39A     -0.452953
      40A     -0.448491    41A     -0.327961    42A     -0.322443

    Virtual:

      43A      0.129232    44A      0.142039    45A      0.166695
      46A      0.190611    47A      0.199959    48A      0.213442
      49A      0.221688    50A      0.231702    51A      0.244866
      52A      0.247367    53A      0.254930    54A      0.264185
      55A      0.264985    56A      0.274793    57A      0.288678
      58A      0.303981    59A      0.305860    60A      0.311562
      61A      0.328641    62A      0.346205    63A      0.361810
      64A      0.365778    65A      0.379440    66A      0.401114
      67A      0.411985    68A      0.451408    69A      0.465505
      70A      0.467708    71A      0.501688    72A      0.556758
      73A      0.561769    74A      0.569515    75A      0.589575
      76A      0.604095    77A      0.624544    78A      0.630206
      79A      0.637975    80A      0.676881    81A      0.692132
      82A      0.707741    83A      0.715422    84A      0.735063
      85A      0.741582    86A      0.748217    87A      0.751726
      88A      0.756745    89A      0.772247    90A      0.781469
      91A      0.782101    92A      0.792683    93A      0.808960
      94A      0.831417    95A      0.837243    96A      0.849995
      97A      0.853446    98A      0.863271    99A      0.877688
     100A      0.881059   101A      0.886332   102A      0.891706
     103A      0.895761   104A      0.899238   105A      0.903884
     106A      0.911726   107A      0.915931   108A      0.918284
     109A      0.923774   110A      0.936155   111A      0.943713
     112A      0.949949   113A      0.961171   114A      0.975498
     115A      0.981553   116A      0.992176   117A      1.003295
     118A      1.018940   119A      1.048211   120A      1.077732
     121A      1.116072   122A      1.123946   123A      1.129527
     124A      1.133749   125A      1.152082   126A      1.168843
     127A      1.176730   128A      1.192841   129A      1.233076
     130A      1.239088   131A      1.257849   132A      1.276166
     133A      1.294829   134A      1.301511   135A      1.328015
     136A      1.330092   137A      1.365285   138A      1.387591
     139A      1.409585   140A      1.421864   141A      1.499806
     142A      1.532450   143A      1.542125   144A      1.546985
     145A      1.560209   146A      1.606679   147A      1.653595
     148A      1.671221   149A      1.675943   150A      1.678325
     151A      1.684662   152A      1.690965   153A      1.692595
     154A      1.706934   155A      1.730204   156A      1.734980
     157A      1.738303   158A      1.781980   159A      1.793399
     160A      1.800477   161A      1.827191   162A      1.839873
     163A      1.859389   164A      1.867771   165A      1.875872
     166A      1.886526   167A      1.893319   168A      1.927439
     169A      1.932053   170A      1.932834   171A      1.933631
     172A      1.945410   173A      1.950793   174A      1.953377
     175A      1.959333   176A      1.965471   177A      1.970937
     178A      1.976506   179A      1.988238   180A      1.993515
     181A      2.013531   182A      2.017391   183A      2.031225
     184A      2.039687   185A      2.048700   186A      2.066445
     187A      2.082456   188A      2.090047   189A      2.102198
     190A      2.105497   191A      2.123394   192A      2.135001
     193A      2.145015   194A      2.168752   195A      2.179821
     196A      2.194848   197A      2.241221   198A      2.242285
     199A      2.259445   200A      2.276036   201A      2.289317
     202A      2.301714   203A      2.308412   204A      2.316220
     205A      2.334481   206A      2.335291   207A      2.339852
     208A      2.355650   209A      2.383507   210A      2.447054
     211A      2.468730   212A      2.481923   213A      2.508422
     214A      2.527192   215A      2.563284   216A      2.591037
     217A      2.618279   218A      2.632859   219A      2.682049
     220A      2.707290   221A      2.734086   222A      2.750032
     223A      2.767086   224A      2.771936   225A      2.774019
     226A      2.786169   227A      2.791056   228A      2.799153
     229A      2.824161   230A      2.832352   231A      2.839308
     232A      2.845581   233A      2.855457   234A      2.861177
     235A      2.950334   236A      2.981838   237A      3.005037
     238A      3.013747   239A      3.057075   240A      3.102844
     241A      3.128525   242A      3.173634   243A      3.300907
     244A      3.932743

    Final Occupation by Irrep:
              A
    DOCC [    42 ]

  @RHF Final Energy:  -427.05937922080130

   => Energetics <=

    Nuclear Repulsion Energy =            566.2320136770332510
    One-Electron Energy =               -1698.6347330790185879
    Two-Electron Energy =                 705.3433401811840895
    Total Energy =                       -427.0593792208013610

Computation Completed

Properties will be evaluated at   0.000000,   0.000000,   0.000000 [a0]

Properties computed using the SCF density matrix

  Nuclear Dipole Moment: [e a0]
     X:   -10.8686      Y:    -9.0492      Z:     1.8164

  Electronic Dipole Moment: [e a0]
     X:    11.0315      Y:     9.0124      Z:    -1.8740

  Dipole Moment: [e a0]
     X:     0.1629      Y:    -0.0368      Z:    -0.0576     Total:     0.1767

  Dipole Moment: [D]
     X:     0.4141      Y:    -0.0935      Z:    -0.1464     Total:     0.4490

*** tstop() called on ds3 at Sun Apr 26 19:48:10 2020
Module time:
	user time   =     152.99 seconds =       2.55 minutes
	system time =      64.81 seconds =       1.08 minutes
	total time  =        210 seconds =       3.50 minutes
Total time:
	user time   =     152.99 seconds =       2.55 minutes
	system time =      64.81 seconds =       1.08 minutes
	total time  =        210 seconds =       3.50 minutes
                                     G D M A

                                 by Anthony Stone

                           version 2.2.06, 22 June 2011

               Distributed Multipoles from Gaussian wavefunctions

Starting at 19:48:10 on 26 Apr 2020

Using SCF density matrix from file ./SSI/SSI-078PHE-108LEU-1-dimer.test.8430.fchk

                         Distributed Multipole Analysis

Standard DMA

Positions and radii in angstrom
Multipole moments in atomic units, ea_0^k for rank k

C          x =  3.721335  y = -0.173664  z = -1.469975 angstrom
           Maximum rank =  0   Radius =  0.650 angstrom
                   Q00  =  -0.203303

C          x =  0.605335  y =  0.557336  z =  0.666025 angstrom
           Maximum rank =  0   Radius =  0.650 angstrom
                   Q00  =  -0.074773

C          x =  1.710335  y = -0.086664  z =  0.056025 angstrom
           Maximum rank =  0   Radius =  0.650 angstrom
                   Q00  =  -0.002201

C          x =  0.308335  y =  1.871336  z =  0.339025 angstrom
           Maximum rank =  0   Radius =  0.650 angstrom
                   Q00  =  -0.093593

C          x =  2.529335  y =  0.551336  z = -0.876975 angstrom
           Maximum rank =  0   Radius =  0.650 angstrom
                   Q00  =  -0.100619

C          x =  1.108335  y =  2.516336  z = -0.595975 angstrom
           Maximum rank =  0   Radius =  0.650 angstrom
                   Q00  =  -0.048401

C          x =  2.225335  y =  1.863336  z = -1.218975 angstrom
           Maximum rank =  0   Radius =  0.650 angstrom
                   Q00  =  -0.097061

H          x = -0.010665  y =  0.043336  z =  1.389025 angstrom
           Maximum rank =  0   Radius =  0.325 angstrom
                   Q00  =   0.064227

H          x =  1.952335  y = -1.108664  z =  0.306025 angstrom
           Maximum rank =  0   Radius =  0.325 angstrom
                   Q00  =   0.052974

H          x = -0.526665  y =  2.384336  z =  0.798025 angstrom
           Maximum rank =  0   Radius =  0.325 angstrom
                   Q00  =   0.063106

H          x =  0.846335  y =  3.515336  z = -0.826975 angstrom
           Maximum rank =  0   Radius =  0.325 angstrom
                   Q00  =   0.065295

H          x =  4.315335  y = -0.548664  z = -0.634975 angstrom
           Maximum rank =  0   Radius =  0.325 angstrom
                   Q00  =   0.102497

H          x =  4.308335  y =  0.562336  z = -2.019975 angstrom
           Maximum rank =  0   Radius =  0.325 angstrom
                   Q00  =   0.097701

H          x =  2.837335  y =  2.375336  z = -1.952975 angstrom
           Maximum rank =  0   Radius =  0.325 angstrom
                   Q00  =   0.064573

H          x =  3.455695  y = -0.994864  z = -2.151925 angstrom
           Maximum rank =  0   Radius =  0.325 angstrom
                   Q00  =   0.106741

C          x = -2.480665  y = -1.510664  z =  0.908025 angstrom
           Maximum rank =  0   Radius =  0.650 angstrom
                   Q00  =  -0.004347

C          x = -3.604665  y = -0.784664  z =  1.705025 angstrom
           Maximum rank =  0   Radius =  0.650 angstrom
                   Q00  =  -0.246787

C          x = -2.803665  y = -3.021664  z =  0.900025 angstrom
           Maximum rank =  0   Radius =  0.650 angstrom
                   Q00  =  -0.245126

C          x = -2.345665  y = -0.971664  z = -0.574975 angstrom
           Maximum rank =  0   Radius =  0.650 angstrom
                   Q00  =  -0.255044

H          x = -1.525665  y = -1.362664  z =  1.410025 angstrom
           Maximum rank =  0   Radius =  0.325 angstrom
                   Q00  =   0.015526

H          x = -3.803665  y = -1.314664  z =  2.639025 angstrom
           Maximum rank =  0   Radius =  0.325 angstrom
                   Q00  =   0.079833

H          x = -4.517665  y = -0.774664  z =  1.107025 angstrom
           Maximum rank =  0   Radius =  0.325 angstrom
                   Q00  =   0.080714

H          x = -3.763665  y = -3.187664  z =  0.411025 angstrom
           Maximum rank =  0   Radius =  0.325 angstrom
                   Q00  =   0.076905

H          x = -2.026665  y = -3.561664  z =  0.359025 angstrom
           Maximum rank =  0   Radius =  0.325 angstrom
                   Q00  =   0.080878

H          x = -2.851665  y = -3.401664  z =  1.923025 angstrom
           Maximum rank =  0   Radius =  0.325 angstrom
                   Q00  =   0.080385

H          x = -2.111665  y =  0.094336  z = -0.570975 angstrom
           Maximum rank =  0   Radius =  0.325 angstrom
                   Q00  =   0.091635

H          x = -1.543665  y = -1.498664  z = -1.096975 angstrom
           Maximum rank =  0   Radius =  0.325 angstrom
                   Q00  =   0.088350

H          x = -3.280665  y = -1.125664  z = -1.117975 angstrom
           Maximum rank =  0   Radius =  0.325 angstrom
                   Q00  =   0.078948

H          x = -3.346625  y =  0.251736  z =  1.968075 angstrom
           Maximum rank =  0   Radius =  0.325 angstrom
                   Q00  =   0.080966

Total multipoles referred to origin at
           x =   0.000000,  y =    0.000000,  z =    0.000000 angstrom
                   Q00  =  -0.000000

Finished at 19:48:10 on 26 Apr 2020

  DMA results are available in the Python driver through the
	  variable('DMA DISTRIBUTED MULTIPOLES')
  and
	  variable('DMA TOTAL MULTIPOLES')
  commands.

    Psi4 stopped on: Sunday, 26 April 2020 07:48PM
    Psi4 wall time for execution: 0:03:30.01

*** Psi4 exiting successfully. Buy a developer a beer!
