                               Psi4 1.3.2 release

  ==> Input File <==

--------------------------------------------------------------------------
import numpy as np
set {scf_type pk
basis cc-pvdz
d_convergence 10
gdma_switch   0
gdma_limit    0
gdma_origin   [ 0.0,  0.0,  0.0 ]
}
molecule test {
    units Angstrom
    0 1
    --
    0 1
    C               -0.481395474984076     2.617862107995572     0.396968252638672
    C               -0.529395474984076     3.189862107995572    -1.019031747361328
    H               -1.180395474984076     3.155862107995572     1.036968252638672
    H               -0.787395474984076     1.576862107995572     0.374968252638672
    H                0.526604525015924     2.686862107995572     0.806968252638672
    H                0.348604525015924     2.847862107995572    -1.567031747361328
    H               -0.551515474984076     4.289522107995571    -1.002618747361328
    H               -1.424895474984076     2.808062107995572    -1.531187647361328
    C                0.183604525015924    -1.196137892004429     0.363968252638672
    C                1.064604525015924    -2.123137892004428     1.199968252638672
    C                0.926604525015924    -0.786137892004428    -0.892031747361328
    C               -1.141395474984076    -1.863137892004428     0.002968252638672
    H               -0.021395474984076    -0.306137892004428     0.946968252638672
    H                2.025604525015924    -1.631137892004428     1.331968252638672
    H                1.228604525015924    -3.051137892004428     0.646968252638672
    H                1.173604525015924    -1.671137892004429    -1.479031747361328
    H                0.304604525015924    -0.123137892004428    -1.494031747361328
    H                1.844604525015924    -0.259137892004428    -0.625031747361328
    H               -1.716395474984076    -2.100137892004428     0.896968252638672
    H               -1.739395474984076    -1.178137892004428    -0.597031747361328
    H               -0.962395474984076    -2.772137892004428    -0.571031747361328
    H                0.662134525015924    -2.357847892004428     2.196425252638672

}
e, wfn = energy('scf', return_wfn=True)
gdma(wfn)
dmavals = variable('DMA DISTRIBUTED MULTIPOLES')
charges = np.array(dmavals)
print(charges)
np.save('SSI-032THR-094LEU-1-dimer.npy', np.array(charges))--------------------------------------------------------------------------

*** tstart() called on ds3
*** at Sun Apr 26 16:57:40 2020

   => Loading Basis Set <=

    Name: CC-PVDZ
    Role: ORBITAL
    Keyword: BASIS
    atoms 1-2, 9-12  entry C          line   138 file /theoryfs2/ds/metcalf/miniconda2/envs/tf2gpu/share/psi4/basis/cc-pvdz.gbs
    atoms 3-8, 13-22 entry H          line    22 file /theoryfs2/ds/metcalf/miniconda2/envs/tf2gpu/share/psi4/basis/cc-pvdz.gbs

         ---------------------------------------------------------
                                   SCF
               by Justin Turney, Rob Parrish, Andy Simmonett
                          and Daniel G. A. Smith
                              RHF Reference
                        1 Threads,    500 MiB Core
         ---------------------------------------------------------

  ==> Geometry <==

    Molecular point group: c1
    Full point group: C1

    Geometry (in Angstrom), charge = 0, multiplicity = 1:

       Center              X                  Y                   Z               Mass
    ------------   -----------------  -----------------  -----------------  -----------------
         C           -0.481395474984     2.617862107996     0.396968252639    12.000000000000
         C           -0.529395474984     3.189862107996    -1.019031747361    12.000000000000
         H           -1.180395474984     3.155862107996     1.036968252639     1.007825032230
         H           -0.787395474984     1.576862107996     0.374968252639     1.007825032230
         H            0.526604525016     2.686862107996     0.806968252639     1.007825032230
         H            0.348604525016     2.847862107996    -1.567031747361     1.007825032230
         H           -0.551515474984     4.289522107996    -1.002618747361     1.007825032230
         H           -1.424895474984     2.808062107996    -1.531187647361     1.007825032230
         C            0.183604525016    -1.196137892004     0.363968252639    12.000000000000
         C            1.064604525016    -2.123137892004     1.199968252639    12.000000000000
         C            0.926604525016    -0.786137892004    -0.892031747361    12.000000000000
         C           -1.141395474984    -1.863137892004     0.002968252639    12.000000000000
         H           -0.021395474984    -0.306137892004     0.946968252639     1.007825032230
         H            2.025604525016    -1.631137892004     1.331968252639     1.007825032230
         H            1.228604525016    -3.051137892004     0.646968252639     1.007825032230
         H            1.173604525016    -1.671137892004    -1.479031747361     1.007825032230
         H            0.304604525016    -0.123137892004    -1.494031747361     1.007825032230
         H            1.844604525016    -0.259137892004    -0.625031747361     1.007825032230
         H           -1.716395474984    -2.100137892004     0.896968252639     1.007825032230
         H           -1.739395474984    -1.178137892004    -0.597031747361     1.007825032230
         H           -0.962395474984    -2.772137892004    -0.571031747361     1.007825032230
         H            0.662134525016    -2.357847892004     2.196425252639     1.007825032230

  Running in c1 symmetry.

  Rotational constants: A =      0.15224  B =      0.03454  C =      0.03403 [cm^-1]
  Rotational constants: A =   4563.95558  B =   1035.49478  C =   1020.28130 [MHz]
  Nuclear repulsion =  247.858081649801193

  Charge       = 0
  Multiplicity = 1
  Electrons    = 52
  Nalpha       = 26
  Nbeta        = 26

  ==> Algorithm <==

  SCF Algorithm Type is PK.
  DIIS enabled.
  MOM disabled.
  Fractional occupation disabled.
  Guess Type is SAD.
  Energy threshold   = 1.00e-06
  Density threshold  = 1.00e-10
  Integral threshold = 0.00e+00

  ==> Primary Basis <==

  Basis Set: CC-PVDZ
    Blend: CC-PVDZ
    Number of shells: 84
    Number of basis function: 164
    Number of Cartesian functions: 170
    Spherical Harmonics?: true
    Max angular momentum: 2

  ==> Pre-Iterations <==

   -------------------------------------------------------
    Irrep   Nso     Nmo     Nalpha   Nbeta   Ndocc  Nsocc
   -------------------------------------------------------
     A        164     164       0       0       0       0
   -------------------------------------------------------
    Total     164     164      26      26      26       0
   -------------------------------------------------------

  ==> Integral Setup <==

  Using integral reordering PK algorithm.
  Sizing the integral batches needed.
  Building batch lookup table.
   Calculation information:
      Number of atoms:                  22
      Number of AO shells:              84
      Number of primitives:            212
      Number of atomic orbitals:       170
      Number of basis functions:       164

      Integral cutoff                 1.00e-12
      Number of threads:                 1

	Batch   1 pq = [       0,    9405] index = [             0,44231715] size =     44231715
	Batch   2 pq = [    9405,   13530] index = [      44231715,91537215] size =     47305500
  Task number: 9
  Buffer size: 11059200
  Buffer per thread: 2
  We computed 5921022 shell quartets total.
  Whereas there are 6374235 unique shell quartets.

  ==> DiskJK: Disk-Based J/K Matrices <==

    J tasked:                  Yes
    K tasked:                  Yes
    wK tasked:                  No
    Memory [MiB]:              375
    Schwarz Cutoff:          1E-12

    OpenMP threads:              1

  Minimum eigenvalue in the overlap matrix is 4.4271652821E-03.
  Using Symmetric Orthogonalization.

  SCF Guess: Superposition of Atomic Densities via on-the-fly atomic UHF.

  ==> Iterations <==

                        Total Energy        Delta E     RMS |[F,P]|

   @RHF iter SAD:  -235.47854885630039   -2.35479e+02   0.00000e+00
   @RHF iter   1:  -236.31022172913990   -8.31673e-01   3.55163e-03 DIIS
   @RHF iter   2:  -236.50191728455846   -1.91696e-01   1.54647e-03 DIIS
   @RHF iter   3:  -236.53635719570258   -3.44399e-02   3.15390e-04 DIIS
   @RHF iter   4:  -236.53899388048245   -2.63668e-03   7.02486e-05 DIIS
   @RHF iter   5:  -236.53908085988610   -8.69794e-05   1.56470e-05 DIIS
   @RHF iter   6:  -236.53908630764050   -5.44775e-06   2.59348e-06 DIIS
   @RHF iter   7:  -236.53908647502143   -1.67381e-07   6.17226e-07 DIIS
   @RHF iter   8:  -236.53908648521946   -1.01980e-08   1.46935e-07 DIIS
   @RHF iter   9:  -236.53908648581918   -5.99726e-10   4.10998e-08 DIIS
   @RHF iter  10:  -236.53908648587424   -5.50529e-11   9.58701e-09 DIIS
   @RHF iter  11:  -236.53908648587844   -4.20641e-12   2.05964e-09 DIIS
   @RHF iter  12:  -236.53908648587742    1.02318e-12   4.11593e-10 DIIS
   @RHF iter  13:  -236.53908648587691    5.11591e-13   7.76056e-11 DIIS
  Energy and wave function converged.

  ==> Post-Iterations <==

    Orbital Energies [Eh]
    ---------------------

    Doubly Occupied:

       1A    -11.220491     2A    -11.219454     3A    -11.216145
       4A    -11.213635     5A    -11.213190     6A    -11.212871
       7A     -1.085447     8A     -1.019325     9A     -0.928481
      10A     -0.925101    11A     -0.837450    12A     -0.765362
      13A     -0.636133    14A     -0.600222    15A     -0.599633
      16A     -0.591572    17A     -0.584679    18A     -0.536082
      19A     -0.533143    20A     -0.507217    21A     -0.501226
      22A     -0.487787    23A     -0.486184    24A     -0.460073
      25A     -0.457447    26A     -0.455660

    Virtual:

      27A      0.163555    28A      0.197827    29A      0.208848
      30A      0.218724    31A      0.236817    32A      0.239420
      33A      0.250705    34A      0.261010    35A      0.264598
      36A      0.281037    37A      0.291548    38A      0.295210
      39A      0.306246    40A      0.318122    41A      0.331941
      42A      0.352682    43A      0.361357    44A      0.404036
      45A      0.409068    46A      0.424041    47A      0.542091
      48A      0.568996    49A      0.595092    50A      0.601078
      51A      0.611297    52A      0.614191    53A      0.634354
      54A      0.662935    55A      0.698384    56A      0.739969
      57A      0.766969    58A      0.780755    59A      0.795295
      60A      0.834836    61A      0.842258    62A      0.863274
      63A      0.870422    64A      0.882003    65A      0.889269
      66A      0.894519    67A      0.899293    68A      0.906877
      69A      0.910455    70A      0.914006    71A      0.926389
      72A      0.927622    73A      0.941625    74A      0.947973
      75A      0.949506    76A      0.971000    77A      0.973966
      78A      0.999733    79A      1.020126    80A      1.052286
      81A      1.118047    82A      1.126601    83A      1.138417
      84A      1.141739    85A      1.178448    86A      1.259650
      87A      1.374262    88A      1.402949    89A      1.423100
      90A      1.481439    91A      1.488134    92A      1.541819
      93A      1.556210    94A      1.598890    95A      1.664191
      96A      1.669358    97A      1.674725    98A      1.683195
      99A      1.689953   100A      1.696772   101A      1.707206
     102A      1.724799   103A      1.732413   104A      1.842790
     105A      1.846890   106A      1.855419   107A      1.872942
     108A      1.880229   109A      1.905676   110A      1.923032
     111A      1.931977   112A      1.936248   113A      1.943740
     114A      1.949776   115A      1.954144   116A      1.960331
     117A      1.965602   118A      1.973603   119A      1.990560
     120A      2.011173   121A      2.018208   122A      2.031718
     123A      2.060521   124A      2.089673   125A      2.121082
     126A      2.130045   127A      2.148492   128A      2.152486
     129A      2.158327   130A      2.249675   131A      2.263473
     132A      2.297391   133A      2.305244   134A      2.309843
     135A      2.325703   136A      2.338811   137A      2.368854
     138A      2.384066   139A      2.439925   140A      2.446583
     141A      2.486414   142A      2.575129   143A      2.585684
     144A      2.588778   145A      2.612637   146A      2.641908
     147A      2.718696   148A      2.728694   149A      2.758964
     150A      2.766703   151A      2.786653   152A      2.794216
     153A      2.799866   154A      2.801947   155A      2.840901
     156A      2.845882   157A      2.850633   158A      2.855090
     159A      2.870513   160A      2.953551   161A      2.968411
     162A      3.022325   163A      3.037309   164A      3.134243

    Final Occupation by Irrep:
              A
    DOCC [    26 ]

  @RHF Final Energy:  -236.53908648587691

   => Energetics <=

    Nuclear Repulsion Energy =            247.8580816498011927
    One-Electron Energy =                -808.2063122623508207
    Two-Electron Energy =                 323.8091441266727202
    Total Energy =                       -236.5390864858769078

Computation Completed

Properties will be evaluated at   0.000000,   0.000000,   0.000000 [a0]

Properties computed using the SCF density matrix

  Nuclear Dipole Moment: [e a0]
     X:    -0.2526      Y:     1.7952      Z:    -0.5895

  Electronic Dipole Moment: [e a0]
     X:     0.2456      Y:    -1.7551      Z:     0.6183

  Dipole Moment: [e a0]
     X:    -0.0069      Y:     0.0401      Z:     0.0288     Total:     0.0499

  Dipole Moment: [D]
     X:    -0.0177      Y:     0.1019      Z:     0.0733     Total:     0.1267

*** tstop() called on ds3 at Sun Apr 26 16:58:32 2020
Module time:
	user time   =      31.48 seconds =       0.52 minutes
	system time =       9.91 seconds =       0.17 minutes
	total time  =         52 seconds =       0.87 minutes
Total time:
	user time   =      31.48 seconds =       0.52 minutes
	system time =       9.91 seconds =       0.17 minutes
	total time  =         52 seconds =       0.87 minutes
                                     G D M A

                                 by Anthony Stone

                           version 2.2.06, 22 June 2011

               Distributed Multipoles from Gaussian wavefunctions

Starting at 16:58:32 on 26 Apr 2020

Using SCF density matrix from file ./SSI/SSI-032THR-094LEU-1-dimer.test.17033.fchk

                         Distributed Multipole Analysis

Standard DMA

Positions and radii in angstrom
Multipole moments in atomic units, ea_0^k for rank k

C          x = -0.481395  y =  2.617862  z =  0.396968 angstrom
           Maximum rank =  0   Radius =  0.650 angstrom
                   Q00  =  -0.246869

C          x = -0.529395  y =  3.189862  z = -1.019032 angstrom
           Maximum rank =  0   Radius =  0.650 angstrom
                   Q00  =  -0.227625

H          x = -1.180395  y =  3.155862  z =  1.036968 angstrom
           Maximum rank =  0   Radius =  0.325 angstrom
                   Q00  =   0.078575

H          x = -0.787395  y =  1.576862  z =  0.374968 angstrom
           Maximum rank =  0   Radius =  0.325 angstrom
                   Q00  =   0.080732

H          x =  0.526605  y =  2.686862  z =  0.806968 angstrom
           Maximum rank =  0   Radius =  0.325 angstrom
                   Q00  =   0.078285

H          x =  0.348605  y =  2.847862  z = -1.567032 angstrom
           Maximum rank =  0   Radius =  0.325 angstrom
                   Q00  =   0.079222

H          x = -0.551515  y =  4.289522  z = -1.002619 angstrom
           Maximum rank =  0   Radius =  0.325 angstrom
                   Q00  =   0.080208

H          x = -1.424895  y =  2.808062  z = -1.531188 angstrom
           Maximum rank =  0   Radius =  0.325 angstrom
                   Q00  =   0.075544

C          x =  0.183605  y = -1.196138  z =  0.363968 angstrom
           Maximum rank =  0   Radius =  0.650 angstrom
                   Q00  =   0.009226

C          x =  1.064605  y = -2.123138  z =  1.199968 angstrom
           Maximum rank =  0   Radius =  0.650 angstrom
                   Q00  =  -0.246381

C          x =  0.926605  y = -0.786138  z = -0.892032 angstrom
           Maximum rank =  0   Radius =  0.650 angstrom
                   Q00  =  -0.236155

C          x = -1.141395  y = -1.863138  z =  0.002968 angstrom
           Maximum rank =  0   Radius =  0.650 angstrom
                   Q00  =  -0.245165

H          x = -0.021395  y = -0.306138  z =  0.946968 angstrom
           Maximum rank =  0   Radius =  0.325 angstrom
                   Q00  =   0.015309

H          x =  2.025605  y = -1.631138  z =  1.331968 angstrom
           Maximum rank =  0   Radius =  0.325 angstrom
                   Q00  =   0.076953

H          x =  1.228605  y = -3.051138  z =  0.646968 angstrom
           Maximum rank =  0   Radius =  0.325 angstrom
                   Q00  =   0.072751

H          x =  1.173605  y = -1.671138  z = -1.479032 angstrom
           Maximum rank =  0   Radius =  0.325 angstrom
                   Q00  =   0.075496

H          x =  0.304605  y = -0.123138  z = -1.494032 angstrom
           Maximum rank =  0   Radius =  0.325 angstrom
                   Q00  =   0.080670

H          x =  1.844605  y = -0.259138  z = -0.625032 angstrom
           Maximum rank =  0   Radius =  0.325 angstrom
                   Q00  =   0.079357

H          x = -1.716395  y = -2.100138  z =  0.896968 angstrom
           Maximum rank =  0   Radius =  0.325 angstrom
                   Q00  =   0.081930

H          x = -1.739395  y = -1.178138  z = -0.597032 angstrom
           Maximum rank =  0   Radius =  0.325 angstrom
                   Q00  =   0.077261

H          x = -0.962395  y = -2.772138  z = -0.571032 angstrom
           Maximum rank =  0   Radius =  0.325 angstrom
                   Q00  =   0.076906

H          x =  0.662135  y = -2.357848  z =  2.196425 angstrom
           Maximum rank =  0   Radius =  0.325 angstrom
                   Q00  =   0.083769

Total multipoles referred to origin at
           x =   0.000000,  y =    0.000000,  z =    0.000000 angstrom
                   Q00  =  -0.000000

Finished at 16:58:32 on 26 Apr 2020

  DMA results are available in the Python driver through the
	  variable('DMA DISTRIBUTED MULTIPOLES')
  and
	  variable('DMA TOTAL MULTIPOLES')
  commands.

    Psi4 stopped on: Sunday, 26 April 2020 04:58PM
    Psi4 wall time for execution: 0:00:52.33

*** Psi4 exiting successfully. Buy a developer a beer!
