                               Psi4 1.3.2 release

  ==> Input File <==

--------------------------------------------------------------------------
import numpy as np
set {scf_type pk
basis cc-pvdz
d_convergence 10
gdma_switch   0
gdma_limit    0
gdma_origin   [ 0.0,  0.0,  0.0 ]
}
molecule test {
    units Angstrom
    0 1
    --
    0 1
    C                1.737551134751298    -0.808173410458735    -0.579806224466420
    C                2.644551134751298     0.407826589541265    -0.420806224466420
    H                2.171551134751298    -1.504173410458735    -1.298806224466420
    H                1.634551134751298    -1.304173410458735     0.382193775533580
    H                0.751551134751298    -0.516173410458735    -0.928806224466420
    H                2.205551134751298     1.059826589541265     0.330193775533580
    H                2.738381134751298     0.948576589541265    -1.374107224466420
    H                3.635991134751298     0.093796589541265    -0.062429224466420
    C               -2.053448865248702    -0.129173410458735    -0.180806224466420
    C               -2.322448865248702     0.528826589541265     1.178193775533580
    H               -1.858448865248702    -1.195173410458735    -0.070806224466420
    H               -2.941448865248702    -0.020173410458735    -0.801806224466420
    H               -1.219448865248702     0.366826589541265    -0.672806224466420
    H               -3.223448865248702     0.101826589541265     1.600193775533580
    H               -1.484708865248702     0.366476589541265     1.872339775533580
    H               -2.483948865248702     1.610796589541265     1.063044775533580

}
e, wfn = energy('scf', return_wfn=True)
gdma(wfn)
dmavals = variable('DMA DISTRIBUTED MULTIPOLES')
charges = np.array(dmavals)
print(charges)
np.save('SSI-043VAL-066LEU-1-dimer.npy', np.array(charges))--------------------------------------------------------------------------

*** tstart() called on ds3
*** at Mon Apr 27 20:13:59 2020

   => Loading Basis Set <=

    Name: CC-PVDZ
    Role: ORBITAL
    Keyword: BASIS
    atoms 1-2, 9-10  entry C          line   138 file /theoryfs2/ds/metcalf/miniconda2/envs/tf2gpu/share/psi4/basis/cc-pvdz.gbs
    atoms 3-8, 11-16 entry H          line    22 file /theoryfs2/ds/metcalf/miniconda2/envs/tf2gpu/share/psi4/basis/cc-pvdz.gbs

         ---------------------------------------------------------
                                   SCF
               by Justin Turney, Rob Parrish, Andy Simmonett
                          and Daniel G. A. Smith
                              RHF Reference
                        1 Threads,    500 MiB Core
         ---------------------------------------------------------

  ==> Geometry <==

    Molecular point group: c1
    Full point group: C1

    Geometry (in Angstrom), charge = 0, multiplicity = 1:

       Center              X                  Y                   Z               Mass
    ------------   -----------------  -----------------  -----------------  -----------------
         C            1.737551134751    -0.808173410459    -0.579806224466    12.000000000000
         C            2.644551134751     0.407826589541    -0.420806224466    12.000000000000
         H            2.171551134751    -1.504173410459    -1.298806224466     1.007825032230
         H            1.634551134751    -1.304173410459     0.382193775534     1.007825032230
         H            0.751551134751    -0.516173410459    -0.928806224466     1.007825032230
         H            2.205551134751     1.059826589541     0.330193775534     1.007825032230
         H            2.738381134751     0.948576589541    -1.374107224466     1.007825032230
         H            3.635991134751     0.093796589541    -0.062429224466     1.007825032230
         C           -2.053448865249    -0.129173410459    -0.180806224466    12.000000000000
         C           -2.322448865249     0.528826589541     1.178193775534    12.000000000000
         H           -1.858448865249    -1.195173410459    -0.070806224466     1.007825032230
         H           -2.941448865249    -0.020173410459    -0.801806224466     1.007825032230
         H           -1.219448865249     0.366826589541    -0.672806224466     1.007825032230
         H           -3.223448865249     0.101826589541     1.600193775534     1.007825032230
         H           -1.484708865249     0.366476589541     1.872339775534     1.007825032230
         H           -2.483948865249     1.610796589541     1.063044775534     1.007825032230

  Running in c1 symmetry.

  Rotational constants: A =      0.39567  B =      0.05093  C =      0.04805 [cm^-1]
  Rotational constants: A =  11861.75477  B =   1526.89125  C =   1440.37772 [MHz]
  Nuclear repulsion =  122.128874232123479

  Charge       = 0
  Multiplicity = 1
  Electrons    = 36
  Nalpha       = 18
  Nbeta        = 18

  ==> Algorithm <==

  SCF Algorithm Type is PK.
  DIIS enabled.
  MOM disabled.
  Fractional occupation disabled.
  Guess Type is SAD.
  Energy threshold   = 1.00e-06
  Density threshold  = 1.00e-10
  Integral threshold = 0.00e+00

  ==> Primary Basis <==

  Basis Set: CC-PVDZ
    Blend: CC-PVDZ
    Number of shells: 60
    Number of basis function: 116
    Number of Cartesian functions: 120
    Spherical Harmonics?: true
    Max angular momentum: 2

  ==> Pre-Iterations <==

   -------------------------------------------------------
    Irrep   Nso     Nmo     Nalpha   Nbeta   Ndocc  Nsocc
   -------------------------------------------------------
     A        116     116       0       0       0       0
   -------------------------------------------------------
    Total     116     116      18      18      18       0
   -------------------------------------------------------

  ==> Integral Setup <==

  Using integral reordering PK algorithm.
  Sizing the integral batches needed.
  Building batch lookup table.
   Calculation information:
      Number of atoms:                  16
      Number of AO shells:              60
      Number of primitives:            148
      Number of atomic orbitals:       120
      Number of basis functions:       116

      Integral cutoff                 1.00e-12
      Number of threads:                 1

	Batch   1 pq = [       0,    6786] index = [             0,23028291] size =     23028291
  Task number: 3
  Buffer size: 11059200
  Buffer per thread: 2
  We computed 1450070 shell quartets total.
  Whereas there are 1675365 unique shell quartets.

  ==> DiskJK: Disk-Based J/K Matrices <==

    J tasked:                  Yes
    K tasked:                  Yes
    wK tasked:                  No
    Memory [MiB]:              375
    Schwarz Cutoff:          1E-12

    OpenMP threads:              1

  Minimum eigenvalue in the overlap matrix is 7.4959132501E-03.
  Using Symmetric Orthogonalization.

  SCF Guess: Superposition of Atomic Densities via on-the-fly atomic UHF.

  ==> Iterations <==

                        Total Energy        Delta E     RMS |[F,P]|

   @RHF iter SAD:  -157.35586258243515   -1.57356e+02   0.00000e+00
   @RHF iter   1:  -158.30770832916710   -9.51846e-01   4.21379e-03 DIIS
   @RHF iter   2:  -158.44095968195666   -1.33251e-01   1.79527e-03 DIIS
   @RHF iter   3:  -158.46433064150511   -2.33710e-02   3.49482e-04 DIIS
   @RHF iter   4:  -158.46615386294292   -1.82322e-03   3.88188e-05 DIIS
   @RHF iter   5:  -158.46617749275964   -2.36298e-05   6.63707e-06 DIIS
   @RHF iter   6:  -158.46617813602251   -6.43263e-07   1.14439e-06 DIIS
   @RHF iter   7:  -158.46617814858126   -1.25588e-08   3.14861e-07 DIIS
   @RHF iter   8:  -158.46617814945620   -8.74934e-10   3.70378e-08 DIIS
   @RHF iter   9:  -158.46617814947649   -2.02931e-11   6.94588e-09 DIIS
   @RHF iter  10:  -158.46617814947700   -5.11591e-13   1.82654e-09 DIIS
   @RHF iter  11:  -158.46617814947732   -3.12639e-13   4.75037e-10 DIIS
   @RHF iter  12:  -158.46617814947720    1.13687e-13   1.43629e-10 DIIS
   @RHF iter  13:  -158.46617814947729   -8.52651e-14   2.34336e-11 DIIS
  Energy and wave function converged.

  ==> Post-Iterations <==

    Orbital Energies [Eh]
    ---------------------

    Doubly Occupied:

       1A    -11.219342     2A    -11.218437     3A    -11.217529
       4A    -11.214397     5A     -1.019711     6A     -1.017238
       7A     -0.840254     8A     -0.834941     9A     -0.605570
      10A     -0.599834    11A     -0.596382    12A     -0.592093
      13A     -0.504020    14A     -0.498706    15A     -0.492450
      16A     -0.486266    17A     -0.485622    18A     -0.477682

    Virtual:

      19A      0.166904    20A      0.202275    21A      0.227115
      22A      0.233958    23A      0.249092    24A      0.257135
      25A      0.263927    26A      0.273453    27A      0.280268
      28A      0.289532    29A      0.299190    30A      0.354857
      31A      0.392951    32A      0.406095    33A      0.571678
      34A      0.595371    35A      0.601054    36A      0.605237
      37A      0.617342    38A      0.623849    39A      0.657239
      40A      0.684242    41A      0.687972    42A      0.802592
      43A      0.839496    44A      0.847089    45A      0.881096
      46A      0.885203    47A      0.890696    48A      0.897063
      49A      0.898401    50A      0.906581    51A      0.913395
      52A      0.918104    53A      0.943973    54A      0.947737
      55A      0.972311    56A      1.002128    57A      1.123022
      58A      1.123443    59A      1.131329    60A      1.158392
      61A      1.233743    62A      1.280511    63A      1.467038
      64A      1.473269    65A      1.476291    66A      1.491669
      67A      1.546576    68A      1.582527    69A      1.677233
      70A      1.684653    71A      1.690441    72A      1.715181
      73A      1.854808    74A      1.863837    75A      1.868515
      76A      1.885260    77A      1.895504    78A      1.906864
      79A      1.935510    80A      1.940353    81A      1.946109
      82A      1.947885    83A      1.948921    84A      1.955828
      85A      1.964770    86A      1.969121    87A      1.976957
      88A      2.004603    89A      2.089707    90A      2.094142
      91A      2.122689    92A      2.128010    93A      2.295003
      94A      2.301583    95A      2.314394    96A      2.315840
      97A      2.449356    98A      2.457649    99A      2.465540
     100A      2.480461   101A      2.557164   102A      2.563802
     103A      2.575043   104A      2.583555   105A      2.761102
     106A      2.764130   107A      2.792772   108A      2.798085
     109A      2.846553   110A      2.854789   111A      2.858427
     112A      2.868050   113A      2.934306   114A      2.951643
     115A      2.979532   116A      2.983144

    Final Occupation by Irrep:
              A
    DOCC [    18 ]

  @RHF Final Energy:  -158.46617814947729

   => Energetics <=

    Nuclear Repulsion Energy =            122.1288742321234793
    One-Electron Energy =                -453.3491591427480216
    Two-Electron Energy =                 172.7541067611472272
    Total Energy =                       -158.4661781494772868

Computation Completed

Properties will be evaluated at   0.000000,   0.000000,   0.000000 [a0]

Properties computed using the SCF density matrix

  Nuclear Dipole Moment: [e a0]
     X:    -0.0693      Y:     0.0077      Z:     0.0360

  Electronic Dipole Moment: [e a0]
     X:     0.0322      Y:    -0.0146      Z:    -0.0347

  Dipole Moment: [e a0]
     X:    -0.0371      Y:    -0.0068      Z:     0.0013     Total:     0.0377

  Dipole Moment: [D]
     X:    -0.0942      Y:    -0.0173      Z:     0.0033     Total:     0.0958

*** tstop() called on ds3 at Mon Apr 27 20:14:08 2020
Module time:
	user time   =       7.21 seconds =       0.12 minutes
	system time =       2.81 seconds =       0.05 minutes
	total time  =          9 seconds =       0.15 minutes
Total time:
	user time   =       7.21 seconds =       0.12 minutes
	system time =       2.81 seconds =       0.05 minutes
	total time  =          9 seconds =       0.15 minutes
                                     G D M A

                                 by Anthony Stone

                           version 2.2.06, 22 June 2011

               Distributed Multipoles from Gaussian wavefunctions

Starting at 20:14:8 on 27 Apr 2020

Using SCF density matrix from file ./SSI/SSI-043VAL-066LEU-1-dimer.test.13911.fchk

                         Distributed Multipole Analysis

Standard DMA

Positions and radii in angstrom
Multipole moments in atomic units, ea_0^k for rank k

C          x =  1.737551  y = -0.808173  z = -0.579806 angstrom
           Maximum rank =  0   Radius =  0.650 angstrom
                   Q00  =  -0.242901

C          x =  2.644551  y =  0.407827  z = -0.420806 angstrom
           Maximum rank =  0   Radius =  0.650 angstrom
                   Q00  =  -0.231850

H          x =  2.171551  y = -1.504173  z = -1.298806 angstrom
           Maximum rank =  0   Radius =  0.325 angstrom
                   Q00  =   0.077024

H          x =  1.634551  y = -1.304173  z =  0.382194 angstrom
           Maximum rank =  0   Radius =  0.325 angstrom
                   Q00  =   0.077129

H          x =  0.751551  y = -0.516173  z = -0.928806 angstrom
           Maximum rank =  0   Radius =  0.325 angstrom
                   Q00  =   0.085670

H          x =  2.205551  y =  1.059827  z =  0.330194 angstrom
           Maximum rank =  0   Radius =  0.325 angstrom
                   Q00  =   0.076693

H          x =  2.738381  y =  0.948577  z = -1.374107 angstrom
           Maximum rank =  0   Radius =  0.325 angstrom
                   Q00  =   0.078686

H          x =  3.635991  y =  0.093797  z = -0.062429 angstrom
           Maximum rank =  0   Radius =  0.325 angstrom
                   Q00  =   0.079123

C          x = -2.053449  y = -0.129173  z = -0.180806 angstrom
           Maximum rank =  0   Radius =  0.650 angstrom
                   Q00  =  -0.253039

C          x = -2.322449  y =  0.528827  z =  1.178194 angstrom
           Maximum rank =  0   Radius =  0.650 angstrom
                   Q00  =  -0.224545

H          x = -1.858449  y = -1.195173  z = -0.070806 angstrom
           Maximum rank =  0   Radius =  0.325 angstrom
                   Q00  =   0.082396

H          x = -2.941449  y = -0.020173  z = -0.801806 angstrom
           Maximum rank =  0   Radius =  0.325 angstrom
                   Q00  =   0.077651

H          x = -1.219449  y =  0.366827  z = -0.672806 angstrom
           Maximum rank =  0   Radius =  0.325 angstrom
                   Q00  =   0.080805

H          x = -3.223449  y =  0.101827  z =  1.600194 angstrom
           Maximum rank =  0   Radius =  0.325 angstrom
                   Q00  =   0.079924

H          x = -1.484709  y =  0.366477  z =  1.872340 angstrom
           Maximum rank =  0   Radius =  0.325 angstrom
                   Q00  =   0.078645

H          x = -2.483949  y =  1.610797  z =  1.063045 angstrom
           Maximum rank =  0   Radius =  0.325 angstrom
                   Q00  =   0.078588

Total multipoles referred to origin at
           x =   0.000000,  y =    0.000000,  z =    0.000000 angstrom
                   Q00  =  -0.000000

Finished at 20:14:8 on 27 Apr 2020

  DMA results are available in the Python driver through the
	  variable('DMA DISTRIBUTED MULTIPOLES')
  and
	  variable('DMA TOTAL MULTIPOLES')
  commands.

    Psi4 stopped on: Monday, 27 April 2020 08:14PM
    Psi4 wall time for execution: 0:00:09.95

*** Psi4 exiting successfully. Buy a developer a beer!
