                               Psi4 1.3.2 release

  ==> Input File <==

--------------------------------------------------------------------------
import numpy as np
set {scf_type pk
basis cc-pvdz
d_convergence 10
gdma_switch   0
gdma_limit    0
gdma_origin   [ 0.0,  0.0,  0.0 ]
}
molecule test {
    units Angstrom
    0 1
    --
    0 1
    C                0.527992583533004     3.349204738063842    -1.438002552215352
    C               -0.935007416466996     3.628204738063841    -1.678002552215352
    H                0.724992583533004     3.229204738063841    -0.372002552215352
    H                0.806992583533004     2.438204738063842    -1.963002552215352
    H                1.138992583533003     4.160204738063842    -1.836002552215352
    H               -1.102007416466996     3.677204738063842    -2.754002552215352
    H               -1.107377416466996     4.607584738063842    -1.207784552215352
    H               -1.605237416466996     2.875614738063842    -1.237097552215352
    C                1.329992583533004     0.516204738063842     1.786997447784648
    C                0.343992583533004    -0.338795261936158    -0.379002552215352
    C                0.590992583533004    -0.515795261936158     0.969997447784648
    C               -0.444007416466996    -1.269795261936159    -1.071002552215352
    C                0.084992583533004    -1.630795261936159     1.593997447784648
    C               -0.936007416466996    -2.372795261936159    -0.421002552215352
    C               -0.654007416466996    -2.575795261936158     0.908997447784648
    H                0.728992583533004     0.527204738063841    -0.889002552215352
    H               -0.686007416466996    -1.140795261936159    -2.111002552215352
    H                0.952992583533004     0.483204738063842     2.810997447784648
    H                1.108992583533004     1.511204738063841     1.395997447784648
    H                0.272992583533004    -1.782795261936158     2.647997447784648
    H               -1.543007416466996    -3.086795261936158    -0.959002552215352
    H               -1.026007416466996    -3.452795261936159     1.414997447784648
    H                2.419012583533004     0.362684738063842     1.808619447784648

}
e, wfn = energy('scf', return_wfn=True)
gdma(wfn)
dmavals = variable('DMA DISTRIBUTED MULTIPOLES')
charges = np.array(dmavals)
print(charges)
np.save('SSI-023LEU-035PHE-2-dimer.npy', np.array(charges))--------------------------------------------------------------------------

*** tstart() called on ds3
*** at Tue Apr 28 03:54:18 2020

   => Loading Basis Set <=

    Name: CC-PVDZ
    Role: ORBITAL
    Keyword: BASIS
    atoms 1-2, 9-15  entry C          line   138 file /theoryfs2/ds/metcalf/miniconda2/envs/tf2gpu/share/psi4/basis/cc-pvdz.gbs
    atoms 3-8, 16-23 entry H          line    22 file /theoryfs2/ds/metcalf/miniconda2/envs/tf2gpu/share/psi4/basis/cc-pvdz.gbs

         ---------------------------------------------------------
                                   SCF
               by Justin Turney, Rob Parrish, Andy Simmonett
                          and Daniel G. A. Smith
                              RHF Reference
                        1 Threads,    500 MiB Core
         ---------------------------------------------------------

  ==> Geometry <==

    Molecular point group: c1
    Full point group: C1

    Geometry (in Angstrom), charge = 0, multiplicity = 1:

       Center              X                  Y                   Z               Mass
    ------------   -----------------  -----------------  -----------------  -----------------
         C            0.527992583533     3.349204738064    -1.438002552215    12.000000000000
         C           -0.935007416467     3.628204738064    -1.678002552215    12.000000000000
         H            0.724992583533     3.229204738064    -0.372002552215     1.007825032230
         H            0.806992583533     2.438204738064    -1.963002552215     1.007825032230
         H            1.138992583533     4.160204738064    -1.836002552215     1.007825032230
         H           -1.102007416467     3.677204738064    -2.754002552215     1.007825032230
         H           -1.107377416467     4.607584738064    -1.207784552215     1.007825032230
         H           -1.605237416467     2.875614738064    -1.237097552215     1.007825032230
         C            1.329992583533     0.516204738064     1.786997447785    12.000000000000
         C            0.343992583533    -0.338795261936    -0.379002552215    12.000000000000
         C            0.590992583533    -0.515795261936     0.969997447785    12.000000000000
         C           -0.444007416467    -1.269795261936    -1.071002552215    12.000000000000
         C            0.084992583533    -1.630795261936     1.593997447785    12.000000000000
         C           -0.936007416467    -2.372795261936    -0.421002552215    12.000000000000
         C           -0.654007416467    -2.575795261936     0.908997447785    12.000000000000
         H            0.728992583533     0.527204738064    -0.889002552215     1.007825032230
         H           -0.686007416467    -1.140795261936    -2.111002552215     1.007825032230
         H            0.952992583533     0.483204738064     2.810997447785     1.007825032230
         H            1.108992583533     1.511204738064     1.395997447785     1.007825032230
         H            0.272992583533    -1.782795261936     2.647997447785     1.007825032230
         H           -1.543007416467    -3.086795261936    -0.959002552215     1.007825032230
         H           -1.026007416467    -3.452795261936     1.414997447785     1.007825032230
         H            2.419012583533     0.362684738064     1.808619447785     1.007825032230

  Running in c1 symmetry.

  Rotational constants: A =      0.07838  B =      0.02371  C =      0.01943 [cm^-1]
  Rotational constants: A =   2349.85839  B =    710.77315  C =    582.40642 [MHz]
  Nuclear repulsion =  406.076357060416740

  Charge       = 0
  Multiplicity = 1
  Electrons    = 68
  Nalpha       = 34
  Nbeta        = 34

  ==> Algorithm <==

  SCF Algorithm Type is PK.
  DIIS enabled.
  MOM disabled.
  Fractional occupation disabled.
  Guess Type is SAD.
  Energy threshold   = 1.00e-06
  Density threshold  = 1.00e-10
  Integral threshold = 0.00e+00

  ==> Primary Basis <==

  Basis Set: CC-PVDZ
    Blend: CC-PVDZ
    Number of shells: 96
    Number of basis function: 196
    Number of Cartesian functions: 205
    Spherical Harmonics?: true
    Max angular momentum: 2

  ==> Pre-Iterations <==

   -------------------------------------------------------
    Irrep   Nso     Nmo     Nalpha   Nbeta   Ndocc  Nsocc
   -------------------------------------------------------
     A        196     196       0       0       0       0
   -------------------------------------------------------
    Total     196     196      34      34      34       0
   -------------------------------------------------------

  ==> Integral Setup <==

  Using integral reordering PK algorithm.
  Sizing the integral batches needed.
  Building batch lookup table.
   Calculation information:
      Number of atoms:                  23
      Number of AO shells:              96
      Number of primitives:            268
      Number of atomic orbitals:       205
      Number of basis functions:       196

      Integral cutoff                 1.00e-12
      Number of threads:                 1

	Batch   1 pq = [       0,    9405] index = [             0,44231715] size =     44231715
	Batch   2 pq = [    9405,   13301] index = [      44231715,88464951] size =     44233236
	Batch   3 pq = [   13301,   16290] index = [      88464951,132690195] size =     44225244
	Batch   4 pq = [   16290,   18810] index = [     132690195,176917455] size =     44227260
	Batch   5 pq = [   18810,   19306] index = [     176917455,186370471] size =      9453016
  Task number: 17
  Buffer size: 11059200
  Buffer per thread: 2
  We computed 9210148 shell quartets total.
  Whereas there are 10841496 unique shell quartets.

  ==> DiskJK: Disk-Based J/K Matrices <==

    J tasked:                  Yes
    K tasked:                  Yes
    wK tasked:                  No
    Memory [MiB]:              375
    Schwarz Cutoff:          1E-12

    OpenMP threads:              1

  Minimum eigenvalue in the overlap matrix is 2.7465895612E-04.
  Using Symmetric Orthogonalization.

  SCF Guess: Superposition of Atomic Densities via on-the-fly atomic UHF.

  ==> Iterations <==

                        Total Energy        Delta E     RMS |[F,P]|

   @RHF iter SAD:  -348.04309137913913   -3.48043e+02   0.00000e+00
   @RHF iter   1:  -348.75805648881936   -7.14965e-01   2.94201e-03 DIIS
   @RHF iter   2:  -348.95471720750345   -1.96661e-01   1.23409e-03 DIIS
   @RHF iter   3:  -348.98639292418937   -3.16757e-02   2.61942e-04 DIIS
   @RHF iter   4:  -348.98891129071035   -2.51837e-03   5.41207e-05 DIIS
   @RHF iter   5:  -348.98898800298997   -7.67123e-05   1.79372e-05 DIIS
   @RHF iter   6:  -348.98899591888949   -7.91590e-06   4.87071e-06 DIIS
   @RHF iter   7:  -348.98899658797870   -6.69089e-07   1.25525e-06 DIIS
   @RHF iter   8:  -348.98899664075918   -5.27805e-08   3.15857e-07 DIIS
   @RHF iter   9:  -348.98899664742191   -6.66273e-09   1.49672e-07 DIIS
   @RHF iter  10:  -348.98899664896737   -1.54546e-09   7.04100e-08 DIIS
   @RHF iter  11:  -348.98899664954246   -5.75085e-10   2.93174e-08 DIIS
   @RHF iter  12:  -348.98899664962778   -8.53220e-11   1.37503e-08 DIIS
   @RHF iter  13:  -348.98899664963852   -1.07434e-11   3.88590e-09 DIIS
   @RHF iter  14:  -348.98899664964063   -2.10321e-12   9.92383e-10 DIIS
   @RHF iter  15:  -348.98899664964154   -9.09495e-13   3.85971e-10 DIIS
   @RHF iter  16:  -348.98899664963977    1.76215e-12   1.42210e-10 DIIS
   @RHF iter  17:  -348.98899664964119   -1.42109e-12   5.79633e-11 DIIS
  Energy and wave function converged.

  ==> Post-Iterations <==

    Orbital Energies [Eh]
    ---------------------

    Doubly Occupied:

       1A    -11.235393     2A    -11.231621     3A    -11.229780
       4A    -11.228645     5A    -11.228253     6A    -11.224971
       7A    -11.224576     8A    -11.219053     9A    -11.218073
      10A     -1.158439    11A     -1.047622    12A     -1.026951
      13A     -1.011225    14A     -0.931973    15A     -0.836292
      16A     -0.828365    17A     -0.794074    18A     -0.693409
      19A     -0.633652    20A     -0.628926    21A     -0.607383
      22A     -0.602525    23A     -0.580068    24A     -0.576252
      25A     -0.562998    26A     -0.533790    27A     -0.507520
      28A     -0.492202    29A     -0.488111    30A     -0.487362
      31A     -0.479917    32A     -0.474762    33A     -0.330503
      34A     -0.325893

    Virtual:

      35A      0.136664    36A      0.146399    37A      0.173261
      38A      0.196449    39A      0.198591    40A      0.225565
      41A      0.234625    42A      0.238687    43A      0.251257
      44A      0.258982    45A      0.265183    46A      0.277945
      47A      0.282560    48A      0.289250    49A      0.338448
      50A      0.365617    51A      0.377655    52A      0.393491
      53A      0.410395    54A      0.462897    55A      0.475402
      56A      0.484551    57A      0.492534    58A      0.575715
      59A      0.588228    60A      0.601823    61A      0.608636
      62A      0.616986    63A      0.644999    64A      0.663344
      65A      0.689140    66A      0.689978    67A      0.694930
      68A      0.712016    69A      0.735126    70A      0.740651
      71A      0.752043    72A      0.756705    73A      0.760914
      74A      0.781024    75A      0.786024    76A      0.791792
      77A      0.837686    78A      0.850780    79A      0.856111
      80A      0.862973    81A      0.874433    82A      0.882096
      83A      0.887341    84A      0.896560    85A      0.900896
      86A      0.902293    87A      0.915888    88A      0.926137
      89A      0.944163    90A      0.948338    91A      0.976806
      92A      0.978048    93A      0.983123    94A      1.029137
      95A      1.037677    96A      1.060160    97A      1.114293
      98A      1.129721    99A      1.135515   100A      1.152253
     101A      1.167892   102A      1.188926   103A      1.210205
     104A      1.238554   105A      1.250375   106A      1.256848
     107A      1.263774   108A      1.274844   109A      1.312311
     110A      1.319127   111A      1.334400   112A      1.344358
     113A      1.428922   114A      1.470274   115A      1.493025
     116A      1.519103   117A      1.527427   118A      1.561438
     119A      1.572257   120A      1.597345   121A      1.675766
     122A      1.678052   123A      1.703139   124A      1.715728
     125A      1.736072   126A      1.760921   127A      1.769642
     128A      1.797971   129A      1.815500   130A      1.848323
     131A      1.864925   132A      1.872970   133A      1.893052
     134A      1.897702   135A      1.902542   136A      1.916908
     137A      1.924349   138A      1.927535   139A      1.943019
     140A      1.949299   141A      1.951973   142A      1.956860
     143A      1.970347   144A      1.975296   145A      1.990634
     146A      1.998019   147A      2.002363   148A      2.005577
     149A      2.052151   150A      2.069186   151A      2.080139
     152A      2.083311   153A      2.121640   154A      2.152498
     155A      2.160008   156A      2.166401   157A      2.180988
     158A      2.184249   159A      2.197539   160A      2.270879
     161A      2.286539   162A      2.290642   163A      2.307773
     164A      2.310145   165A      2.312678   166A      2.328409
     167A      2.330754   168A      2.447177   169A      2.476125
     170A      2.482546   171A      2.489652   172A      2.504174
     173A      2.556096   174A      2.566878   175A      2.597408
     176A      2.637145   177A      2.744953   178A      2.765254
     179A      2.769811   180A      2.773311   181A      2.793717
     182A      2.801496   183A      2.830706   184A      2.842269
     185A      2.858959   186A      2.868809   187A      2.881880
     188A      2.963396   189A      2.978837   190A      3.000831
     191A      3.033520   192A      3.045502   193A      3.177237
     194A      3.224817   195A      3.332466   196A      4.006149

    Final Occupation by Irrep:
              A
    DOCC [    34 ]

  @RHF Final Energy:  -348.98899664964119

   => Energetics <=

    Nuclear Repulsion Energy =            406.0763570604167398
    One-Electron Energy =               -1274.7695465599363160
    Two-Electron Energy =                 519.7041928498783818
    Total Energy =                       -348.9889966496411944

Computation Completed

Properties will be evaluated at   0.000000,   0.000000,   0.000000 [a0]

Properties computed using the SCF density matrix

  Nuclear Dipole Moment: [e a0]
     X:     1.0165      Y:    13.5081      Z:    -3.0470

  Electronic Dipole Moment: [e a0]
     X:    -0.9837      Y:   -13.3971      Z:     3.1016

  Dipole Moment: [e a0]
     X:     0.0328      Y:     0.1110      Z:     0.0545     Total:     0.1280

  Dipole Moment: [D]
     X:     0.0833      Y:     0.2822      Z:     0.1386     Total:     0.3252

*** tstop() called on ds3 at Tue Apr 28 03:55:46 2020
Module time:
	user time   =      63.03 seconds =       1.05 minutes
	system time =      28.92 seconds =       0.48 minutes
	total time  =         88 seconds =       1.47 minutes
Total time:
	user time   =      63.03 seconds =       1.05 minutes
	system time =      28.92 seconds =       0.48 minutes
	total time  =         88 seconds =       1.47 minutes
                                     G D M A

                                 by Anthony Stone

                           version 2.2.06, 22 June 2011

               Distributed Multipoles from Gaussian wavefunctions

Starting at 3:55:46 on 28 Apr 2020

Using SCF density matrix from file ./SSI/SSI-023LEU-035PHE-2-dimer.test.26945.fchk

                         Distributed Multipole Analysis

Standard DMA

Positions and radii in angstrom
Multipole moments in atomic units, ea_0^k for rank k

C          x =  0.527993  y =  3.349205  z = -1.438003 angstrom
           Maximum rank =  0   Radius =  0.650 angstrom
                   Q00  =  -0.235831

C          x = -0.935007  y =  3.628205  z = -1.678003 angstrom
           Maximum rank =  0   Radius =  0.650 angstrom
                   Q00  =  -0.224995

H          x =  0.724993  y =  3.229205  z = -0.372003 angstrom
           Maximum rank =  0   Radius =  0.325 angstrom
                   Q00  =   0.077236

H          x =  0.806993  y =  2.438205  z = -1.963003 angstrom
           Maximum rank =  0   Radius =  0.325 angstrom
                   Q00  =   0.070234

H          x =  1.138993  y =  4.160205  z = -1.836003 angstrom
           Maximum rank =  0   Radius =  0.325 angstrom
                   Q00  =   0.079618

H          x = -1.102007  y =  3.677205  z = -2.754003 angstrom
           Maximum rank =  0   Radius =  0.325 angstrom
                   Q00  =   0.077818

H          x = -1.107377  y =  4.607585  z = -1.207785 angstrom
           Maximum rank =  0   Radius =  0.325 angstrom
                   Q00  =   0.070638

H          x = -1.605237  y =  2.875615  z = -1.237098 angstrom
           Maximum rank =  0   Radius =  0.325 angstrom
                   Q00  =   0.084649

C          x =  1.329993  y =  0.516205  z =  1.786997 angstrom
           Maximum rank =  0   Radius =  0.650 angstrom
                   Q00  =  -0.209384

C          x =  0.343993  y = -0.338795  z = -0.379003 angstrom
           Maximum rank =  0   Radius =  0.650 angstrom
                   Q00  =  -0.088473

C          x =  0.590993  y = -0.515795  z =  0.969997 angstrom
           Maximum rank =  0   Radius =  0.650 angstrom
                   Q00  =  -0.102176

C          x = -0.444007  y = -1.269795  z = -1.071003 angstrom
           Maximum rank =  0   Radius =  0.650 angstrom
                   Q00  =  -0.059488

C          x =  0.084993  y = -1.630795  z =  1.593997 angstrom
           Maximum rank =  0   Radius =  0.650 angstrom
                   Q00  =   0.028254

C          x = -0.936007  y = -2.372795  z = -0.421003 angstrom
           Maximum rank =  0   Radius =  0.650 angstrom
                   Q00  =  -0.083132

C          x = -0.654007  y = -2.575795  z =  0.908997 angstrom
           Maximum rank =  0   Radius =  0.650 angstrom
                   Q00  =  -0.075201

H          x =  0.728993  y =  0.527205  z = -0.889003 angstrom
           Maximum rank =  0   Radius =  0.325 angstrom
                   Q00  =   0.059191

H          x = -0.686007  y = -1.140795  z = -2.111003 angstrom
           Maximum rank =  0   Radius =  0.325 angstrom
                   Q00  =   0.058609

H          x =  0.952993  y =  0.483205  z =  2.810997 angstrom
           Maximum rank =  0   Radius =  0.325 angstrom
                   Q00  =   0.097654

H          x =  1.108993  y =  1.511205  z =  1.395997 angstrom
           Maximum rank =  0   Radius =  0.325 angstrom
                   Q00  =   0.100860

H          x =  0.272993  y = -1.782795  z =  2.647997 angstrom
           Maximum rank =  0   Radius =  0.325 angstrom
                   Q00  =   0.050416

H          x = -1.543007  y = -3.086795  z = -0.959003 angstrom
           Maximum rank =  0   Radius =  0.325 angstrom
                   Q00  =   0.055613

H          x = -1.026007  y = -3.452795  z =  1.414997 angstrom
           Maximum rank =  0   Radius =  0.325 angstrom
                   Q00  =   0.062050

H          x =  2.419013  y =  0.362685  z =  1.808619 angstrom
           Maximum rank =  0   Radius =  0.325 angstrom
                   Q00  =   0.105840

Total multipoles referred to origin at
           x =   0.000000,  y =    0.000000,  z =    0.000000 angstrom
                   Q00  =  -0.000000

Finished at 3:55:46 on 28 Apr 2020

  DMA results are available in the Python driver through the
	  variable('DMA DISTRIBUTED MULTIPOLES')
  and
	  variable('DMA TOTAL MULTIPOLES')
  commands.

    Psi4 stopped on: Tuesday, 28 April 2020 03:55AM
    Psi4 wall time for execution: 0:01:28.89

*** Psi4 exiting successfully. Buy a developer a beer!
