                               Psi4 1.3.2 release

  ==> Input File <==

--------------------------------------------------------------------------
import numpy as np
set {scf_type pk
basis cc-pvdz
d_convergence 10
gdma_switch   0
gdma_limit    0
gdma_origin   [ 0.0,  0.0,  0.0 ]
}
molecule test {
    units Angstrom
    0 1
    --
    0 1
    C               -0.371917984845848     0.106810464615133     2.074531288636293
    C                0.220082015154152    -1.197189535384867     1.548531288636293
    H               -0.476917984845848     0.069810464615133     3.159531288636293
    H                0.300082015154152     0.921810464615133     1.816531288636293
    H               -1.326917984845848     0.295810464615133     1.600531288636293
    H                1.288082015154152    -1.191189535384867     1.708531288636293
    H                0.054082015154152    -1.262189535384867     0.474531288636293
    H               -0.183681984845848    -2.090518535384867     2.047468288636292
    C                0.665082015154152     0.838810464615133    -1.408468711363707
    C               -0.517917984845848     0.253810464615133    -2.216468711363707
    H                1.257082015154152     1.502810464615133    -2.040468711363707
    H                0.278082015154152     1.403810464615133    -0.562468711363707
    H                1.301082015154152     0.035810464615133    -1.037468711363707
    H               -1.110917984845848    -0.340189535384867    -1.522468711363707
    H               -0.141735984845848    -0.408449535384867    -3.010129711363707
    H               -1.182692184845848     1.035980464615133    -2.611796711363708

}
e, wfn = energy('scf', return_wfn=True)
gdma(wfn)
dmavals = variable('DMA DISTRIBUTED MULTIPOLES')
charges = np.array(dmavals)
print(charges)
np.save('SSI-113ILE-232ALA-1-dimer.npy', np.array(charges))--------------------------------------------------------------------------

*** tstart() called on ds3
*** at Sun Apr 26 20:00:53 2020

   => Loading Basis Set <=

    Name: CC-PVDZ
    Role: ORBITAL
    Keyword: BASIS
    atoms 1-2, 9-10  entry C          line   138 file /theoryfs2/ds/metcalf/miniconda2/envs/tf2gpu/share/psi4/basis/cc-pvdz.gbs
    atoms 3-8, 11-16 entry H          line    22 file /theoryfs2/ds/metcalf/miniconda2/envs/tf2gpu/share/psi4/basis/cc-pvdz.gbs

         ---------------------------------------------------------
                                   SCF
               by Justin Turney, Rob Parrish, Andy Simmonett
                          and Daniel G. A. Smith
                              RHF Reference
                        1 Threads,    500 MiB Core
         ---------------------------------------------------------

  ==> Geometry <==

    Molecular point group: c1
    Full point group: C1

    Geometry (in Angstrom), charge = 0, multiplicity = 1:

       Center              X                  Y                   Z               Mass
    ------------   -----------------  -----------------  -----------------  -----------------
         C           -0.371917984846     0.106810464615     2.074531288636    12.000000000000
         C            0.220082015154    -1.197189535385     1.548531288636    12.000000000000
         H           -0.476917984846     0.069810464615     3.159531288636     1.007825032230
         H            0.300082015154     0.921810464615     1.816531288636     1.007825032230
         H           -1.326917984846     0.295810464615     1.600531288636     1.007825032230
         H            1.288082015154    -1.191189535385     1.708531288636     1.007825032230
         H            0.054082015154    -1.262189535385     0.474531288636     1.007825032230
         H           -0.183681984846    -2.090518535385     2.047468288636     1.007825032230
         C            0.665082015154     0.838810464615    -1.408468711364    12.000000000000
         C           -0.517917984846     0.253810464615    -2.216468711364    12.000000000000
         H            1.257082015154     1.502810464615    -2.040468711364     1.007825032230
         H            0.278082015154     1.403810464615    -0.562468711364     1.007825032230
         H            1.301082015154     0.035810464615    -1.037468711364     1.007825032230
         H           -1.110917984846    -0.340189535385    -1.522468711364     1.007825032230
         H           -0.141735984846    -0.408449535385    -3.010129711364     1.007825032230
         H           -1.182692184846     1.035980464615    -2.611796711364     1.007825032230

  Running in c1 symmetry.

  Rotational constants: A =      0.35465  B =      0.06892  C =      0.06710 [cm^-1]
  Rotational constants: A =  10632.27368  B =   2066.12977  C =   2011.72066 [MHz]
  Nuclear repulsion =  128.131117942781458

  Charge       = 0
  Multiplicity = 1
  Electrons    = 36
  Nalpha       = 18
  Nbeta        = 18

  ==> Algorithm <==

  SCF Algorithm Type is PK.
  DIIS enabled.
  MOM disabled.
  Fractional occupation disabled.
  Guess Type is SAD.
  Energy threshold   = 1.00e-06
  Density threshold  = 1.00e-10
  Integral threshold = 0.00e+00

  ==> Primary Basis <==

  Basis Set: CC-PVDZ
    Blend: CC-PVDZ
    Number of shells: 60
    Number of basis function: 116
    Number of Cartesian functions: 120
    Spherical Harmonics?: true
    Max angular momentum: 2

  ==> Pre-Iterations <==

   -------------------------------------------------------
    Irrep   Nso     Nmo     Nalpha   Nbeta   Ndocc  Nsocc
   -------------------------------------------------------
     A        116     116       0       0       0       0
   -------------------------------------------------------
    Total     116     116      18      18      18       0
   -------------------------------------------------------

  ==> Integral Setup <==

  Using integral reordering PK algorithm.
  Sizing the integral batches needed.
  Building batch lookup table.
   Calculation information:
      Number of atoms:                  16
      Number of AO shells:              60
      Number of primitives:            148
      Number of atomic orbitals:       120
      Number of basis functions:       116

      Integral cutoff                 1.00e-12
      Number of threads:                 1

	Batch   1 pq = [       0,    6786] index = [             0,23028291] size =     23028291
  Task number: 3
  Buffer size: 11059200
  Buffer per thread: 2
  We computed 1644757 shell quartets total.
  Whereas there are 1675365 unique shell quartets.

  ==> DiskJK: Disk-Based J/K Matrices <==

    J tasked:                  Yes
    K tasked:                  Yes
    wK tasked:                  No
    Memory [MiB]:              375
    Schwarz Cutoff:          1E-12

    OpenMP threads:              1

  Minimum eigenvalue in the overlap matrix is 7.7969379656E-03.
  Using Symmetric Orthogonalization.

  SCF Guess: Superposition of Atomic Densities via on-the-fly atomic UHF.

  ==> Iterations <==

                        Total Energy        Delta E     RMS |[F,P]|

   @RHF iter SAD:  -157.37058030469507   -1.57371e+02   0.00000e+00
   @RHF iter   1:  -158.30556462630719   -9.34984e-01   4.19236e-03 DIIS
   @RHF iter   2:  -158.43827969389810   -1.32715e-01   1.77589e-03 DIIS
   @RHF iter   3:  -158.46123116130516   -2.29515e-02   3.49805e-04 DIIS
   @RHF iter   4:  -158.46305324607283   -1.82208e-03   3.88671e-05 DIIS
   @RHF iter   5:  -158.46307694151653   -2.36954e-05   6.58172e-06 DIIS
   @RHF iter   6:  -158.46307759497864   -6.53462e-07   8.92988e-07 DIIS
   @RHF iter   7:  -158.46307760471942   -9.74077e-09   2.52045e-07 DIIS
   @RHF iter   8:  -158.46307760529459   -5.75170e-10   4.93587e-08 DIIS
   @RHF iter   9:  -158.46307760532284   -2.82512e-11   1.15326e-08 DIIS
   @RHF iter  10:  -158.46307760532454   -1.70530e-12   2.21599e-09 DIIS
   @RHF iter  11:  -158.46307760532486   -3.12639e-13   4.62983e-10 DIIS
   @RHF iter  12:  -158.46307760532534   -4.83169e-13   1.35813e-10 DIIS
   @RHF iter  13:  -158.46307760532525    8.52651e-14   3.05980e-11 DIIS
  Energy and wave function converged.

  ==> Post-Iterations <==

    Orbital Energies [Eh]
    ---------------------

    Doubly Occupied:

       1A    -11.221387     2A    -11.218222     3A    -11.216084
       4A    -11.215304     5A     -1.021722     6A     -1.013431
       7A     -0.839497     8A     -0.838949     9A     -0.611077
      10A     -0.599351    11A     -0.597859    12A     -0.585574
      13A     -0.502906    14A     -0.498773    15A     -0.494302
      16A     -0.485461    17A     -0.484344    18A     -0.480387

    Virtual:

      19A      0.170546    20A      0.207327    21A      0.222409
      22A      0.227154    23A      0.243966    24A      0.262007
      25A      0.264059    26A      0.283629    27A      0.293790
      28A      0.305876    29A      0.324450    30A      0.350055
      31A      0.388835    32A      0.402477    33A      0.557623
      34A      0.587538    35A      0.603714    36A      0.606828
      37A      0.615335    38A      0.649676    39A      0.669817
      40A      0.704656    41A      0.744935    42A      0.799583
      43A      0.833785    44A      0.848453    45A      0.868863
      46A      0.882998    47A      0.890106    48A      0.904874
      49A      0.908654    50A      0.918250    51A      0.924310
      52A      0.945703    53A      0.957580    54A      0.976795
      55A      0.999380    56A      1.027819    57A      1.116717
      58A      1.123102    59A      1.135668    60A      1.142099
      61A      1.235065    62A      1.256707    63A      1.461465
      64A      1.471607    65A      1.487496    66A      1.491965
      67A      1.559957    68A      1.582129    69A      1.686425
      70A      1.687559    71A      1.699070    72A      1.727989
      73A      1.857538    74A      1.864115    75A      1.877744
      76A      1.888633    77A      1.898671    78A      1.905468
      79A      1.933209    80A      1.935736    81A      1.941292
      82A      1.948530    83A      1.952720    84A      1.962223
      85A      1.970921    86A      1.977177    87A      1.989720
      88A      2.027127    89A      2.099692    90A      2.124680
      91A      2.145128    92A      2.173022    93A      2.287925
      94A      2.301195    95A      2.316789    96A      2.326169
      97A      2.432066    98A      2.442078    99A      2.453463
     100A      2.469923   101A      2.559589   102A      2.579853
     103A      2.595469   104A      2.615372   105A      2.762707
     106A      2.788460   107A      2.792904   108A      2.805830
     109A      2.837052   110A      2.854687   111A      2.863364
     112A      2.870099   113A      2.936648   114A      2.955842
     115A      2.975966   116A      2.998195

    Final Occupation by Irrep:
              A
    DOCC [    18 ]

  @RHF Final Energy:  -158.46307760532525

   => Energetics <=

    Nuclear Repulsion Energy =            128.1311179427814579
    One-Electron Energy =                -465.3391298579578006
    Two-Electron Energy =                 178.7449343098511179
    Total Energy =                       -158.4630776053252532

Computation Completed

Properties will be evaluated at   0.000000,   0.000000,   0.000000 [a0]

Properties computed using the SCF density matrix

  Nuclear Dipole Moment: [e a0]
     X:     0.0521      Y:    -0.0250      Z:     0.0209

  Electronic Dipole Moment: [e a0]
     X:    -0.0370      Y:     0.0338      Z:    -0.0133

  Dipole Moment: [e a0]
     X:     0.0151      Y:     0.0087      Z:     0.0076     Total:     0.0191

  Dipole Moment: [D]
     X:     0.0384      Y:     0.0222      Z:     0.0194     Total:     0.0484

*** tstop() called on ds3 at Sun Apr 26 20:01:04 2020
Module time:
	user time   =       8.12 seconds =       0.14 minutes
	system time =       2.62 seconds =       0.04 minutes
	total time  =         11 seconds =       0.18 minutes
Total time:
	user time   =       8.12 seconds =       0.14 minutes
	system time =       2.62 seconds =       0.04 minutes
	total time  =         11 seconds =       0.18 minutes
                                     G D M A

                                 by Anthony Stone

                           version 2.2.06, 22 June 2011

               Distributed Multipoles from Gaussian wavefunctions

Starting at 20:1:4 on 26 Apr 2020

Using SCF density matrix from file ./SSI/SSI-113ILE-232ALA-1-dimer.test.10494.fchk

                         Distributed Multipole Analysis

Standard DMA

Positions and radii in angstrom
Multipole moments in atomic units, ea_0^k for rank k

C          x = -0.371918  y =  0.106810  z =  2.074531 angstrom
           Maximum rank =  0   Radius =  0.650 angstrom
                   Q00  =  -0.245035

C          x =  0.220082  y = -1.197190  z =  1.548531 angstrom
           Maximum rank =  0   Radius =  0.650 angstrom
                   Q00  =  -0.230709

H          x = -0.476918  y =  0.069810  z =  3.159531 angstrom
           Maximum rank =  0   Radius =  0.325 angstrom
                   Q00  =   0.080990

H          x =  0.300082  y =  0.921810  z =  1.816531 angstrom
           Maximum rank =  0   Radius =  0.325 angstrom
                   Q00  =   0.078937

H          x = -1.326918  y =  0.295810  z =  1.600531 angstrom
           Maximum rank =  0   Radius =  0.325 angstrom
                   Q00  =   0.078091

H          x =  1.288082  y = -1.191190  z =  1.708531 angstrom
           Maximum rank =  0   Radius =  0.325 angstrom
                   Q00  =   0.077056

H          x =  0.054082  y = -1.262190  z =  0.474531 angstrom
           Maximum rank =  0   Radius =  0.325 angstrom
                   Q00  =   0.080300

H          x = -0.183682  y = -2.090519  z =  2.047468 angstrom
           Maximum rank =  0   Radius =  0.325 angstrom
                   Q00  =   0.078785

C          x =  0.665082  y =  0.838810  z = -1.408469 angstrom
           Maximum rank =  0   Radius =  0.650 angstrom
                   Q00  =  -0.242250

C          x = -0.517918  y =  0.253810  z = -2.216469 angstrom
           Maximum rank =  0   Radius =  0.650 angstrom
                   Q00  =  -0.243618

H          x =  1.257082  y =  1.502810  z = -2.040469 angstrom
           Maximum rank =  0   Radius =  0.325 angstrom
                   Q00  =   0.080972

H          x =  0.278082  y =  1.403810  z = -0.562469 angstrom
           Maximum rank =  0   Radius =  0.325 angstrom
                   Q00  =   0.081956

H          x =  1.301082  y =  0.035810  z = -1.037469 angstrom
           Maximum rank =  0   Radius =  0.325 angstrom
                   Q00  =   0.083068

H          x = -1.110918  y = -0.340190  z = -1.522469 angstrom
           Maximum rank =  0   Radius =  0.325 angstrom
                   Q00  =   0.074956

H          x = -0.141736  y = -0.408450  z = -3.010130 angstrom
           Maximum rank =  0   Radius =  0.325 angstrom
                   Q00  =   0.082194

H          x = -1.182692  y =  1.035980  z = -2.611797 angstrom
           Maximum rank =  0   Radius =  0.325 angstrom
                   Q00  =   0.084307

Total multipoles referred to origin at
           x =   0.000000,  y =    0.000000,  z =    0.000000 angstrom
                   Q00  =  -0.000000

Finished at 20:1:4 on 26 Apr 2020

  DMA results are available in the Python driver through the
	  variable('DMA DISTRIBUTED MULTIPOLES')
  and
	  variable('DMA TOTAL MULTIPOLES')
  commands.

    Psi4 stopped on: Sunday, 26 April 2020 08:01PM
    Psi4 wall time for execution: 0:00:10.61

*** Psi4 exiting successfully. Buy a developer a beer!
