                               Psi4 1.3.2 release

  ==> Input File <==

--------------------------------------------------------------------------
import numpy as np
set {scf_type pk
basis cc-pvdz
d_convergence 10
gdma_switch   0
gdma_limit    0
gdma_origin   [ 0.0,  0.0,  0.0 ]
}
molecule test {
    units Angstrom
    0 1
    --
    0 1
    C               -0.212053592960040    -1.918494960516950    -0.772409247035893
    C               -0.702053592960040    -3.061494960516951    -1.638409247035894
    H               -0.922053592960040    -1.718494960516950     0.030590752964107
    H                0.742946407039960    -2.188494960516950    -0.321409247035893
    H               -0.080053592960040    -1.021494960516951    -1.377409247035894
    H               -0.921053592960040    -3.913494960516950    -1.003409247035894
    H                0.117946407039960    -3.345494960516951    -2.297409247035893
    H               -1.587763592960040    -2.812545960516951    -2.241354047035893
    C               -0.038053592960040     1.604505039483050     0.283590752964107
    C                1.151946407039960     0.809505039483050     0.782590752964107
    C               -0.217053592960040     2.671505039483050     1.357590752964106
    H               -0.927053592960040     0.984505039483050     0.176590752964107
    H                0.212946407039960     2.080505039483050    -0.666409247035893
    H                0.837946407039960     0.054505039483050     1.503590752964106
    H                1.660946407039960     0.349505039483050    -0.063409247035893
    H               -0.760053592960039     2.240505039483049     2.200590752964107
    H               -0.751053592960040     3.540505039483050     0.971590752964107
    H                1.768728407039960     1.568965039483050     1.285377752964106
    H                0.813231407039960     2.924555039483050     1.648239752964107

}
e, wfn = energy('scf', return_wfn=True)
gdma(wfn)
dmavals = variable('DMA DISTRIBUTED MULTIPOLES')
charges = np.array(dmavals)
print(charges)
np.save('SSI-050ILE-071PRO-1-dimer.npy', np.array(charges))--------------------------------------------------------------------------

*** tstart() called on ds3
*** at Tue Apr 28 12:25:46 2020

   => Loading Basis Set <=

    Name: CC-PVDZ
    Role: ORBITAL
    Keyword: BASIS
    atoms 1-2, 9-11  entry C          line   138 file /theoryfs2/ds/metcalf/miniconda2/envs/tf2gpu/share/psi4/basis/cc-pvdz.gbs
    atoms 3-8, 12-19 entry H          line    22 file /theoryfs2/ds/metcalf/miniconda2/envs/tf2gpu/share/psi4/basis/cc-pvdz.gbs

         ---------------------------------------------------------
                                   SCF
               by Justin Turney, Rob Parrish, Andy Simmonett
                          and Daniel G. A. Smith
                              RHF Reference
                        1 Threads,    500 MiB Core
         ---------------------------------------------------------

  ==> Geometry <==

    Molecular point group: c1
    Full point group: C1

    Geometry (in Angstrom), charge = 0, multiplicity = 1:

       Center              X                  Y                   Z               Mass
    ------------   -----------------  -----------------  -----------------  -----------------
         C           -0.212053592960    -1.918494960517    -0.772409247036    12.000000000000
         C           -0.702053592960    -3.061494960517    -1.638409247036    12.000000000000
         H           -0.922053592960    -1.718494960517     0.030590752964     1.007825032230
         H            0.742946407040    -2.188494960517    -0.321409247036     1.007825032230
         H           -0.080053592960    -1.021494960517    -1.377409247036     1.007825032230
         H           -0.921053592960    -3.913494960517    -1.003409247036     1.007825032230
         H            0.117946407040    -3.345494960517    -2.297409247036     1.007825032230
         H           -1.587763592960    -2.812545960517    -2.241354047036     1.007825032230
         C           -0.038053592960     1.604505039483     0.283590752964    12.000000000000
         C            1.151946407040     0.809505039483     0.782590752964    12.000000000000
         C           -0.217053592960     2.671505039483     1.357590752964    12.000000000000
         H           -0.927053592960     0.984505039483     0.176590752964     1.007825032230
         H            0.212946407040     2.080505039483    -0.666409247036     1.007825032230
         H            0.837946407040     0.054505039483     1.503590752964     1.007825032230
         H            1.660946407040     0.349505039483    -0.063409247036     1.007825032230
         H           -0.760053592960     2.240505039483     2.200590752964     1.007825032230
         H           -0.751053592960     3.540505039483     0.971590752964     1.007825032230
         H            1.768728407040     1.568965039483     1.285377752964     1.007825032230
         H            0.813231407040     2.924555039483     1.648239752964     1.007825032230

  Running in c1 symmetry.

  Rotational constants: A =      0.37995  B =      0.03674  C =      0.03503 [cm^-1]
  Rotational constants: A =  11390.48451  B =   1101.44822  C =   1050.18028 [MHz]
  Nuclear repulsion =  180.650237976648867

  Charge       = 0
  Multiplicity = 1
  Electrons    = 44
  Nalpha       = 22
  Nbeta        = 22

  ==> Algorithm <==

  SCF Algorithm Type is PK.
  DIIS enabled.
  MOM disabled.
  Fractional occupation disabled.
  Guess Type is SAD.
  Energy threshold   = 1.00e-06
  Density threshold  = 1.00e-10
  Integral threshold = 0.00e+00

  ==> Primary Basis <==

  Basis Set: CC-PVDZ
    Blend: CC-PVDZ
    Number of shells: 72
    Number of basis function: 140
    Number of Cartesian functions: 145
    Spherical Harmonics?: true
    Max angular momentum: 2

  ==> Pre-Iterations <==

   -------------------------------------------------------
    Irrep   Nso     Nmo     Nalpha   Nbeta   Ndocc  Nsocc
   -------------------------------------------------------
     A        140     140       0       0       0       0
   -------------------------------------------------------
    Total     140     140      22      22      22       0
   -------------------------------------------------------

  ==> Integral Setup <==

  Using integral reordering PK algorithm.
  Sizing the integral batches needed.
  Building batch lookup table.
   Calculation information:
      Number of atoms:                  19
      Number of AO shells:              72
      Number of primitives:            180
      Number of atomic orbitals:       145
      Number of basis functions:       140

      Integral cutoff                 1.00e-12
      Number of threads:                 1

	Batch   1 pq = [       0,    9405] index = [             0,44231715] size =     44231715
	Batch   2 pq = [    9405,    9870] index = [      44231715,48713385] size =      4481670
  Task number: 5
  Buffer size: 11059200
  Buffer per thread: 2
  We computed 2854299 shell quartets total.
  Whereas there are 3454506 unique shell quartets.

  ==> DiskJK: Disk-Based J/K Matrices <==

    J tasked:                  Yes
    K tasked:                  Yes
    wK tasked:                  No
    Memory [MiB]:              375
    Schwarz Cutoff:          1E-12

    OpenMP threads:              1

  Minimum eigenvalue in the overlap matrix is 4.7725944358E-03.
  Using Symmetric Orthogonalization.

  SCF Guess: Superposition of Atomic Densities via on-the-fly atomic UHF.

  ==> Iterations <==

                        Total Energy        Delta E     RMS |[F,P]|

   @RHF iter SAD:  -196.54663032796034   -1.96547e+02   0.00000e+00
   @RHF iter   1:  -197.28816222195530   -7.41532e-01   3.87889e-03 DIIS
   @RHF iter   2:  -197.45218857206868   -1.64026e-01   1.68737e-03 DIIS
   @RHF iter   3:  -197.48206211691183   -2.98735e-02   3.31162e-04 DIIS
   @RHF iter   4:  -197.48430749882365   -2.24538e-03   5.01591e-05 DIIS
   @RHF iter   5:  -197.48434835590803   -4.08571e-05   1.53951e-05 DIIS
   @RHF iter   6:  -197.48435198136863   -3.62546e-06   2.60304e-06 DIIS
   @RHF iter   7:  -197.48435210346824   -1.22100e-07   4.65736e-07 DIIS
   @RHF iter   8:  -197.48435210781071   -4.34247e-09   1.00348e-07 DIIS
   @RHF iter   9:  -197.48435210800349   -1.92784e-10   3.20758e-08 DIIS
   @RHF iter  10:  -197.48435210802464   -2.11458e-11   7.10582e-09 DIIS
   @RHF iter  11:  -197.48435210802626   -1.62004e-12   1.39995e-09 DIIS
   @RHF iter  12:  -197.48435210802674   -4.83169e-13   2.94228e-10 DIIS
   @RHF iter  13:  -197.48435210802592    8.24230e-13   7.07974e-11 DIIS
  Energy and wave function converged.

  ==> Post-Iterations <==

    Orbital Energies [Eh]
    ---------------------

    Doubly Occupied:

       1A    -11.216198     2A    -11.215444     3A    -11.214012
       4A    -11.212429     5A    -11.210152     6A     -1.065396
       7A     -1.022204     8A     -0.912406     9A     -0.836683
      10A     -0.797032    11A     -0.636813    12A     -0.611597
      13A     -0.600498    14A     -0.598880    15A     -0.541476
      16A     -0.514086    17A     -0.500478    18A     -0.488066
      19A     -0.483811    20A     -0.478897    21A     -0.469253
      22A     -0.454682

    Virtual:

      23A      0.176070    24A      0.195153    25A      0.215800
      26A      0.226199    27A      0.228819    28A      0.247280
      29A      0.261085    30A      0.274406    31A      0.279569
      32A      0.288580    33A      0.295491    34A      0.305287
      35A      0.325714    36A      0.335786    37A      0.377713
      38A      0.402153    39A      0.434963    40A      0.554939
      41A      0.568958    42A      0.599343    43A      0.601993
      44A      0.623979    45A      0.637414    46A      0.642898
      47A      0.690105    48A      0.710772    49A      0.755546
      50A      0.794653    51A      0.827617    52A      0.851307
      53A      0.867711    54A      0.878529    55A      0.886839
      56A      0.894164    57A      0.895951    58A      0.904037
      59A      0.909064    60A      0.914006    61A      0.917683
      62A      0.923403    63A      0.928138    64A      0.951079
      65A      0.952026    66A      0.971432    67A      0.977083
      68A      1.059867    69A      1.090901    70A      1.122837
      71A      1.135637    72A      1.151946    73A      1.190003
      74A      1.266998    75A      1.418450    76A      1.455581
      77A      1.469418    78A      1.489241    79A      1.490853
      80A      1.592518    81A      1.622184    82A      1.629335
      83A      1.632102    84A      1.684000    85A      1.696157
      86A      1.733578    87A      1.743769    88A      1.795052
      89A      1.851284    90A      1.870772    91A      1.881710
      92A      1.896622    93A      1.903633    94A      1.915993
      95A      1.935301    96A      1.944586    97A      1.952825
      98A      1.956238    99A      1.959577   100A      1.966179
     101A      1.975361   102A      2.003154   103A      2.017053
     104A      2.027555   105A      2.047414   106A      2.095491
     107A      2.105233   108A      2.121983   109A      2.137584
     110A      2.148465   111A      2.187054   112A      2.228997
     113A      2.305387   114A      2.316396   115A      2.357025
     116A      2.370005   117A      2.446083   118A      2.458573
     119A      2.466760   120A      2.485337   121A      2.503935
     122A      2.554243   123A      2.565360   124A      2.588562
     125A      2.640250   126A      2.699178   127A      2.762523
     128A      2.773519   129A      2.784855   130A      2.791407
     131A      2.811519   132A      2.840742   133A      2.854534
     134A      2.871946   135A      2.880240   136A      2.935415
     137A      2.943018   138A      2.954561   139A      2.973010
     140A      3.055145

    Final Occupation by Irrep:
              A
    DOCC [    22 ]

  @RHF Final Energy:  -197.48435210802592

   => Energetics <=

    Nuclear Repulsion Energy =            180.6502379766488673
    One-Electron Energy =                -622.1081967377266437
    Two-Electron Energy =                 243.9736066530518315
    Total Energy =                       -197.4843521080259166

Computation Completed

Properties will be evaluated at   0.000000,   0.000000,   0.000000 [a0]

Properties computed using the SCF density matrix

  Nuclear Dipole Moment: [e a0]
     X:     0.1928      Y:    -1.1779      Z:    -0.1446

  Electronic Dipole Moment: [e a0]
     X:    -0.2070      Y:     1.1461      Z:     0.1152

  Dipole Moment: [e a0]
     X:    -0.0142      Y:    -0.0318      Z:    -0.0294     Total:     0.0456

  Dipole Moment: [D]
     X:    -0.0362      Y:    -0.0807      Z:    -0.0747     Total:     0.1158

*** tstop() called on ds3 at Tue Apr 28 12:26:09 2020
Module time:
	user time   =      15.44 seconds =       0.26 minutes
	system time =       6.76 seconds =       0.11 minutes
	total time  =         23 seconds =       0.38 minutes
Total time:
	user time   =      15.44 seconds =       0.26 minutes
	system time =       6.76 seconds =       0.11 minutes
	total time  =         23 seconds =       0.38 minutes
                                     G D M A

                                 by Anthony Stone

                           version 2.2.06, 22 June 2011

               Distributed Multipoles from Gaussian wavefunctions

Starting at 12:26:9 on 28 Apr 2020

Using SCF density matrix from file ./SSI/SSI-050ILE-071PRO-1-dimer.test.14868.fchk

                         Distributed Multipole Analysis

Standard DMA

Positions and radii in angstrom
Multipole moments in atomic units, ea_0^k for rank k

C          x = -0.212054  y = -1.918495  z = -0.772409 angstrom
           Maximum rank =  0   Radius =  0.650 angstrom
                   Q00  =  -0.238203

C          x = -0.702054  y = -3.061495  z = -1.638409 angstrom
           Maximum rank =  0   Radius =  0.650 angstrom
                   Q00  =  -0.230473

H          x = -0.922054  y = -1.718495  z =  0.030591 angstrom
           Maximum rank =  0   Radius =  0.325 angstrom
                   Q00  =   0.074992

H          x =  0.742946  y = -2.188495  z = -0.321409 angstrom
           Maximum rank =  0   Radius =  0.325 angstrom
                   Q00  =   0.079071

H          x = -0.080054  y = -1.021495  z = -1.377409 angstrom
           Maximum rank =  0   Radius =  0.325 angstrom
                   Q00  =   0.077950

H          x = -0.921054  y = -3.913495  z = -1.003409 angstrom
           Maximum rank =  0   Radius =  0.325 angstrom
                   Q00  =   0.078229

H          x =  0.117946  y = -3.345495  z = -2.297409 angstrom
           Maximum rank =  0   Radius =  0.325 angstrom
                   Q00  =   0.075416

H          x = -1.587764  y = -2.812546  z = -2.241354 angstrom
           Maximum rank =  0   Radius =  0.325 angstrom
                   Q00  =   0.080803

C          x = -0.038054  y =  1.604505  z =  0.283591 angstrom
           Maximum rank =  0   Radius =  0.650 angstrom
                   Q00  =  -0.097468

C          x =  1.151946  y =  0.809505  z =  0.782591 angstrom
           Maximum rank =  0   Radius =  0.650 angstrom
                   Q00  =  -0.233323

C          x = -0.217054  y =  2.671505  z =  1.357591 angstrom
           Maximum rank =  0   Radius =  0.650 angstrom
                   Q00  =  -0.203491

H          x = -0.927054  y =  0.984505  z =  0.176591 angstrom
           Maximum rank =  0   Radius =  0.325 angstrom
                   Q00  =   0.057765

H          x =  0.212946  y =  2.080505  z = -0.666409 angstrom
           Maximum rank =  0   Radius =  0.325 angstrom
                   Q00  =   0.049154

H          x =  0.837946  y =  0.054505  z =  1.503591 angstrom
           Maximum rank =  0   Radius =  0.325 angstrom
                   Q00  =   0.078941

H          x =  1.660946  y =  0.349505  z = -0.063409 angstrom
           Maximum rank =  0   Radius =  0.325 angstrom
                   Q00  =   0.079918

H          x = -0.760054  y =  2.240505  z =  2.200591 angstrom
           Maximum rank =  0   Radius =  0.325 angstrom
                   Q00  =   0.077600

H          x = -0.751054  y =  3.540505  z =  0.971591 angstrom
           Maximum rank =  0   Radius =  0.325 angstrom
                   Q00  =   0.080732

H          x =  1.768728  y =  1.568965  z =  1.285378 angstrom
           Maximum rank =  0   Radius =  0.325 angstrom
                   Q00  =   0.060248

H          x =  0.813231  y =  2.924555  z =  1.648240 angstrom
           Maximum rank =  0   Radius =  0.325 angstrom
                   Q00  =   0.052139

Total multipoles referred to origin at
           x =   0.000000,  y =    0.000000,  z =    0.000000 angstrom
                   Q00  =  -0.000000

Finished at 12:26:9 on 28 Apr 2020

  DMA results are available in the Python driver through the
	  variable('DMA DISTRIBUTED MULTIPOLES')
  and
	  variable('DMA TOTAL MULTIPOLES')
  commands.

    Psi4 stopped on: Tuesday, 28 April 2020 12:26PM
    Psi4 wall time for execution: 0:00:22.20

*** Psi4 exiting successfully. Buy a developer a beer!
