                               Psi4 1.3.2 release

  ==> Input File <==

--------------------------------------------------------------------------
import numpy as np
set {scf_type pk
basis cc-pvdz
d_convergence 10
gdma_switch   0
gdma_limit    0
gdma_origin   [ 0.0,  0.0,  0.0 ]
}
molecule test {
    units Angstrom
    0 1
    --
    0 1
    C               -1.017204147767318     0.886156385551346     2.010731045320805
    C               -1.879204147767318     0.928156385551346     3.278731045320805
    C               -0.226204147767318    -0.383843614448654     1.873731045320805
    C               -0.623204147767318    -1.387843614448654     0.986731045320805
    C                0.936795852232682    -0.553843614448654     2.628731045320805
    C                0.138795852232682    -2.577843614448654     0.847731045320805
    C                1.698795852232682    -1.722843614448655     2.491731045320805
    C                1.304795852232682    -2.726843614448654     1.613731045320805
    O                2.059795852232682    -3.875843614448654     1.502731045320805
    H               -1.666204147767318     0.996156385551346     1.142731045320805
    H               -0.326204147767318     1.730156385551346     2.015731045320805
    H               -1.207204147767318     0.866156385551346     4.131731045320805
    H               -1.514204147767318    -1.250843614448655     0.389731045320805
    H                1.261795852232682     0.223156385551346     3.305731045320805
    H               -0.165204147767318    -3.342843614448654     0.148731045320805
    H                2.602795852232681    -1.851843614448655     3.069731045320805
    H                1.707795852232682    -4.479843614448654     0.839731045320805
    H               -2.581284147767318     0.081756385551346     3.305040045320805
    H               -2.402694147767318     1.894656385551345     3.321509045320805
    C               -2.631204147767318     2.845156385551346    -1.046268954679195
    C               -1.197204147767318     2.448156385551346    -1.288268954679195
    C               -0.105204147767318     3.245156385551346    -1.115268954679195
    C               -0.713204147767318     1.172156385551345    -1.754268954679195
    C                0.704795852232682     1.271156385551345    -1.827268954679195
    C               -1.328204147767318    -0.034843614448654    -2.131268954679195
    C                1.515795852232682     0.224156385551346    -2.248268954679195
    C               -0.520204147767318    -1.086843614448655    -2.573268954679195
    C                0.888795852232682    -0.952843614448654    -2.619268954679195
    N                1.032795852232682     2.541156385551346    -1.430268954679195
    H               -2.667204147767318     3.798156385551346    -0.519268954679195
    H               -3.096204147767318     2.086156385551345    -0.416268954679195
    H               -0.137204147767318     4.279156385551345    -0.783268954679195
    H                1.968795852232682     2.928156385551346    -1.389268954679195
    H               -2.399204147767318    -0.142843614448654    -2.072268954679195
    H                2.591795852232682     0.326156385551346    -2.279268954679195
    H               -0.971204147767318    -2.024843614448655    -2.863268954679195
    H                1.486795852232682    -1.791843614448654    -2.950268954679195
    H               -3.180994147767318     2.916306385551346    -1.996358954679195

}
e, wfn = energy('scf', return_wfn=True)
gdma(wfn)
dmavals = variable('DMA DISTRIBUTED MULTIPOLES')
charges = np.array(dmavals)
print(charges)
np.save('SSI-019TYR-050TRP-1-dimer.npy', np.array(charges))--------------------------------------------------------------------------

*** tstart() called on ds3
*** at Mon Apr 27 16:53:13 2020

   => Loading Basis Set <=

    Name: CC-PVDZ
    Role: ORBITAL
    Keyword: BASIS
    atoms 1-8, 20-28   entry C          line   138 file /theoryfs2/ds/metcalf/miniconda2/envs/tf2gpu/share/psi4/basis/cc-pvdz.gbs
    atoms 9            entry O          line   198 file /theoryfs2/ds/metcalf/miniconda2/envs/tf2gpu/share/psi4/basis/cc-pvdz.gbs
    atoms 10-19, 30-38 entry H          line    22 file /theoryfs2/ds/metcalf/miniconda2/envs/tf2gpu/share/psi4/basis/cc-pvdz.gbs
    atoms 29           entry N          line   168 file /theoryfs2/ds/metcalf/miniconda2/envs/tf2gpu/share/psi4/basis/cc-pvdz.gbs

         ---------------------------------------------------------
                                   SCF
               by Justin Turney, Rob Parrish, Andy Simmonett
                          and Daniel G. A. Smith
                              RHF Reference
                        1 Threads,    500 MiB Core
         ---------------------------------------------------------

  ==> Geometry <==

    Molecular point group: c1
    Full point group: C1

    Geometry (in Angstrom), charge = 0, multiplicity = 1:

       Center              X                  Y                   Z               Mass
    ------------   -----------------  -----------------  -----------------  -----------------
         C           -1.017204147767     0.886156385551     2.010731045321    12.000000000000
         C           -1.879204147767     0.928156385551     3.278731045321    12.000000000000
         C           -0.226204147767    -0.383843614449     1.873731045321    12.000000000000
         C           -0.623204147767    -1.387843614449     0.986731045321    12.000000000000
         C            0.936795852233    -0.553843614449     2.628731045321    12.000000000000
         C            0.138795852233    -2.577843614449     0.847731045321    12.000000000000
         C            1.698795852233    -1.722843614449     2.491731045321    12.000000000000
         C            1.304795852233    -2.726843614449     1.613731045321    12.000000000000
         O            2.059795852233    -3.875843614449     1.502731045321    15.994914619570
         H           -1.666204147767     0.996156385551     1.142731045321     1.007825032230
         H           -0.326204147767     1.730156385551     2.015731045321     1.007825032230
         H           -1.207204147767     0.866156385551     4.131731045321     1.007825032230
         H           -1.514204147767    -1.250843614449     0.389731045321     1.007825032230
         H            1.261795852233     0.223156385551     3.305731045321     1.007825032230
         H           -0.165204147767    -3.342843614449     0.148731045321     1.007825032230
         H            2.602795852233    -1.851843614449     3.069731045321     1.007825032230
         H            1.707795852233    -4.479843614449     0.839731045321     1.007825032230
         H           -2.581284147767     0.081756385551     3.305040045321     1.007825032230
         H           -2.402694147767     1.894656385551     3.321509045321     1.007825032230
         C           -2.631204147767     2.845156385551    -1.046268954679    12.000000000000
         C           -1.197204147767     2.448156385551    -1.288268954679    12.000000000000
         C           -0.105204147767     3.245156385551    -1.115268954679    12.000000000000
         C           -0.713204147767     1.172156385551    -1.754268954679    12.000000000000
         C            0.704795852233     1.271156385551    -1.827268954679    12.000000000000
         C           -1.328204147767    -0.034843614449    -2.131268954679    12.000000000000
         C            1.515795852233     0.224156385551    -2.248268954679    12.000000000000
         C           -0.520204147767    -1.086843614449    -2.573268954679    12.000000000000
         C            0.888795852233    -0.952843614449    -2.619268954679    12.000000000000
         N            1.032795852233     2.541156385551    -1.430268954679    14.003074004430
         H           -2.667204147767     3.798156385551    -0.519268954679     1.007825032230
         H           -3.096204147767     2.086156385551    -0.416268954679     1.007825032230
         H           -0.137204147767     4.279156385551    -0.783268954679     1.007825032230
         H            1.968795852233     2.928156385551    -1.389268954679     1.007825032230
         H           -2.399204147767    -0.142843614449    -2.072268954679     1.007825032230
         H            2.591795852233     0.326156385551    -2.279268954679     1.007825032230
         H           -0.971204147767    -2.024843614449    -2.863268954679     1.007825032230
         H            1.486795852233    -1.791843614449    -2.950268954679     1.007825032230
         H           -3.180994147767     2.916306385551    -1.996358954679     1.007825032230

  Running in c1 symmetry.

  Rotational constants: A =      0.01659  B =      0.00963  C =      0.00753 [cm^-1]
  Rotational constants: A =    497.47634  B =    288.71926  C =    225.70386 [MHz]
  Nuclear repulsion = 1374.240969748837870

  Charge       = 0
  Multiplicity = 1
  Electrons    = 136
  Nalpha       = 68
  Nbeta        = 68

  ==> Algorithm <==

  SCF Algorithm Type is PK.
  DIIS enabled.
  MOM disabled.
  Fractional occupation disabled.
  Guess Type is SAD.
  Energy threshold   = 1.00e-06
  Density threshold  = 1.00e-10
  Integral threshold = 0.00e+00

  ==> Primary Basis <==

  Basis Set: CC-PVDZ
    Blend: CC-PVDZ
    Number of shells: 171
    Number of basis function: 361
    Number of Cartesian functions: 380
    Spherical Harmonics?: true
    Max angular momentum: 2

  ==> Pre-Iterations <==

   -------------------------------------------------------
    Irrep   Nso     Nmo     Nalpha   Nbeta   Ndocc  Nsocc
   -------------------------------------------------------
     A        361     361       0       0       0       0
   -------------------------------------------------------
    Total     361     361      68      68      68       0
   -------------------------------------------------------

  ==> Integral Setup <==

  Using Yoshimine PK algorithm.
  Sizing the integral batches needed.
  Building batch lookup table.
   Calculation information:
      Number of atoms:                  38
      Number of AO shells:             171
      Number of primitives:            513
      Number of atomic orbitals:       380
      Number of basis functions:       361

      Integral cutoff                 1.00e-12
      Number of threads:                 1

	Batch   1 pq = [       0,    9405] index = [             0,44231715] size =     44231715
	Batch   2 pq = [    9405,   13301] index = [      44231715,88464951] size =     44233236
	Batch   3 pq = [   13301,   16290] index = [      88464951,132690195] size =     44225244
	Batch   4 pq = [   16290,   18810] index = [     132690195,176917455] size =     44227260
	Batch   5 pq = [   18810,   21030] index = [     176917455,221140965] size =     44223510
	Batch   6 pq = [   21030,   23037] index = [     221140965,265363203] size =     44222238
	Batch   7 pq = [   23037,   24883] index = [     265363203,309594286] size =     44231083
	Batch   8 pq = [   24883,   26601] index = [     309594286,353819901] size =     44225615
	Batch   9 pq = [   26601,   28214] index = [     353819901,398029005] size =     44209104
	Batch  10 pq = [   28214,   29740] index = [     398029005,442248670] size =     44219665
	Batch  11 pq = [   29740,   31191] index = [     442248670,486454836] size =     44206166
	Batch  12 pq = [   31191,   32578] index = [     486454836,530679331] size =     44224495
	Batch  13 pq = [   32578,   33908] index = [     530679331,574893186] size =     44213855
	Batch  14 pq = [   33908,   35188] index = [     574893186,619115266] size =     44222080
	Batch  15 pq = [   35188,   36423] index = [     619115266,663335676] size =     44220410
	Batch  16 pq = [   36423,   37617] index = [     663335676,707538153] size =     44202477
	Batch  17 pq = [   37617,   38775] index = [     707538153,751769700] size =     44231547
	Batch  18 pq = [   38775,   39899] index = [     751769700,795985050] size =     44215350
	Batch  19 pq = [   39899,   40992] index = [     795985050,840192528] size =     44207478
	Batch  20 pq = [   40992,   42057] index = [     840192528,884416653] size =     44224125
	Batch  21 pq = [   42057,   43095] index = [     884416653,928611060] size =     44194407
	Batch  22 pq = [   43095,   44109] index = [     928611060,972823995] size =     44212935
	Batch  23 pq = [   44109,   45100] index = [     972823995,1017027550] size =     44203555
	Batch  24 pq = [   45100,   46070] index = [    1017027550,1061245485] size =     44217935
	Batch  25 pq = [   46070,   47020] index = [    1061245485,1105463710] size =     44218225
	Batch  26 pq = [   47020,   47951] index = [    1105463710,1149673176] size =     44209466
	Batch  27 pq = [   47951,   48864] index = [    1149673176,1193869680] size =     44196504
	Batch  28 pq = [   48864,   49761] index = [    1193869680,1238103441] size =     44233761
	Batch  29 pq = [   49761,   50642] index = [    1238103441,1282331403] size =     44227962
	Batch  30 pq = [   50642,   51508] index = [    1282331403,1326562786] size =     44231383
	Batch  31 pq = [   51508,   52359] index = [    1326562786,1370758620] size =     44195834
	Batch  32 pq = [   52359,   53197] index = [    1370758620,1414987003] size =     44228383
	Batch  33 pq = [   53197,   54022] index = [    1414987003,1459215253] size =     44228250
	Batch  34 pq = [   54022,   54834] index = [    1459215253,1503411195] size =     44195942
	Batch  35 pq = [   54834,   55634] index = [    1503411195,1547598795] size =     44187600
	Batch  36 pq = [   55634,   56423] index = [    1547598795,1591805676] size =     44206881
	Batch  37 pq = [   56423,   57201] index = [    1591805676,1636005801] size =     44200125
	Batch  38 pq = [   57201,   57969] index = [    1636005801,1680231465] size =     44225664
	Batch  39 pq = [   57969,   58727] index = [    1680231465,1724459628] size =     44228163
	Batch  40 pq = [   58727,   59475] index = [    1724459628,1768667550] size =     44207922
	Batch  41 pq = [   59475,   60214] index = [    1768667550,1812893005] size =     44225455
	Batch  42 pq = [   60214,   60944] index = [    1812893005,1857116040] size =     44223035
	Batch  43 pq = [   60944,   61665] index = [    1857116040,1901316945] size =     44200905
	Batch  44 pq = [   61665,   62378] index = [    1901316945,1945538631] size =     44221686
	Batch  45 pq = [   62378,   63083] index = [    1945538631,1989763986] size =     44225355
	Batch  46 pq = [   63083,   63780] index = [    1989763986,2033976090] size =     44212104
	Batch  47 pq = [   63780,   64469] index = [    2033976090,2078158215] size =     44182125
	Batch  48 pq = [   64469,   65151] index = [    2078158215,2122358976] size =     44200761
	Batch  49 pq = [   65151,   65341] index = [    2122358976,2134755811] size =     12396835
  ==> DiskJK: Disk-Based J/K Matrices <==

    J tasked:                  Yes
    K tasked:                  Yes
    wK tasked:                  No
    Memory [MiB]:              375
    Schwarz Cutoff:          1E-12

    OpenMP threads:              1

  Minimum eigenvalue in the overlap matrix is 2.4668227599E-04.
  Using Symmetric Orthogonalization.

  SCF Guess: Superposition of Atomic Densities via on-the-fly atomic UHF.

  ==> Iterations <==

                        Total Energy        Delta E     RMS |[F,P]|

   @RHF iter SAD:  -783.20208509792997   -7.83202e+02   0.00000e+00
   @RHF iter   1:  -783.79062028336091   -5.88535e-01   2.12386e-03 DIIS
   @RHF iter   2:  -784.12458267171405   -3.33962e-01   9.41388e-04 DIIS
   @RHF iter   3:  -784.18299171259150   -5.84090e-02   2.55909e-04 DIIS
   @RHF iter   4:  -784.18863555486848   -5.64384e-03   1.17115e-04 DIIS
   @RHF iter   5:  -784.18966728570319   -1.03173e-03   1.73656e-05 DIIS
   @RHF iter   6:  -784.18970997421195   -4.26885e-05   8.07470e-06 DIIS
   @RHF iter   7:  -784.18971908903939   -9.11483e-06   3.05976e-06 DIIS
   @RHF iter   8:  -784.18972135185891   -2.26282e-06   1.20667e-06 DIIS
   @RHF iter   9:  -784.18972178894569   -4.37087e-07   5.67058e-07 DIIS
   @RHF iter  10:  -784.18972189081057   -1.01865e-07   2.74662e-07 DIIS
   @RHF iter  11:  -784.18972191980606   -2.89955e-08   1.08851e-07 DIIS
   @RHF iter  12:  -784.18972192347780   -3.67174e-09   4.61435e-08 DIIS
   @RHF iter  13:  -784.18972192399565   -5.17844e-10   1.55910e-08 DIIS
   @RHF iter  14:  -784.18972192401952   -2.38742e-11   5.32287e-09 DIIS
   @RHF iter  15:  -784.18972192404021   -2.06910e-11   2.11376e-09 DIIS
   @RHF iter  16:  -784.18972192403749    2.72848e-12   1.12071e-09 DIIS
   @RHF iter  17:  -784.18972192403317    4.32010e-12   5.00189e-10 DIIS
   @RHF iter  18:  -784.18972192404010   -6.93490e-12   2.14864e-10 DIIS
   @RHF iter  19:  -784.18972192403749    2.61480e-12   1.06892e-10 DIIS
   @RHF iter  20:  -784.18972192403396    3.52429e-12   3.33466e-11 DIIS
  Energy and wave function converged.

  ==> Post-Iterations <==

    Orbital Energies [Eh]
    ---------------------

    Doubly Occupied:

       1A    -20.573997     2A    -15.601311     3A    -11.291958
       4A    -11.265417     5A    -11.264853     6A    -11.234310
       7A    -11.232342     8A    -11.230879     9A    -11.230742
      10A    -11.230584    11A    -11.229954    12A    -11.227455
      13A    -11.225161    14A    -11.223071    15A    -11.223011
      16A    -11.220611    17A    -11.219606    18A    -11.216364
      19A    -11.215279    20A     -1.383657    21A     -1.294804
      22A     -1.137780    23A     -1.126325    24A     -1.072568
      25A     -1.048336    26A     -1.002804    27A     -0.997970
      28A     -0.986639    29A     -0.966487    30A     -0.931616
      31A     -0.852092    32A     -0.839859    33A     -0.830817
      34A     -0.804134    35A     -0.779871    36A     -0.752282
      37A     -0.719958    38A     -0.718701    39A     -0.664600
      40A     -0.655078    41A     -0.641916    42A     -0.639121
      43A     -0.607096    44A     -0.603910    45A     -0.592854
      46A     -0.591300    47A     -0.589143    48A     -0.575512
      49A     -0.570355    50A     -0.569229    51A     -0.555262
      52A     -0.552533    53A     -0.539455    54A     -0.534642
      55A     -0.530461    56A     -0.510576    57A     -0.497697
      58A     -0.488778    59A     -0.472979    60A     -0.470437
      61A     -0.465047    62A     -0.461266    63A     -0.447427
      64A     -0.372220    65A     -0.323953    66A     -0.296272
      67A     -0.291543    68A     -0.275140

    Virtual:

      69A      0.121679    70A      0.136994    71A      0.161265
      72A      0.163963    73A      0.175143    74A      0.180087
      75A      0.182477    76A      0.199746    77A      0.202906
      78A      0.217523    79A      0.219361    80A      0.227284
      81A      0.233554    82A      0.248158    83A      0.253136
      84A      0.258964    85A      0.262359    86A      0.269054
      87A      0.279261    88A      0.284413    89A      0.289747
      90A      0.308891    91A      0.321819    92A      0.350246
      93A      0.357079    94A      0.375302    95A      0.383901
      96A      0.391820    97A      0.409332    98A      0.415486
      99A      0.424041   100A      0.434616   101A      0.444367
     102A      0.465690   103A      0.474883   104A      0.481403
     105A      0.486273   106A      0.498358   107A      0.506649
     108A      0.507702   109A      0.534389   110A      0.584738
     111A      0.598087   112A      0.605124   113A      0.609437
     114A      0.621492   115A      0.635497   116A      0.643637
     117A      0.651754   118A      0.658971   119A      0.665371
     120A      0.670386   121A      0.689425   122A      0.696399
     123A      0.710155   124A      0.712385   125A      0.717878
     126A      0.723293   127A      0.726765   128A      0.730037
     129A      0.737531   130A      0.743088   131A      0.754416
     132A      0.757310   133A      0.763308   134A      0.764159
     135A      0.772573   136A      0.775372   137A      0.781160
     138A      0.789329   139A      0.797741   140A      0.803757
     141A      0.822014   142A      0.834291   143A      0.839505
     144A      0.853531   145A      0.865458   146A      0.868713
     147A      0.873405   148A      0.878609   149A      0.881307
     150A      0.884344   151A      0.896113   152A      0.899059
     153A      0.901877   154A      0.907027   155A      0.914026
     156A      0.919619   157A      0.931851   158A      0.935344
     159A      0.938713   160A      0.943163   161A      0.944743
     162A      0.957973   163A      0.965614   164A      0.975132
     165A      0.980993   166A      0.985802   167A      0.995272
     168A      1.007619   169A      1.013252   170A      1.028839
     171A      1.033131   172A      1.045327   173A      1.061564
     174A      1.069669   175A      1.077736   176A      1.091626
     177A      1.111493   178A      1.121424   179A      1.131041
     180A      1.135515   181A      1.145786   182A      1.150248
     183A      1.157892   184A      1.168836   185A      1.176063
     186A      1.184985   187A      1.205818   188A      1.222374
     189A      1.226880   190A      1.231590   191A      1.234029
     192A      1.239495   193A      1.251211   194A      1.261558
     195A      1.268500   196A      1.274660   197A      1.290527
     198A      1.295227   199A      1.299109   200A      1.309995
     201A      1.316992   202A      1.322310   203A      1.333623
     204A      1.336637   205A      1.358944   206A      1.359220
     207A      1.365104   208A      1.386982   209A      1.404961
     210A      1.410755   211A      1.427712   212A      1.444577
     213A      1.456850   214A      1.493272   215A      1.509926
     216A      1.527007   217A      1.556273   218A      1.574173
     219A      1.577698   220A      1.604088   221A      1.611343
     222A      1.626714   223A      1.630742   224A      1.635913
     225A      1.648454   226A      1.655839   227A      1.685115
     228A      1.690773   229A      1.698046   230A      1.715050
     231A      1.735327   232A      1.742183   233A      1.751178
     234A      1.766406   235A      1.778934   236A      1.789762
     237A      1.793203   238A      1.806301   239A      1.818255
     240A      1.824235   241A      1.841042   242A      1.853358
     243A      1.877385   244A      1.878230   245A      1.884541
     246A      1.887771   247A      1.896605   248A      1.898446
     249A      1.906220   250A      1.911347   251A      1.914696
     252A      1.915221   253A      1.922621   254A      1.927300
     255A      1.934009   256A      1.948479   257A      1.950973
     258A      1.957003   259A      1.961267   260A      1.968685
     261A      1.974815   262A      1.986356   263A      1.998947
     264A      2.003428   265A      2.010232   266A      2.015955
     267A      2.022936   268A      2.028980   269A      2.041359
     270A      2.049572   271A      2.054837   272A      2.063747
     273A      2.071661   274A      2.079854   275A      2.087745
     276A      2.096446   277A      2.101744   278A      2.104850
     279A      2.116079   280A      2.121314   281A      2.122282
     282A      2.143751   283A      2.147282   284A      2.156226
     285A      2.158483   286A      2.168118   287A      2.180075
     288A      2.183178   289A      2.205203   290A      2.216204
     291A      2.236439   292A      2.248242   293A      2.264793
     294A      2.277719   295A      2.295497   296A      2.303954
     297A      2.316548   298A      2.321368   299A      2.326665
     300A      2.339098   301A      2.352049   302A      2.358898
     303A      2.376588   304A      2.403999   305A      2.430736
     306A      2.445527   307A      2.453480   308A      2.461046
     309A      2.471545   310A      2.480610   311A      2.496786
     312A      2.516363   313A      2.538752   314A      2.540706
     315A      2.553064   316A      2.578310   317A      2.581898
     318A      2.601433   319A      2.638122   320A      2.640009
     321A      2.656861   322A      2.664207   323A      2.682531
     324A      2.698330   325A      2.759446   326A      2.768728
     327A      2.776589   328A      2.785720   329A      2.789235
     330A      2.795899   331A      2.807398   332A      2.817742
     333A      2.825469   334A      2.862793   335A      2.868994
     336A      2.875712   337A      2.879819   338A      2.897966
     339A      2.933714   340A      2.955549   341A      2.974438
     342A      3.007771   343A      3.018219   344A      3.043903
     345A      3.057817   346A      3.067783   347A      3.087968
     348A      3.117835   349A      3.185984   350A      3.196450
     351A      3.249369   352A      3.283247   353A      3.298839
     354A      3.347491   355A      3.379863   356A      3.565043
     357A      3.661531   358A      3.743375   359A      3.932571
     360A      3.964300   361A      4.190585

    Final Occupation by Irrep:
              A
    DOCC [    68 ]

  @RHF Final Energy:  -784.18972192403396

   => Energetics <=

    Nuclear Repulsion Energy =           1374.2409697488378697
    One-Electron Energy =               -3795.2825826293378668
    Two-Electron Energy =                1636.8518909564659225
    Total Energy =                       -784.1897219240340746

Computation Completed

Properties will be evaluated at   0.000000,   0.000000,   0.000000 [a0]

Properties computed using the SCF density matrix

  Nuclear Dipole Moment: [e a0]
     X:   -10.0196      Y:     6.7624      Z:     6.0120

  Electronic Dipole Moment: [e a0]
     X:    10.1089      Y:    -6.0430      Z:    -6.3830

  Dipole Moment: [e a0]
     X:     0.0894      Y:     0.7195      Z:    -0.3710     Total:     0.8144

  Dipole Moment: [D]
     X:     0.2271      Y:     1.8287      Z:    -0.9429     Total:     2.0699

*** tstop() called on ds3 at Mon Apr 27 21:15:43 2020
Module time:
	user time   =     694.69 seconds =      11.58 minutes
	system time =     728.13 seconds =      12.14 minutes
	total time  =      15750 seconds =     262.50 minutes
Total time:
	user time   =     694.69 seconds =      11.58 minutes
	system time =     728.13 seconds =      12.14 minutes
	total time  =      15750 seconds =     262.50 minutes
                                     G D M A

                                 by Anthony Stone

                           version 2.2.06, 22 June 2011

               Distributed Multipoles from Gaussian wavefunctions

Starting at 21:15:43 on 27 Apr 2020

Using SCF density matrix from file ./SSI/SSI-019TYR-050TRP-1-dimer.test.28421.fchk

                         Distributed Multipole Analysis

Standard DMA

Positions and radii in angstrom
Multipole moments in atomic units, ea_0^k for rank k

C          x = -1.017204  y =  0.886156  z =  2.010731 angstrom
           Maximum rank =  0   Radius =  0.650 angstrom
                   Q00  =  -0.022228

C          x = -1.879204  y =  0.928156  z =  3.278731 angstrom
           Maximum rank =  0   Radius =  0.650 angstrom
                   Q00  =  -0.242222

C          x = -0.226204  y = -0.383844  z =  1.873731 angstrom
           Maximum rank =  0   Radius =  0.650 angstrom
                   Q00  =  -0.129236

C          x = -0.623204  y = -1.387844  z =  0.986731 angstrom
           Maximum rank =  0   Radius =  0.650 angstrom
                   Q00  =  -0.022445

C          x =  0.936796  y = -0.553844  z =  2.628731 angstrom
           Maximum rank =  0   Radius =  0.650 angstrom
                   Q00  =  -0.070277

C          x =  0.138796  y = -2.577844  z =  0.847731 angstrom
           Maximum rank =  0   Radius =  0.650 angstrom
                   Q00  =  -0.191757

C          x =  1.698796  y = -1.722844  z =  2.491731 angstrom
           Maximum rank =  0   Radius =  0.650 angstrom
                   Q00  =  -0.016986

C          x =  1.304796  y = -2.726844  z =  1.613731 angstrom
           Maximum rank =  0   Radius =  0.650 angstrom
                   Q00  =   0.328967

O          x =  2.059796  y = -3.875844  z =  1.502731 angstrom
           Maximum rank =  0   Radius =  0.650 angstrom
                   Q00  =  -0.684883

H          x = -1.666204  y =  0.996156  z =  1.142731 angstrom
           Maximum rank =  0   Radius =  0.325 angstrom
                   Q00  =   0.063714

H          x = -0.326204  y =  1.730156  z =  2.015731 angstrom
           Maximum rank =  0   Radius =  0.325 angstrom
                   Q00  =   0.063801

H          x = -1.207204  y =  0.866156  z =  4.131731 angstrom
           Maximum rank =  0   Radius =  0.325 angstrom
                   Q00  =   0.078399

H          x = -1.514204  y = -1.250844  z =  0.389731 angstrom
           Maximum rank =  0   Radius =  0.325 angstrom
                   Q00  =   0.071268

H          x =  1.261796  y =  0.223156  z =  3.305731 angstrom
           Maximum rank =  0   Radius =  0.325 angstrom
                   Q00  =   0.060137

H          x = -0.165204  y = -3.342844  z =  0.148731 angstrom
           Maximum rank =  0   Radius =  0.325 angstrom
                   Q00  =   0.072042

H          x =  2.602796  y = -1.851844  z =  3.069731 angstrom
           Maximum rank =  0   Radius =  0.325 angstrom
                   Q00  =   0.076521

H          x =  1.707796  y = -4.479844  z =  0.839731 angstrom
           Maximum rank =  0   Radius =  0.325 angstrom
                   Q00  =   0.404902

H          x = -2.581284  y =  0.081756  z =  3.305040 angstrom
           Maximum rank =  0   Radius =  0.325 angstrom
                   Q00  =   0.083668

H          x = -2.402694  y =  1.894656  z =  3.321509 angstrom
           Maximum rank =  0   Radius =  0.325 angstrom
                   Q00  =   0.075605

C          x = -2.631204  y =  2.845156  z = -1.046269 angstrom
           Maximum rank =  0   Radius =  0.650 angstrom
                   Q00  =  -0.198381

C          x = -1.197204  y =  2.448156  z = -1.288269 angstrom
           Maximum rank =  0   Radius =  0.650 angstrom
                   Q00  =  -0.130602

C          x = -0.105204  y =  3.245156  z = -1.115269 angstrom
           Maximum rank =  0   Radius =  0.650 angstrom
                   Q00  =   0.076285

C          x = -0.713204  y =  1.172156  z = -1.754269 angstrom
           Maximum rank =  0   Radius =  0.650 angstrom
                   Q00  =  -0.052311

C          x =  0.704796  y =  1.271156  z = -1.827269 angstrom
           Maximum rank =  0   Radius =  0.650 angstrom
                   Q00  =   0.274929

C          x = -1.328204  y = -0.034844  z = -2.131269 angstrom
           Maximum rank =  0   Radius =  0.650 angstrom
                   Q00  =  -0.101943

C          x =  1.515796  y =  0.224156  z = -2.248269 angstrom
           Maximum rank =  0   Radius =  0.650 angstrom
                   Q00  =  -0.109879

C          x = -0.520204  y = -1.086844  z = -2.573269 angstrom
           Maximum rank =  0   Radius =  0.650 angstrom
                   Q00  =  -0.102114

C          x =  0.888796  y = -0.952844  z = -2.619269 angstrom
           Maximum rank =  0   Radius =  0.650 angstrom
                   Q00  =  -0.037476

N          x =  1.032796  y =  2.541156  z = -1.430269 angstrom
           Maximum rank =  0   Radius =  0.650 angstrom
                   Q00  =  -0.497899

H          x = -2.667204  y =  3.798156  z = -0.519269 angstrom
           Maximum rank =  0   Radius =  0.325 angstrom
                   Q00  =   0.104837

H          x = -3.096204  y =  2.086156  z = -0.416269 angstrom
           Maximum rank =  0   Radius =  0.325 angstrom
                   Q00  =   0.090490

H          x = -0.137204  y =  4.279156  z = -0.783269 angstrom
           Maximum rank =  0   Radius =  0.325 angstrom
                   Q00  =   0.101839

H          x =  1.968796  y =  2.928156  z = -1.389269 angstrom
           Maximum rank =  0   Radius =  0.325 angstrom
                   Q00  =   0.215466

H          x = -2.399204  y = -0.142844  z = -2.072269 angstrom
           Maximum rank =  0   Radius =  0.325 angstrom
                   Q00  =   0.069547

H          x =  2.591796  y =  0.326156  z = -2.279269 angstrom
           Maximum rank =  0   Radius =  0.325 angstrom
                   Q00  =   0.077162

H          x = -0.971204  y = -2.024844  z = -2.863269 angstrom
           Maximum rank =  0   Radius =  0.325 angstrom
                   Q00  =   0.058131

H          x =  1.486796  y = -1.791844  z = -2.950269 angstrom
           Maximum rank =  0   Radius =  0.325 angstrom
                   Q00  =   0.064612

H          x = -3.180994  y =  2.916306  z = -1.996359 angstrom
           Maximum rank =  0   Radius =  0.325 angstrom
                   Q00  =   0.098317

Total multipoles referred to origin at
           x =   0.000000,  y =    0.000000,  z =    0.000000 angstrom
                   Q00  =  -0.000000

Finished at 21:15:43 on 27 Apr 2020

  DMA results are available in the Python driver through the
	  variable('DMA DISTRIBUTED MULTIPOLES')
  and
	  variable('DMA TOTAL MULTIPOLES')
  commands.

    Psi4 stopped on: Monday, 27 April 2020 09:15PM
    Psi4 wall time for execution: 4:22:30.29

*** Psi4 exiting successfully. Buy a developer a beer!
