                               Psi4 1.3.2 release

  ==> Input File <==

--------------------------------------------------------------------------
import numpy as np
set {scf_type pk
basis cc-pvdz
d_convergence 10
gdma_switch   0
gdma_limit    0
gdma_origin   [ 0.0,  0.0,  0.0 ]
}
molecule test {
    units Angstrom
    0 1
    --
    0 1
    C               -2.228048839756735     1.065770561030247    -2.917485674771377
    C               -1.309048839756735     0.107770561030247    -3.723485674771376
    H               -3.188048839756735     0.585770561030247    -2.718485674771377
    H               -1.776048839756735     1.340770561030247    -1.968485674771377
    H               -2.403048839756735     1.977770561030247    -3.489485674771377
    H               -1.277048839756735    -0.844229438969753    -3.196485674771377
    H               -1.729672839756735    -0.082899438969753    -4.721845674771378
    H               -0.277500839756735     0.487780561030247    -3.762275674771377
    C                1.328951160243265     2.532770561030246     1.748514325228623
    C               -0.247048839756735    -0.341229438969753    -0.197485674771377
    C                0.125951160243265     0.955770561030247     0.192514325228623
    C                0.145951160243265    -1.444229438969753     0.533514325228623
    C                0.889951160243265     1.154770561030247     1.339514325228623
    C                0.864951160243265    -1.252229438969753     1.718514325228623
    C                1.231951160243265     0.032770561030247     2.111514325228623
    O               -0.282048839756735    -2.667229438969754     0.098514325228623
    H               -0.845048839756735    -0.487229438969753    -1.075485674771377
    H               -0.170048839756735     1.803770561030247    -0.408485674771377
    H               -0.829048839756735    -2.606229438969753    -0.687485674771377
    H                1.141951160243265    -2.110229438969753     2.308514325228623
    H                2.100951160243265     2.853770561030247     1.053514325228623
    H                1.795951160243265     2.450770561030247     2.721514325228623
    H                1.806951160243265     0.162770561030247     3.019514325228623
    H                0.558174160243265     3.317280561030246     1.769484325228623

}
e, wfn = energy('scf', return_wfn=True)
gdma(wfn)
dmavals = variable('DMA DISTRIBUTED MULTIPOLES')
charges = np.array(dmavals)
print(charges)
np.save('SSI-022VAL-079TYR-1-dimer.npy', np.array(charges))--------------------------------------------------------------------------

*** tstart() called on ds3
*** at Mon Apr 27 18:28:59 2020

   => Loading Basis Set <=

    Name: CC-PVDZ
    Role: ORBITAL
    Keyword: BASIS
    atoms 1-2, 9-15  entry C          line   138 file /theoryfs2/ds/metcalf/miniconda2/envs/tf2gpu/share/psi4/basis/cc-pvdz.gbs
    atoms 3-8, 17-24 entry H          line    22 file /theoryfs2/ds/metcalf/miniconda2/envs/tf2gpu/share/psi4/basis/cc-pvdz.gbs
    atoms 16         entry O          line   198 file /theoryfs2/ds/metcalf/miniconda2/envs/tf2gpu/share/psi4/basis/cc-pvdz.gbs

         ---------------------------------------------------------
                                   SCF
               by Justin Turney, Rob Parrish, Andy Simmonett
                          and Daniel G. A. Smith
                              RHF Reference
                        1 Threads,    500 MiB Core
         ---------------------------------------------------------

  ==> Geometry <==

    Molecular point group: c1
    Full point group: C1

    Geometry (in Angstrom), charge = 0, multiplicity = 1:

       Center              X                  Y                   Z               Mass
    ------------   -----------------  -----------------  -----------------  -----------------
         C           -2.228048839757     1.065770561030    -2.917485674771    12.000000000000
         C           -1.309048839757     0.107770561030    -3.723485674771    12.000000000000
         H           -3.188048839757     0.585770561030    -2.718485674771     1.007825032230
         H           -1.776048839757     1.340770561030    -1.968485674771     1.007825032230
         H           -2.403048839757     1.977770561030    -3.489485674771     1.007825032230
         H           -1.277048839757    -0.844229438970    -3.196485674771     1.007825032230
         H           -1.729672839757    -0.082899438970    -4.721845674771     1.007825032230
         H           -0.277500839757     0.487780561030    -3.762275674771     1.007825032230
         C            1.328951160243     2.532770561030     1.748514325229    12.000000000000
         C           -0.247048839757    -0.341229438970    -0.197485674771    12.000000000000
         C            0.125951160243     0.955770561030     0.192514325229    12.000000000000
         C            0.145951160243    -1.444229438970     0.533514325229    12.000000000000
         C            0.889951160243     1.154770561030     1.339514325229    12.000000000000
         C            0.864951160243    -1.252229438970     1.718514325229    12.000000000000
         C            1.231951160243     0.032770561030     2.111514325229    12.000000000000
         O           -0.282048839757    -2.667229438970     0.098514325229    15.994914619570
         H           -0.845048839757    -0.487229438970    -1.075485674771     1.007825032230
         H           -0.170048839757     1.803770561030    -0.408485674771     1.007825032230
         H           -0.829048839757    -2.606229438970    -0.687485674771     1.007825032230
         H            1.141951160243    -2.110229438970     2.308514325229     1.007825032230
         H            2.100951160243     2.853770561030     1.053514325229     1.007825032230
         H            1.795951160243     2.450770561030     2.721514325229     1.007825032230
         H            1.806951160243     0.162770561030     3.019514325229     1.007825032230
         H            0.558174160243     3.317280561030     1.769484325229     1.007825032230

  Running in c1 symmetry.

  Rotational constants: A =      0.04902  B =      0.02423  C =      0.01680 [cm^-1]
  Rotational constants: A =   1469.69242  B =    726.35600  C =    503.69873 [MHz]
  Nuclear repulsion =  494.721010046317872

  Charge       = 0
  Multiplicity = 1
  Electrons    = 76
  Nalpha       = 38
  Nbeta        = 38

  ==> Algorithm <==

  SCF Algorithm Type is PK.
  DIIS enabled.
  MOM disabled.
  Fractional occupation disabled.
  Guess Type is SAD.
  Energy threshold   = 1.00e-06
  Density threshold  = 1.00e-10
  Integral threshold = 0.00e+00

  ==> Primary Basis <==

  Basis Set: CC-PVDZ
    Blend: CC-PVDZ
    Number of shells: 102
    Number of basis function: 210
    Number of Cartesian functions: 220
    Spherical Harmonics?: true
    Max angular momentum: 2

  ==> Pre-Iterations <==

   -------------------------------------------------------
    Irrep   Nso     Nmo     Nalpha   Nbeta   Ndocc  Nsocc
   -------------------------------------------------------
     A        210     210       0       0       0       0
   -------------------------------------------------------
    Total     210     210      38      38      38       0
   -------------------------------------------------------

  ==> Integral Setup <==

  Using integral reordering PK algorithm.
  Sizing the integral batches needed.
  Building batch lookup table.
   Calculation information:
      Number of atoms:                  24
      Number of AO shells:             102
      Number of primitives:            290
      Number of atomic orbitals:       220
      Number of basis functions:       210

      Integral cutoff                 1.00e-12
      Number of threads:                 1

	Batch   1 pq = [       0,    9405] index = [             0,44231715] size =     44231715
	Batch   2 pq = [    9405,   13301] index = [      44231715,88464951] size =     44233236
	Batch   3 pq = [   13301,   16290] index = [      88464951,132690195] size =     44225244
	Batch   4 pq = [   16290,   18810] index = [     132690195,176917455] size =     44227260
	Batch   5 pq = [   18810,   21030] index = [     176917455,221140965] size =     44223510
	Batch   6 pq = [   21030,   22155] index = [     221140965,245433090] size =     24292125
  Task number: 23
  Buffer size: 11059200
  Buffer per thread: 2
  We computed 11623835 shell quartets total.
  Whereas there are 13799631 unique shell quartets.

  ==> DiskJK: Disk-Based J/K Matrices <==

    J tasked:                  Yes
    K tasked:                  Yes
    wK tasked:                  No
    Memory [MiB]:              375
    Schwarz Cutoff:          1E-12

    OpenMP threads:              1

  Minimum eigenvalue in the overlap matrix is 3.2537588338E-04.
  Using Symmetric Orthogonalization.

  SCF Guess: Superposition of Atomic Densities via on-the-fly atomic UHF.

  ==> Iterations <==

                        Total Energy        Delta E     RMS |[F,P]|

   @RHF iter SAD:  -422.68517278562564   -4.22685e+02   0.00000e+00
   @RHF iter   1:  -423.59913133836051   -9.13959e-01   2.94632e-03 DIIS
   @RHF iter   2:  -423.81311246210640   -2.13981e-01   1.22323e-03 DIIS
   @RHF iter   3:  -423.84622165478578   -3.31092e-02   2.83195e-04 DIIS
   @RHF iter   4:  -423.84907267900263   -2.85102e-03   1.16322e-04 DIIS
   @RHF iter   5:  -423.84941961934521   -3.46940e-04   2.05892e-05 DIIS
   @RHF iter   6:  -423.84943679495990   -1.71756e-05   6.24936e-06 DIIS
   @RHF iter   7:  -423.84943833511886   -1.54016e-06   2.01550e-06 DIIS
   @RHF iter   8:  -423.84943853819277   -2.03074e-07   7.29370e-07 DIIS
   @RHF iter   9:  -423.84943856641502   -2.82222e-08   2.58879e-07 DIIS
   @RHF iter  10:  -423.84943857055760   -4.14258e-09   9.57836e-08 DIIS
   @RHF iter  11:  -423.84943857159016   -1.03256e-09   4.49204e-08 DIIS
   @RHF iter  12:  -423.84943857182975   -2.39595e-10   2.40856e-08 DIIS
   @RHF iter  13:  -423.84943857189131   -6.15614e-11   8.06074e-09 DIIS
   @RHF iter  14:  -423.84943857189978   -8.46967e-12   2.01837e-09 DIIS
   @RHF iter  15:  -423.84943857189967    1.13687e-13   7.14797e-10 DIIS
   @RHF iter  16:  -423.84943857189990   -2.27374e-13   2.47959e-10 DIIS
   @RHF iter  17:  -423.84943857190058   -6.82121e-13   1.06799e-10 DIIS
   @RHF iter  18:  -423.84943857190001    5.68434e-13   5.60896e-11 DIIS
  Energy and wave function converged.

  ==> Post-Iterations <==

    Orbital Energies [Eh]
    ---------------------

    Doubly Occupied:

       1A    -20.580809     2A    -11.298280     3A    -11.239945
       4A    -11.238543     5A    -11.235069     6A    -11.233017
       7A    -11.230624     8A    -11.229225     9A    -11.227161
      10A    -11.226456    11A     -1.397522    12A     -1.149036
      13A     -1.038870    14A     -1.022878    15A     -1.014144
      16A     -0.927956    17A     -0.849053    18A     -0.844237
      19A     -0.802422    20A     -0.732139    21A     -0.668056
      22A     -0.645813    23A     -0.611617    24A     -0.609223
      25A     -0.601817    26A     -0.584585    27A     -0.578384
      28A     -0.568122    29A     -0.564033    30A     -0.530821
      31A     -0.505100    32A     -0.500154    33A     -0.498729
      34A     -0.492725    35A     -0.482794    36A     -0.465104
      37A     -0.336487    38A     -0.301880

    Virtual:

      39A      0.129747    40A      0.154939    41A      0.157920
      42A      0.181259    43A      0.199050    44A      0.215515
      45A      0.231302    46A      0.236426    47A      0.252535
      48A      0.262222    49A      0.269660    50A      0.275906
      51A      0.291533    52A      0.298268    53A      0.323884
      54A      0.334513    55A      0.368806    56A      0.382825
      57A      0.403589    58A      0.431954    59A      0.460320
      60A      0.494020    61A      0.508497    62A      0.523776
      63A      0.591350    64A      0.600445    65A      0.616846
      66A      0.625027    67A      0.627765    68A      0.652835
      69A      0.664958    70A      0.668327    71A      0.687534
      72A      0.699153    73A      0.716498    74A      0.726759
      75A      0.734515    76A      0.747472    77A      0.768711
      78A      0.772860    79A      0.780471    80A      0.794831
      81A      0.815495    82A      0.828828    83A      0.835099
      84A      0.844566    85A      0.858107    86A      0.879679
      87A      0.885835    88A      0.890510    89A      0.894144
      90A      0.897285    91A      0.903614    92A      0.914057
      93A      0.934342    94A      0.939979    95A      0.949564
      96A      0.955354    97A      0.966932    98A      0.982667
      99A      1.001604   100A      1.033953   101A      1.068695
     102A      1.078918   103A      1.110301   104A      1.121849
     105A      1.140157   106A      1.144145   107A      1.148495
     108A      1.202443   109A      1.213507   110A      1.246177
     111A      1.259057   112A      1.271210   113A      1.285858
     114A      1.293286   115A      1.308570   116A      1.314100
     117A      1.330137   118A      1.363637   119A      1.390456
     120A      1.403630   121A      1.453423   122A      1.472745
     123A      1.491768   124A      1.513149   125A      1.543293
     126A      1.560370   127A      1.579180   128A      1.628391
     129A      1.632955   130A      1.679584   131A      1.686848
     132A      1.700022   133A      1.701654   134A      1.727085
     135A      1.746423   136A      1.781706   137A      1.798792
     138A      1.809931   139A      1.852441   140A      1.855212
     141A      1.869905   142A      1.882559   143A      1.896181
     144A      1.898070   145A      1.904644   146A      1.920025
     147A      1.925215   148A      1.935018   149A      1.937005
     150A      1.949006   151A      1.951165   152A      1.966450
     153A      1.969685   154A      1.980250   155A      1.985314
     156A      1.992755   157A      2.037747   158A      2.043799
     159A      2.060438   160A      2.074627   161A      2.083937
     162A      2.097834   163A      2.114447   164A      2.131600
     165A      2.163801   166A      2.200574   167A      2.219931
     168A      2.236375   169A      2.263761   170A      2.277500
     171A      2.294123   172A      2.319287   173A      2.325883
     174A      2.364050   175A      2.369761   176A      2.395358
     177A      2.432356   178A      2.451831   179A      2.479393
     180A      2.489845   181A      2.495072   182A      2.533235
     183A      2.542571   184A      2.562634   185A      2.577031
     186A      2.614218   187A      2.658454   188A      2.741507
     189A      2.757524   190A      2.777206   191A      2.789730
     192A      2.801360   193A      2.820026   194A      2.844182
     195A      2.854081   196A      2.884196   197A      2.894579
     198A      2.932760   199A      2.959015   200A      2.978428
     201A      3.018038   202A      3.083370   203A      3.134632
     204A      3.252459   205A      3.297721   206A      3.349055
     207A      3.578341   208A      3.647312   209A      3.996928
     210A      4.185746

    Final Occupation by Irrep:
              A
    DOCC [    38 ]

  @RHF Final Energy:  -423.84943857190001

   => Energetics <=

    Nuclear Repulsion Energy =            494.7210100463178719
    One-Electron Energy =               -1555.0152334933509337
    Two-Electron Energy =                 636.4447848751331094
    Total Energy =                       -423.8494385719000093

Computation Completed

Properties will be evaluated at   0.000000,   0.000000,   0.000000 [a0]

Properties computed using the SCF density matrix

  Nuclear Dipole Moment: [e a0]
     X:    -4.7745      Y:     8.2834      Z:   -10.4579

  Electronic Dipole Moment: [e a0]
     X:     4.5766      Y:    -7.8352      Z:    10.0826

  Dipole Moment: [e a0]
     X:    -0.1979      Y:     0.4483      Z:    -0.3753     Total:     0.6172

  Dipole Moment: [D]
     X:    -0.5030      Y:     1.1395      Z:    -0.9539     Total:     1.5689

*** tstop() called on ds3 at Mon Apr 27 18:30:57 2020
Module time:
	user time   =      84.23 seconds =       1.40 minutes
	system time =      38.84 seconds =       0.65 minutes
	total time  =        118 seconds =       1.97 minutes
Total time:
	user time   =      84.23 seconds =       1.40 minutes
	system time =      38.84 seconds =       0.65 minutes
	total time  =        118 seconds =       1.97 minutes
                                     G D M A

                                 by Anthony Stone

                           version 2.2.06, 22 June 2011

               Distributed Multipoles from Gaussian wavefunctions

Starting at 18:30:57 on 27 Apr 2020

Using SCF density matrix from file ./SSI/SSI-022VAL-079TYR-1-dimer.test.23191.fchk

                         Distributed Multipole Analysis

Standard DMA

Positions and radii in angstrom
Multipole moments in atomic units, ea_0^k for rank k

C          x = -2.228049  y =  1.065771  z = -2.917486 angstrom
           Maximum rank =  0   Radius =  0.650 angstrom
                   Q00  =  -0.256562

C          x = -1.309049  y =  0.107771  z = -3.723486 angstrom
           Maximum rank =  0   Radius =  0.650 angstrom
                   Q00  =  -0.230906

H          x = -3.188049  y =  0.585771  z = -2.718486 angstrom
           Maximum rank =  0   Radius =  0.325 angstrom
                   Q00  =   0.081872

H          x = -1.776049  y =  1.340771  z = -1.968486 angstrom
           Maximum rank =  0   Radius =  0.325 angstrom
                   Q00  =   0.081393

H          x = -2.403049  y =  1.977771  z = -3.489486 angstrom
           Maximum rank =  0   Radius =  0.325 angstrom
                   Q00  =   0.086162

H          x = -1.277049  y = -0.844229  z = -3.196486 angstrom
           Maximum rank =  0   Radius =  0.325 angstrom
                   Q00  =   0.061497

H          x = -1.729673  y = -0.082899  z = -4.721846 angstrom
           Maximum rank =  0   Radius =  0.325 angstrom
                   Q00  =   0.089800

H          x = -0.277501  y =  0.487781  z = -3.762276 angstrom
           Maximum rank =  0   Radius =  0.325 angstrom
                   Q00  =   0.088435

C          x =  1.328951  y =  2.532771  z =  1.748514 angstrom
           Maximum rank =  0   Radius =  0.650 angstrom
                   Q00  =  -0.209830

C          x = -0.247049  y = -0.341229  z = -0.197486 angstrom
           Maximum rank =  0   Radius =  0.650 angstrom
                   Q00  =  -0.098471

C          x =  0.125951  y =  0.955771  z =  0.192514 angstrom
           Maximum rank =  0   Radius =  0.650 angstrom
                   Q00  =  -0.060565

C          x =  0.145951  y = -1.444229  z =  0.533514 angstrom
           Maximum rank =  0   Radius =  0.650 angstrom
                   Q00  =   0.275516

C          x =  0.889951  y =  1.154771  z =  1.339514 angstrom
           Maximum rank =  0   Radius =  0.650 angstrom
                   Q00  =  -0.120113

C          x =  0.864951  y = -1.252229  z =  1.718514 angstrom
           Maximum rank =  0   Radius =  0.650 angstrom
                   Q00  =  -0.120643

C          x =  1.231951  y =  0.032771  z =  2.111514 angstrom
           Maximum rank =  0   Radius =  0.650 angstrom
                   Q00  =   0.008091

O          x = -0.282049  y = -2.667229  z =  0.098514 angstrom
           Maximum rank =  0   Radius =  0.650 angstrom
                   Q00  =  -0.659159

H          x = -0.845049  y = -0.487229  z = -1.075486 angstrom
           Maximum rank =  0   Radius =  0.325 angstrom
                   Q00  =   0.065858

H          x = -0.170049  y =  1.803771  z = -0.408486 angstrom
           Maximum rank =  0   Radius =  0.325 angstrom
                   Q00  =   0.064585

H          x = -0.829049  y = -2.606229  z = -0.687486 angstrom
           Maximum rank =  0   Radius =  0.325 angstrom
                   Q00  =   0.409306

H          x =  1.141951  y = -2.110229  z =  2.308514 angstrom
           Maximum rank =  0   Radius =  0.325 angstrom
                   Q00  =   0.081847

H          x =  2.100951  y =  2.853771  z =  1.053514 angstrom
           Maximum rank =  0   Radius =  0.325 angstrom
                   Q00  =   0.098241

H          x =  1.795951  y =  2.450771  z =  2.721514 angstrom
           Maximum rank =  0   Radius =  0.325 angstrom
                   Q00  =   0.096802

H          x =  1.806951  y =  0.162771  z =  3.019514 angstrom
           Maximum rank =  0   Radius =  0.325 angstrom
                   Q00  =   0.066617

H          x =  0.558174  y =  3.317281  z =  1.769484 angstrom
           Maximum rank =  0   Radius =  0.325 angstrom
                   Q00  =   0.100226

Total multipoles referred to origin at
           x =   0.000000,  y =    0.000000,  z =    0.000000 angstrom
                   Q00  =  -0.000000

Finished at 18:30:57 on 27 Apr 2020

  DMA results are available in the Python driver through the
	  variable('DMA DISTRIBUTED MULTIPOLES')
  and
	  variable('DMA TOTAL MULTIPOLES')
  commands.

    Psi4 stopped on: Monday, 27 April 2020 06:30PM
    Psi4 wall time for execution: 0:01:58.94

*** Psi4 exiting successfully. Buy a developer a beer!
