                               Psi4 1.3.2 release

  ==> Input File <==

--------------------------------------------------------------------------
import numpy as np
set {scf_type pk
basis cc-pvdz
d_convergence 10
gdma_switch   0
gdma_limit    0
gdma_origin   [ 0.0,  0.0,  0.0 ]
}
molecule test {
    units Angstrom
    1 1
    --
    1 1
    C               -1.936292105087871     0.397977131352162     0.534372942833315
    C               -3.071292105087871     0.889977131352162     1.427372942833315
    C               -0.710292105087871    -0.016022868647838     1.307372942833315
    C                0.229707894912129     0.927977131352162     1.701372942833315
    C               -0.511292105087871    -1.347022868647837     1.655372942833315
    C                1.352707894912129     0.544977131352162     2.426372942833315
    C                0.605707894912129    -1.737022868647837     2.379372942833315
    C                1.541707894912129    -0.789022868647838     2.767372942833314
    H               -2.292292105087871    -0.450022868647838    -0.052627057166685
    H               -1.664292105087871     1.190977131352162    -0.164627057166685
    H               -2.737292105087871     1.816977131352163     1.897372942833315
    H                0.087707894912129     1.969977131352163     1.449372942833315
    H               -1.153292105087871    -2.096022868647838     1.272372942833315
    H                2.076707894912129     1.285977131352162     2.733372942833314
    H                0.756707894912129    -2.780022868647837     2.618372942833314
    H                2.416707894912129    -1.085022868647838     3.331372942833315
    H               -3.266973105087871     0.151077131352162     2.218402942833314
    H               -3.975652105087871     1.130467131352163     0.849182942833315
    C                1.494707894912129     1.835977131352162    -2.999627057166685
    C                0.315707894912129    -0.246022868647838    -2.406627057166685
    N                1.365707894912129     0.552977131352162    -2.306627057166685
    N               -0.717292105087871     0.083977131352162    -3.141627057166685
    N                0.294707894912129    -1.388022868647837    -1.754627057166685
    H                2.112707894912129     0.280977131352162    -1.685627057166685
    H               -0.818292105087871     1.045977131352162    -3.454627057166685
    H               -1.522292105087871    -0.508022868647838    -3.207627057166686
    H                1.028707894912129    -1.610022868647838    -1.100627057166685
    H               -0.536292105087871    -1.959022868647837    -1.767627057166685
    H                1.600707894912129     2.638977131352163    -2.267627057166686
    H                0.623707894912129     2.062977131352163    -3.606627057166685
    H                2.361780894912129     1.851177131352163    -3.676349057166686

}
e, wfn = energy('scf', return_wfn=True)
gdma(wfn)
dmavals = variable('DMA DISTRIBUTED MULTIPOLES')
charges = np.array(dmavals)
print(charges)
np.save('SSI-129PHE-156ARG-1-dimer.npy', np.array(charges))--------------------------------------------------------------------------

*** tstart() called on ds3
*** at Sun Apr 26 22:00:07 2020

   => Loading Basis Set <=

    Name: CC-PVDZ
    Role: ORBITAL
    Keyword: BASIS
    atoms 1-8, 19-20  entry C          line   138 file /theoryfs2/ds/metcalf/miniconda2/envs/tf2gpu/share/psi4/basis/cc-pvdz.gbs
    atoms 9-18, 24-31 entry H          line    22 file /theoryfs2/ds/metcalf/miniconda2/envs/tf2gpu/share/psi4/basis/cc-pvdz.gbs
    atoms 21-23       entry N          line   168 file /theoryfs2/ds/metcalf/miniconda2/envs/tf2gpu/share/psi4/basis/cc-pvdz.gbs

         ---------------------------------------------------------
                                   SCF
               by Justin Turney, Rob Parrish, Andy Simmonett
                          and Daniel G. A. Smith
                              RHF Reference
                        1 Threads,    500 MiB Core
         ---------------------------------------------------------

  ==> Geometry <==

    Molecular point group: c1
    Full point group: C1

    Geometry (in Angstrom), charge = 1, multiplicity = 1:

       Center              X                  Y                   Z               Mass
    ------------   -----------------  -----------------  -----------------  -----------------
         C           -1.936292105088     0.397977131352     0.534372942833    12.000000000000
         C           -3.071292105088     0.889977131352     1.427372942833    12.000000000000
         C           -0.710292105088    -0.016022868648     1.307372942833    12.000000000000
         C            0.229707894912     0.927977131352     1.701372942833    12.000000000000
         C           -0.511292105088    -1.347022868648     1.655372942833    12.000000000000
         C            1.352707894912     0.544977131352     2.426372942833    12.000000000000
         C            0.605707894912    -1.737022868648     2.379372942833    12.000000000000
         C            1.541707894912    -0.789022868648     2.767372942833    12.000000000000
         H           -2.292292105088    -0.450022868648    -0.052627057167     1.007825032230
         H           -1.664292105088     1.190977131352    -0.164627057167     1.007825032230
         H           -2.737292105088     1.816977131352     1.897372942833     1.007825032230
         H            0.087707894912     1.969977131352     1.449372942833     1.007825032230
         H           -1.153292105088    -2.096022868648     1.272372942833     1.007825032230
         H            2.076707894912     1.285977131352     2.733372942833     1.007825032230
         H            0.756707894912    -2.780022868648     2.618372942833     1.007825032230
         H            2.416707894912    -1.085022868648     3.331372942833     1.007825032230
         H           -3.266973105088     0.151077131352     2.218402942833     1.007825032230
         H           -3.975652105088     1.130467131352     0.849182942833     1.007825032230
         C            1.494707894912     1.835977131352    -2.999627057167    12.000000000000
         C            0.315707894912    -0.246022868648    -2.406627057167    12.000000000000
         N            1.365707894912     0.552977131352    -2.306627057167    14.003074004430
         N           -0.717292105088     0.083977131352    -3.141627057167    14.003074004430
         N            0.294707894912    -1.388022868648    -1.754627057167    14.003074004430
         H            2.112707894912     0.280977131352    -1.685627057167     1.007825032230
         H           -0.818292105088     1.045977131352    -3.454627057167     1.007825032230
         H           -1.522292105088    -0.508022868648    -3.207627057167     1.007825032230
         H            1.028707894912    -1.610022868648    -1.100627057167     1.007825032230
         H           -0.536292105088    -1.959022868648    -1.767627057167     1.007825032230
         H            1.600707894912     2.638977131352    -2.267627057167     1.007825032230
         H            0.623707894912     2.062977131352    -3.606627057167     1.007825032230
         H            2.361780894912     1.851177131352    -3.676349057167     1.007825032230

  Running in c1 symmetry.

  Rotational constants: A =      0.03115  B =      0.01539  C =      0.01337 [cm^-1]
  Rotational constants: A =    933.96672  B =    461.51073  C =    400.72670 [MHz]
  Nuclear repulsion =  794.875650612739491

  Charge       = 1
  Multiplicity = 1
  Electrons    = 98
  Nalpha       = 49
  Nbeta        = 49

  ==> Algorithm <==

  SCF Algorithm Type is PK.
  DIIS enabled.
  MOM disabled.
  Fractional occupation disabled.
  Guess Type is SAD.
  Energy threshold   = 1.00e-06
  Density threshold  = 1.00e-10
  Integral threshold = 0.00e+00

  ==> Primary Basis <==

  Basis Set: CC-PVDZ
    Blend: CC-PVDZ
    Number of shells: 132
    Number of basis function: 272
    Number of Cartesian functions: 285
    Spherical Harmonics?: true
    Max angular momentum: 2

  ==> Pre-Iterations <==

   -------------------------------------------------------
    Irrep   Nso     Nmo     Nalpha   Nbeta   Ndocc  Nsocc
   -------------------------------------------------------
     A        272     272       0       0       0       0
   -------------------------------------------------------
    Total     272     272      49      49      49       0
   -------------------------------------------------------

  ==> Integral Setup <==

  Using integral reordering PK algorithm.
  Sizing the integral batches needed.
  Building batch lookup table.
   Calculation information:
      Number of atoms:                  31
      Number of AO shells:             132
      Number of primitives:            376
      Number of atomic orbitals:       285
      Number of basis functions:       272

      Integral cutoff                 1.00e-12
      Number of threads:                 1

	Batch   1 pq = [       0,    9405] index = [             0,44231715] size =     44231715
	Batch   2 pq = [    9405,   13301] index = [      44231715,88464951] size =     44233236
	Batch   3 pq = [   13301,   16290] index = [      88464951,132690195] size =     44225244
	Batch   4 pq = [   16290,   18810] index = [     132690195,176917455] size =     44227260
	Batch   5 pq = [   18810,   21030] index = [     176917455,221140965] size =     44223510
	Batch   6 pq = [   21030,   23037] index = [     221140965,265363203] size =     44222238
	Batch   7 pq = [   23037,   24883] index = [     265363203,309594286] size =     44231083
	Batch   8 pq = [   24883,   26601] index = [     309594286,353819901] size =     44225615
	Batch   9 pq = [   26601,   28214] index = [     353819901,398029005] size =     44209104
	Batch  10 pq = [   28214,   29740] index = [     398029005,442248670] size =     44219665
	Batch  11 pq = [   29740,   31191] index = [     442248670,486454836] size =     44206166
	Batch  12 pq = [   31191,   32578] index = [     486454836,530679331] size =     44224495
	Batch  13 pq = [   32578,   33908] index = [     530679331,574893186] size =     44213855
	Batch  14 pq = [   33908,   35188] index = [     574893186,619115266] size =     44222080
	Batch  15 pq = [   35188,   36423] index = [     619115266,663335676] size =     44220410
	Batch  16 pq = [   36423,   37128] index = [     663335676,689262756] size =     25927080
  Task number: 63
  Buffer size: 11059200
  Buffer per thread: 2
  We computed 42254650 shell quartets total.
  Whereas there are 38531031 unique shell quartets.
     9.66 percent of shell quartets recomputed by reordering.

  ==> DiskJK: Disk-Based J/K Matrices <==

    J tasked:                  Yes
    K tasked:                  Yes
    wK tasked:                  No
    Memory [MiB]:              375
    Schwarz Cutoff:          1E-12

    OpenMP threads:              1

  Minimum eigenvalue in the overlap matrix is 3.0594833243E-04.
  Using Symmetric Orthogonalization.

  SCF Guess: Superposition of Atomic Densities via on-the-fly atomic UHF.

  ==> Iterations <==

                        Total Energy        Delta E     RMS |[F,P]|

   @RHF iter SAD:  -551.75599021488620   -5.51756e+02   0.00000e+00
   @RHF iter   1:  -552.08887805502991   -3.32888e-01   2.46988e-03 DIIS
   @RHF iter   2:  -552.34259992775242   -2.53722e-01   9.68868e-04 DIIS
   @RHF iter   3:  -552.37826515032225   -3.56652e-02   2.37264e-04 DIIS
   @RHF iter   4:  -552.38167501814576   -3.40987e-03   4.18533e-05 DIIS
   @RHF iter   5:  -552.38176938379274   -9.43656e-05   1.84515e-05 DIIS
   @RHF iter   6:  -552.38178585219521   -1.64684e-05   4.76182e-06 DIIS
   @RHF iter   7:  -552.38178728912681   -1.43693e-06   1.66194e-06 DIIS
   @RHF iter   8:  -552.38178748751579   -1.98389e-07   4.43715e-07 DIIS
   @RHF iter   9:  -552.38178750635564   -1.88398e-08   1.31375e-07 DIIS
   @RHF iter  10:  -552.38178750901886   -2.66323e-09   7.08374e-08 DIIS
   @RHF iter  11:  -552.38178750989948   -8.80618e-10   3.13996e-08 DIIS
   @RHF iter  12:  -552.38178751013288   -2.33399e-10   1.19297e-08 DIIS
   @RHF iter  13:  -552.38178751016051   -2.76259e-11   4.46501e-09 DIIS
   @RHF iter  14:  -552.38178751016130   -7.95808e-13   9.98537e-10 DIIS
   @RHF iter  15:  -552.38178751016005    1.25056e-12   3.72353e-10 DIIS
   @RHF iter  16:  -552.38178751015653    3.52429e-12   1.26307e-10 DIIS
   @RHF iter  17:  -552.38178751015903   -2.50111e-12   4.54466e-11 DIIS
  Energy and wave function converged.

  ==> Post-Iterations <==

    Orbital Energies [Eh]
    ---------------------

    Doubly Occupied:

       1A    -15.781162     2A    -15.780885     3A    -15.776129
       4A    -11.581376     5A    -11.437748     6A    -11.344965
       7A    -11.341203     8A    -11.338620     9A    -11.338386
      10A    -11.336180    11A    -11.334354    12A    -11.333019
      13A    -11.318641    14A     -1.542233    15A     -1.398277
      16A     -1.385363    17A     -1.263418    18A     -1.170133
      19A     -1.137475    20A     -1.119544    21A     -1.085905
      22A     -1.034755    23A     -0.974426    24A     -0.964109
      25A     -0.935470    26A     -0.931777    27A     -0.892815
      28A     -0.856122    29A     -0.848211    30A     -0.817225
      31A     -0.797294    32A     -0.790686    33A     -0.747579
      34A     -0.741036    35A     -0.737998    36A     -0.720994
      37A     -0.694944    38A     -0.691399    39A     -0.681410
      40A     -0.647963    41A     -0.618514    42A     -0.610804
      43A     -0.600459    44A     -0.587896    45A     -0.581608
      46A     -0.577631    47A     -0.574008    48A     -0.439709
      49A     -0.429115

    Virtual:

      50A     -0.007403    51A      0.021514    52A      0.028939
      53A      0.033869    54A      0.038669    55A      0.042741
      56A      0.070022    57A      0.074517    58A      0.094105
      59A      0.107735    60A      0.118163    61A      0.119844
      62A      0.128686    63A      0.137031    64A      0.151015
      65A      0.157044    66A      0.169435    67A      0.174257
      68A      0.185514    69A      0.200019    70A      0.209444
      71A      0.216197    72A      0.236957    73A      0.276000
      74A      0.283830    75A      0.314870    76A      0.332277
      77A      0.351586    78A      0.358688    79A      0.366723
      80A      0.380322    81A      0.394436    82A      0.427075
      83A      0.437530    84A      0.467098    85A      0.488109
      86A      0.496159    87A      0.509723    88A      0.518964
      89A      0.531332    90A      0.542212    91A      0.547897
      92A      0.562706    93A      0.571852    94A      0.590582
      95A      0.598934    96A      0.613250    97A      0.627249
      98A      0.630953    99A      0.640294   100A      0.644049
     101A      0.647314   102A      0.653854   103A      0.665362
     104A      0.675942   105A      0.690821   106A      0.694215
     107A      0.699056   108A      0.713093   109A      0.719131
     110A      0.749126   111A      0.751211   112A      0.756113
     113A      0.769008   114A      0.772014   115A      0.779957
     116A      0.791292   117A      0.797444   118A      0.798074
     119A      0.805176   120A      0.809120   121A      0.823514
     122A      0.832666   123A      0.841009   124A      0.849280
     125A      0.860684   126A      0.871122   127A      0.887633
     128A      0.898458   129A      0.901739   130A      0.918752
     131A      0.938719   132A      0.955635   133A      0.965906
     134A      0.980372   135A      1.010072   136A      1.024099
     137A      1.040320   138A      1.048725   139A      1.053855
     140A      1.066353   141A      1.079877   142A      1.114374
     143A      1.124323   144A      1.129281   145A      1.132914
     146A      1.146379   147A      1.149381   148A      1.167948
     149A      1.182370   150A      1.191742   151A      1.201178
     152A      1.210321   153A      1.222832   154A      1.244426
     155A      1.250900   156A      1.289712   157A      1.316431
     158A      1.328373   159A      1.337727   160A      1.370374
     161A      1.410494   162A      1.436598   163A      1.485627
     164A      1.506120   165A      1.511675   166A      1.514667
     167A      1.530574   168A      1.543377   169A      1.573708
     170A      1.578394   171A      1.584803   172A      1.612677
     173A      1.631057   174A      1.647417   175A      1.661453
     176A      1.665345   177A      1.686505   178A      1.703862
     179A      1.723171   180A      1.739295   181A      1.747591
     182A      1.750518   183A      1.754587   184A      1.762044
     185A      1.777650   186A      1.786711   187A      1.792783
     188A      1.793601   189A      1.802931   190A      1.810485
     191A      1.820048   192A      1.825028   193A      1.835856
     194A      1.840420   195A      1.845775   196A      1.860552
     197A      1.868271   198A      1.872449   199A      1.894789
     200A      1.900767   201A      1.907067   202A      1.912005
     203A      1.926012   204A      1.937566   205A      1.956959
     206A      1.974274   207A      1.980090   208A      2.014229
     209A      2.024327   210A      2.038057   211A      2.041333
     212A      2.049482   213A      2.065050   214A      2.067368
     215A      2.071854   216A      2.092099   217A      2.098610
     218A      2.142731   219A      2.146802   220A      2.159538
     221A      2.177776   222A      2.184035   223A      2.209952
     224A      2.220112   225A      2.237589   226A      2.244044
     227A      2.256737   228A      2.277493   229A      2.309842
     230A      2.330662   231A      2.344554   232A      2.370397
     233A      2.383755   234A      2.395496   235A      2.414213
     236A      2.420392   237A      2.437958   238A      2.445534
     239A      2.479140   240A      2.493089   241A      2.527721
     242A      2.559174   243A      2.587821   244A      2.602140
     245A      2.644134   246A      2.644673   247A      2.671051
     248A      2.677021   249A      2.689561   250A      2.710837
     251A      2.747392   252A      2.750587   253A      2.760932
     254A      2.774100   255A      2.792140   256A      2.810281
     257A      2.840122   258A      2.859898   259A      2.878709
     260A      2.904170   261A      2.927047   262A      2.939891
     263A      2.956102   264A      3.057076   265A      3.088674
     266A      3.099957   267A      3.110935   268A      3.115215
     269A      3.217293   270A      3.593264   271A      3.674404
     272A      3.879325

    Final Occupation by Irrep:
              A
    DOCC [    49 ]

  @RHF Final Energy:  -552.38178751015903

   => Energetics <=

    Nuclear Repulsion Energy =            794.8756506127394914
    One-Electron Energy =               -2311.1729290295052124
    Two-Electron Energy =                 963.9154909066066921
    Total Energy =                       -552.3817875101590289

Computation Completed

Properties will be evaluated at   0.000000,   0.000000,   0.000000 [a0]

Properties computed using the SCF density matrix

  Nuclear Dipole Moment: [e a0]
     X:    -4.5975      Y:     4.6308      Z:    -4.3047

  Electronic Dipole Moment: [e a0]
     X:     5.1453      Y:    -4.5796      Z:     0.4186

  Dipole Moment: [e a0]
     X:     0.5479      Y:     0.0512      Z:    -3.8861     Total:     3.9249

  Dipole Moment: [D]
     X:     1.3925      Y:     0.1301      Z:    -9.8775     Total:     9.9760

*** tstop() called on ds3 at Sun Apr 26 22:07:05 2020
Module time:
	user time   =     312.97 seconds =       5.22 minutes
	system time =     106.19 seconds =       1.77 minutes
	total time  =        418 seconds =       6.97 minutes
Total time:
	user time   =     312.97 seconds =       5.22 minutes
	system time =     106.19 seconds =       1.77 minutes
	total time  =        418 seconds =       6.97 minutes
                                     G D M A

                                 by Anthony Stone

                           version 2.2.06, 22 June 2011

               Distributed Multipoles from Gaussian wavefunctions

Starting at 22:7:5 on 26 Apr 2020

Using SCF density matrix from file ./SSI/SSI-129PHE-156ARG-1-dimer.test.21407.fchk

                         Distributed Multipole Analysis

Standard DMA

Positions and radii in angstrom
Multipole moments in atomic units, ea_0^k for rank k

C          x = -1.936292  y =  0.397977  z =  0.534373 angstrom
           Maximum rank =  0   Radius =  0.650 angstrom
                   Q00  =  -0.040971

C          x = -3.071292  y =  0.889977  z =  1.427373 angstrom
           Maximum rank =  0   Radius =  0.650 angstrom
                   Q00  =  -0.221443

C          x = -0.710292  y = -0.016023  z =  1.307373 angstrom
           Maximum rank =  0   Radius =  0.650 angstrom
                   Q00  =  -0.135273

C          x =  0.229708  y =  0.927977  z =  1.701373 angstrom
           Maximum rank =  0   Radius =  0.650 angstrom
                   Q00  =  -0.108220

C          x = -0.511292  y = -1.347023  z =  1.655373 angstrom
           Maximum rank =  0   Radius =  0.650 angstrom
                   Q00  =   0.013021

C          x =  1.352708  y =  0.544977  z =  2.426373 angstrom
           Maximum rank =  0   Radius =  0.650 angstrom
                   Q00  =  -0.061855

C          x =  0.605708  y = -1.737023  z =  2.379373 angstrom
           Maximum rank =  0   Radius =  0.650 angstrom
                   Q00  =  -0.085978

C          x =  1.541708  y = -0.789023  z =  2.767373 angstrom
           Maximum rank =  0   Radius =  0.650 angstrom
                   Q00  =  -0.076648

H          x = -2.292292  y = -0.450023  z = -0.052627 angstrom
           Maximum rank =  0   Radius =  0.325 angstrom
                   Q00  =   0.034962

H          x = -1.664292  y =  1.190977  z = -0.164627 angstrom
           Maximum rank =  0   Radius =  0.325 angstrom
                   Q00  =   0.043272

H          x = -2.737292  y =  1.816977  z =  1.897373 angstrom
           Maximum rank =  0   Radius =  0.325 angstrom
                   Q00  =   0.090789

H          x =  0.087708  y =  1.969977  z =  1.449373 angstrom
           Maximum rank =  0   Radius =  0.325 angstrom
                   Q00  =   0.059963

H          x = -1.153292  y = -2.096023  z =  1.272373 angstrom
           Maximum rank =  0   Radius =  0.325 angstrom
                   Q00  =   0.046644

H          x =  2.076708  y =  1.285977  z =  2.733373 angstrom
           Maximum rank =  0   Radius =  0.325 angstrom
                   Q00  =   0.080801

H          x =  0.756708  y = -2.780023  z =  2.618373 angstrom
           Maximum rank =  0   Radius =  0.325 angstrom
                   Q00  =   0.080496

H          x =  2.416708  y = -1.085023  z =  3.331373 angstrom
           Maximum rank =  0   Radius =  0.325 angstrom
                   Q00  =   0.081447

H          x = -3.266973  y =  0.151077  z =  2.218403 angstrom
           Maximum rank =  0   Radius =  0.325 angstrom
                   Q00  =   0.099503

H          x = -3.975652  y =  1.130467  z =  0.849183 angstrom
           Maximum rank =  0   Radius =  0.325 angstrom
                   Q00  =   0.095116

C          x =  1.494708  y =  1.835977  z = -2.999627 angstrom
           Maximum rank =  0   Radius =  0.650 angstrom
                   Q00  =  -0.121143

C          x =  0.315708  y = -0.246023  z = -2.406627 angstrom
           Maximum rank =  0   Radius =  0.650 angstrom
                   Q00  =   1.081737

N          x =  1.365708  y =  0.552977  z = -2.306627 angstrom
           Maximum rank =  0   Radius =  0.650 angstrom
                   Q00  =  -0.491753

N          x = -0.717292  y =  0.083977  z = -3.141627 angstrom
           Maximum rank =  0   Radius =  0.650 angstrom
                   Q00  =  -0.577673

N          x =  0.294708  y = -1.388023  z = -1.754627 angstrom
           Maximum rank =  0   Radius =  0.650 angstrom
                   Q00  =  -0.579730

H          x =  2.112708  y =  0.280977  z = -1.685627 angstrom
           Maximum rank =  0   Radius =  0.325 angstrom
                   Q00  =   0.241346

H          x = -0.818292  y =  1.045977  z = -3.454627 angstrom
           Maximum rank =  0   Radius =  0.325 angstrom
                   Q00  =   0.263977

H          x = -1.522292  y = -0.508023  z = -3.207627 angstrom
           Maximum rank =  0   Radius =  0.325 angstrom
                   Q00  =   0.262060

H          x =  1.028708  y = -1.610023  z = -1.100627 angstrom
           Maximum rank =  0   Radius =  0.325 angstrom
                   Q00  =   0.271684

H          x = -0.536292  y = -1.959023  z = -1.767627 angstrom
           Maximum rank =  0   Radius =  0.325 angstrom
                   Q00  =   0.261330

H          x =  1.600708  y =  2.638977  z = -2.267627 angstrom
           Maximum rank =  0   Radius =  0.325 angstrom
                   Q00  =   0.138401

H          x =  0.623708  y =  2.062977  z = -3.606627 angstrom
           Maximum rank =  0   Radius =  0.325 angstrom
                   Q00  =   0.108807

H          x =  2.361781  y =  1.851177  z = -3.676349 angstrom
           Maximum rank =  0   Radius =  0.325 angstrom
                   Q00  =   0.145330

Total multipoles referred to origin at
           x =   0.000000,  y =    0.000000,  z =    0.000000 angstrom
                   Q00  =   1.000000

Finished at 22:7:5 on 26 Apr 2020

  DMA results are available in the Python driver through the
	  variable('DMA DISTRIBUTED MULTIPOLES')
  and
	  variable('DMA TOTAL MULTIPOLES')
  commands.

    Psi4 stopped on: Sunday, 26 April 2020 10:07PM
    Psi4 wall time for execution: 0:06:58.65

*** Psi4 exiting successfully. Buy a developer a beer!
