                               Psi4 1.3.2 release

  ==> Input File <==

--------------------------------------------------------------------------
import numpy as np
set {scf_type pk
basis cc-pvdz
d_convergence 10
gdma_switch   0
gdma_limit    0
gdma_origin   [ 0.0,  0.0,  0.0 ]
}
molecule test {
    units Angstrom
    0 1
    --
    0 1
    C                1.343246733410535     0.515174153643516    -0.239563554130580
    C                2.834246733410535     0.878174153643515    -0.094563554130580
    C                0.588246733410535     1.422174153643516    -1.189563554130580
    C                0.833246733410535     1.356174153643515    -2.567563554130581
    C               -0.355753266589465     2.324174153643516    -0.691563554130580
    C                0.131246733410535     2.195174153643515    -3.432563554130581
    C               -1.074753266589465     3.159174153643515    -1.549563554130580
    C               -0.811753266589465     3.070174153643515    -2.908563554130581
    H                1.247246733410535    -0.515825846356484    -0.583563554130580
    H                0.872246733410535     0.572174153643515     0.743436445869420
    H                2.912246733410535     1.952174153643516     0.071436445869420
    H                1.537246733410535     0.644174153643515    -2.969563554130580
    H               -0.540753266589465     2.377174153643516     0.372436445869420
    H                0.298246733410535     2.141174153643515    -4.498563554130580
    H               -1.809753266589465     3.854174153643516    -1.166563554130580
    H               -1.349753266589465     3.708174153643516    -3.589563554130581
    H                3.399226733410535     0.578357153643515    -0.989493554130580
    H                3.234696733410535     0.340135953643516     0.777306445869420
    C                1.130246733410535    -3.385825846356484     0.536436445869420
    C                0.079246733410535    -2.632825846356485     1.316436445869420
    C                0.384246733410535    -2.078825846356485     2.569436445869420
    C               -1.197753266589465    -2.437825846356485     0.797436445869420
    C               -0.573753266589465    -1.330825846356484     3.253436445869419
    C               -2.152753266589464    -1.675825846356484     1.465436445869420
    C               -1.822753266589465    -1.125825846356485     2.702436445869420
    H                2.082246733410535    -2.876825846356484     0.623436445869420
    H                0.863246733410535    -3.347825846356484    -0.520563554130580
    H                1.371246733410535    -2.190825846356485     2.975436445869419
    H               -1.447753266589465    -2.861825846356485    -0.165563554130580
    H               -0.333753266589465    -0.895825846356485     4.213436445869419
    H               -3.129753266589465    -1.513825846356485     1.030436445869420
    H               -2.548753266589465    -0.532825846356485     3.241436445869419
    H                1.263976733410535    -4.439916846356484     0.821056445869420

}
e, wfn = energy('scf', return_wfn=True)
gdma(wfn)
dmavals = variable('DMA DISTRIBUTED MULTIPOLES')
charges = np.array(dmavals)
print(charges)
np.save('SSI-058PHE-081PHE-1-dimer.npy', np.array(charges))--------------------------------------------------------------------------

*** tstart() called on ds3
*** at Mon Apr 27 16:25:01 2020

   => Loading Basis Set <=

    Name: CC-PVDZ
    Role: ORBITAL
    Keyword: BASIS
    atoms 1-8, 19-25  entry C          line   138 file /theoryfs2/ds/metcalf/miniconda2/envs/tf2gpu/share/psi4/basis/cc-pvdz.gbs
    atoms 9-18, 26-33 entry H          line    22 file /theoryfs2/ds/metcalf/miniconda2/envs/tf2gpu/share/psi4/basis/cc-pvdz.gbs

         ---------------------------------------------------------
                                   SCF
               by Justin Turney, Rob Parrish, Andy Simmonett
                          and Daniel G. A. Smith
                              RHF Reference
                        1 Threads,    500 MiB Core
         ---------------------------------------------------------

  ==> Geometry <==

    Molecular point group: c1
    Full point group: C1

    Geometry (in Angstrom), charge = 0, multiplicity = 1:

       Center              X                  Y                   Z               Mass
    ------------   -----------------  -----------------  -----------------  -----------------
         C            1.343246733411     0.515174153644    -0.239563554131    12.000000000000
         C            2.834246733411     0.878174153644    -0.094563554131    12.000000000000
         C            0.588246733411     1.422174153644    -1.189563554131    12.000000000000
         C            0.833246733411     1.356174153644    -2.567563554131    12.000000000000
         C           -0.355753266589     2.324174153644    -0.691563554131    12.000000000000
         C            0.131246733411     2.195174153644    -3.432563554131    12.000000000000
         C           -1.074753266589     3.159174153644    -1.549563554131    12.000000000000
         C           -0.811753266589     3.070174153644    -2.908563554131    12.000000000000
         H            1.247246733411    -0.515825846356    -0.583563554131     1.007825032230
         H            0.872246733411     0.572174153644     0.743436445869     1.007825032230
         H            2.912246733411     1.952174153644     0.071436445869     1.007825032230
         H            1.537246733411     0.644174153644    -2.969563554131     1.007825032230
         H           -0.540753266589     2.377174153644     0.372436445869     1.007825032230
         H            0.298246733411     2.141174153644    -4.498563554131     1.007825032230
         H           -1.809753266589     3.854174153644    -1.166563554131     1.007825032230
         H           -1.349753266589     3.708174153644    -3.589563554131     1.007825032230
         H            3.399226733411     0.578357153644    -0.989493554131     1.007825032230
         H            3.234696733411     0.340135953644     0.777306445869     1.007825032230
         C            1.130246733411    -3.385825846356     0.536436445869    12.000000000000
         C            0.079246733411    -2.632825846356     1.316436445869    12.000000000000
         C            0.384246733411    -2.078825846356     2.569436445869    12.000000000000
         C           -1.197753266589    -2.437825846356     0.797436445869    12.000000000000
         C           -0.573753266589    -1.330825846356     3.253436445869    12.000000000000
         C           -2.152753266589    -1.675825846356     1.465436445869    12.000000000000
         C           -1.822753266589    -1.125825846356     2.702436445869    12.000000000000
         H            2.082246733411    -2.876825846356     0.623436445869     1.007825032230
         H            0.863246733411    -3.347825846356    -0.520563554131     1.007825032230
         H            1.371246733411    -2.190825846356     2.975436445869     1.007825032230
         H           -1.447753266589    -2.861825846356    -0.165563554131     1.007825032230
         H           -0.333753266589    -0.895825846356     4.213436445869     1.007825032230
         H           -3.129753266589    -1.513825846356     1.030436445869     1.007825032230
         H           -2.548753266589    -0.532825846356     3.241436445869     1.007825032230
         H            1.263976733411    -4.439916846356     0.821056445869     1.007825032230

  Running in c1 symmetry.

  Rotational constants: A =      0.03000  B =      0.00978  C =      0.00883 [cm^-1]
  Rotational constants: A =    899.36810  B =    293.19741  C =    264.83628 [MHz]
  Nuclear repulsion =  884.343453520869616

  Charge       = 0
  Multiplicity = 1
  Electrons    = 108
  Nalpha       = 54
  Nbeta        = 54

  ==> Algorithm <==

  SCF Algorithm Type is PK.
  DIIS enabled.
  MOM disabled.
  Fractional occupation disabled.
  Guess Type is SAD.
  Energy threshold   = 1.00e-06
  Density threshold  = 1.00e-10
  Integral threshold = 0.00e+00

  ==> Primary Basis <==

  Basis Set: CC-PVDZ
    Blend: CC-PVDZ
    Number of shells: 144
    Number of basis function: 300
    Number of Cartesian functions: 315
    Spherical Harmonics?: true
    Max angular momentum: 2

  ==> Pre-Iterations <==

   -------------------------------------------------------
    Irrep   Nso     Nmo     Nalpha   Nbeta   Ndocc  Nsocc
   -------------------------------------------------------
     A        300     300       0       0       0       0
   -------------------------------------------------------
    Total     300     300      54      54      54       0
   -------------------------------------------------------

  ==> Integral Setup <==

  Using integral reordering PK algorithm.
  Sizing the integral batches needed.
  Building batch lookup table.
   Calculation information:
      Number of atoms:                  33
      Number of AO shells:             144
      Number of primitives:            420
      Number of atomic orbitals:       315
      Number of basis functions:       300

      Integral cutoff                 1.00e-12
      Number of threads:                 1

	Batch   1 pq = [       0,    9405] index = [             0,44231715] size =     44231715
	Batch   2 pq = [    9405,   13301] index = [      44231715,88464951] size =     44233236
	Batch   3 pq = [   13301,   16290] index = [      88464951,132690195] size =     44225244
	Batch   4 pq = [   16290,   18810] index = [     132690195,176917455] size =     44227260
	Batch   5 pq = [   18810,   21030] index = [     176917455,221140965] size =     44223510
	Batch   6 pq = [   21030,   23037] index = [     221140965,265363203] size =     44222238
	Batch   7 pq = [   23037,   24883] index = [     265363203,309594286] size =     44231083
	Batch   8 pq = [   24883,   26601] index = [     309594286,353819901] size =     44225615
	Batch   9 pq = [   26601,   28214] index = [     353819901,398029005] size =     44209104
	Batch  10 pq = [   28214,   29740] index = [     398029005,442248670] size =     44219665
	Batch  11 pq = [   29740,   31191] index = [     442248670,486454836] size =     44206166
	Batch  12 pq = [   31191,   32578] index = [     486454836,530679331] size =     44224495
	Batch  13 pq = [   32578,   33908] index = [     530679331,574893186] size =     44213855
	Batch  14 pq = [   33908,   35188] index = [     574893186,619115266] size =     44222080
	Batch  15 pq = [   35188,   36423] index = [     619115266,663335676] size =     44220410
	Batch  16 pq = [   36423,   37617] index = [     663335676,707538153] size =     44202477
	Batch  17 pq = [   37617,   38775] index = [     707538153,751769700] size =     44231547
	Batch  18 pq = [   38775,   39899] index = [     751769700,795985050] size =     44215350
	Batch  19 pq = [   39899,   40992] index = [     795985050,840192528] size =     44207478
	Batch  20 pq = [   40992,   42057] index = [     840192528,884416653] size =     44224125
	Batch  21 pq = [   42057,   43095] index = [     884416653,928611060] size =     44194407
	Batch  22 pq = [   43095,   44109] index = [     928611060,972823995] size =     44212935
	Batch  23 pq = [   44109,   45150] index = [     972823995,1019283825] size =     46459830
  Task number: 93
  Buffer size: 11059200
  Buffer per thread: 2
  We computed 56887285 shell quartets total.
  Whereas there are 54502020 unique shell quartets.
     4.38 percent of shell quartets recomputed by reordering.

  ==> DiskJK: Disk-Based J/K Matrices <==

    J tasked:                  Yes
    K tasked:                  Yes
    wK tasked:                  No
    Memory [MiB]:              375
    Schwarz Cutoff:          1E-12

    OpenMP threads:              1

  Minimum eigenvalue in the overlap matrix is 3.0952014140E-04.
  Using Symmetric Orthogonalization.

  SCF Guess: Superposition of Atomic Densities via on-the-fly atomic UHF.

  ==> Iterations <==

                        Total Energy        Delta E     RMS |[F,P]|

   @RHF iter SAD:  -577.33275440837133   -5.77333e+02   0.00000e+00
   @RHF iter   1:  -578.23800227426625   -9.05248e-01   2.20946e-03 DIIS
   @RHF iter   2:  -578.51070452891554   -2.72702e-01   9.00918e-04 DIIS
   @RHF iter   3:  -578.55089911844425   -4.01946e-02   2.07599e-04 DIIS
   @RHF iter   4:  -578.55436363891681   -3.46452e-03   5.06121e-05 DIIS
   @RHF iter   5:  -578.55450739551088   -1.43757e-04   1.65022e-05 DIIS
   @RHF iter   6:  -578.55452304396317   -1.56485e-05   4.02657e-06 DIIS
   @RHF iter   7:  -578.55452418205675   -1.13809e-06   1.05419e-06 DIIS
   @RHF iter   8:  -578.55452428092087   -9.88641e-08   3.11477e-07 DIIS
   @RHF iter   9:  -578.55452429673699   -1.58161e-08   1.45121e-07 DIIS
   @RHF iter  10:  -578.55452430057301   -3.83602e-09   7.10612e-08 DIIS
   @RHF iter  11:  -578.55452430197192   -1.39892e-09   2.85295e-08 DIIS
   @RHF iter  12:  -578.55452430215996   -1.88038e-10   1.32316e-08 DIIS
   @RHF iter  13:  -578.55452430218872   -2.87628e-11   3.93994e-09 DIIS
   @RHF iter  14:  -578.55452430218759    1.13687e-12   1.22345e-09 DIIS
   @RHF iter  15:  -578.55452430218293    4.66116e-12   4.43539e-10 DIIS
   @RHF iter  16:  -578.55452430219214   -9.20863e-12   1.92132e-10 DIIS
   @RHF iter  17:  -578.55452430219020    1.93268e-12   1.04016e-10 DIIS
   @RHF iter  18:  -578.55452430218565    4.54747e-12   4.05109e-11 DIIS
  Energy and wave function converged.

  ==> Post-Iterations <==

    Orbital Energies [Eh]
    ---------------------

    Doubly Occupied:

       1A    -11.242819     2A    -11.236829     3A    -11.235579
       4A    -11.233788     5A    -11.232493     6A    -11.231967
       7A    -11.231690     8A    -11.231512     9A    -11.231188
      10A    -11.230859    11A    -11.228152    12A    -11.226989
      13A    -11.225626    14A    -11.221705    15A    -11.220055
      16A     -1.153423    17A     -1.147863    18A     -1.054823
      19A     -1.045216    20A     -1.012528    21A     -1.008494
      22A     -0.974590    23A     -0.933247    24A     -0.855392
      25A     -0.826442    26A     -0.820951    27A     -0.796566
      28A     -0.779826    29A     -0.692655    30A     -0.685919
      31A     -0.632737    32A     -0.632092    33A     -0.631309
      34A     -0.630901    35A     -0.590173    36A     -0.585780
      37A     -0.583777    38A     -0.576467    39A     -0.571704
      40A     -0.563444    41A     -0.535392    42A     -0.530400
      43A     -0.511019    44A     -0.498215    45A     -0.489721
      46A     -0.487607    47A     -0.480720    48A     -0.475389
      49A     -0.471981    50A     -0.459686    51A     -0.333228
      52A     -0.328613    53A     -0.323790    54A     -0.315524

    Virtual:

      55A      0.131360    56A      0.137722    57A      0.140877
      58A      0.145938    59A      0.172151    60A      0.191859
      61A      0.193400    62A      0.206296    63A      0.215829
      64A      0.221362    65A      0.235040    66A      0.244039
      67A      0.247291    68A      0.256437    69A      0.260388
      70A      0.262923    71A      0.274848    72A      0.284867
      73A      0.291806    74A      0.305147    75A      0.306513
      76A      0.323045    77A      0.350958    78A      0.365784
      79A      0.374895    80A      0.395628    81A      0.413277
      82A      0.452762    83A      0.457717    84A      0.461352
      85A      0.465413    86A      0.480291    87A      0.488696
      88A      0.495773    89A      0.501327    90A      0.562016
      91A      0.581376    92A      0.589136    93A      0.599859
      94A      0.600839    95A      0.620737    96A      0.651192
      97A      0.675844    98A      0.677353    99A      0.683079
     100A      0.696109   101A      0.697910   102A      0.702531
     103A      0.714922   104A      0.721636   105A      0.729558
     106A      0.736113   107A      0.737511   108A      0.740351
     109A      0.744083   110A      0.745695   111A      0.754296
     112A      0.755761   113A      0.761031   114A      0.768157
     115A      0.778605   116A      0.789867   117A      0.804372
     118A      0.808552   119A      0.833005   120A      0.834875
     121A      0.842272   122A      0.858008   123A      0.860877
     124A      0.866827   125A      0.872377   126A      0.875823
     127A      0.882740   128A      0.890330   129A      0.894475
     130A      0.895771   131A      0.903316   132A      0.912681
     133A      0.918748   134A      0.919694   135A      0.926004
     136A      0.932549   137A      0.946657   138A      0.952048
     139A      0.965107   140A      0.981610   141A      0.988461
     142A      0.995312   143A      1.003229   144A      1.020322
     145A      1.024136   146A      1.038514   147A      1.076196
     148A      1.093232   149A      1.120436   150A      1.130237
     151A      1.138758   152A      1.141373   153A      1.152116
     154A      1.154208   155A      1.156065   156A      1.160353
     157A      1.189989   158A      1.192053   159A      1.222560
     160A      1.235940   161A      1.240066   162A      1.244682
     163A      1.250654   164A      1.258159   165A      1.258579
     166A      1.265095   167A      1.297225   168A      1.301758
     169A      1.303968   170A      1.310528   171A      1.318543
     172A      1.322022   173A      1.326082   174A      1.332717
     175A      1.396506   176A      1.418783   177A      1.441081
     178A      1.452326   179A      1.504361   180A      1.509701
     181A      1.520803   182A      1.527533   183A      1.546192
     184A      1.592774   185A      1.612430   186A      1.622807
     187A      1.676020   188A      1.684540   189A      1.699537
     190A      1.703048   191A      1.721715   192A      1.742467
     193A      1.746851   194A      1.753149   195A      1.755122
     196A      1.765205   197A      1.769798   198A      1.789989
     199A      1.815099   200A      1.829325   201A      1.855764
     202A      1.859529   203A      1.875978   204A      1.884364
     205A      1.885551   206A      1.889216   207A      1.901178
     208A      1.904581   209A      1.912150   210A      1.919018
     211A      1.924319   212A      1.932489   213A      1.939152
     214A      1.940518   215A      1.946054   216A      1.953951
     217A      1.955906   218A      1.961009   219A      1.967119
     220A      1.970668   221A      1.979349   222A      1.988270
     223A      1.991595   224A      2.000387   225A      2.016244
     226A      2.025673   227A      2.031935   228A      2.044031
     229A      2.054198   230A      2.058594   231A      2.068177
     232A      2.083231   233A      2.090256   234A      2.117838
     235A      2.125906   236A      2.143468   237A      2.156307
     238A      2.158652   239A      2.159850   240A      2.168935
     241A      2.172454   242A      2.178364   243A      2.181837
     244A      2.186412   245A      2.224002   246A      2.240967
     247A      2.252315   248A      2.263501   249A      2.274844
     250A      2.277115   251A      2.294465   252A      2.300357
     253A      2.302790   254A      2.319272   255A      2.320996
     256A      2.326909   257A      2.327916   258A      2.371985
     259A      2.451788   260A      2.456957   261A      2.463936
     262A      2.475696   263A      2.480867   264A      2.502671
     265A      2.537648   266A      2.541669   267A      2.567315
     268A      2.586144   269A      2.619242   270A      2.648443
     271A      2.739859   272A      2.747209   273A      2.750164
     274A      2.770909   275A      2.777947   276A      2.783159
     277A      2.786564   278A      2.791132   279A      2.800533
     280A      2.812766   281A      2.850044   282A      2.861307
     283A      2.865357   284A      2.881254   285A      2.922709
     286A      2.965885   287A      2.980826   288A      2.989711
     289A      3.018708   290A      3.022255   291A      3.024957
     292A      3.074513   293A      3.155440   294A      3.178720
     295A      3.196696   296A      3.207198   297A      3.300067
     298A      3.312044   299A      3.963173   300A      3.967727

    Final Occupation by Irrep:
              A
    DOCC [    54 ]

  @RHF Final Energy:  -578.55452430218565

   => Energetics <=

    Nuclear Repulsion Energy =            884.3434535208696161
    One-Electron Energy =               -2536.8182457426210021
    Two-Electron Energy =                1073.9202679195657311
    Total Energy =                       -578.5545243021856550

Computation Completed

Properties will be evaluated at   0.000000,   0.000000,   0.000000 [a0]

Properties computed using the SCF density matrix

  Nuclear Dipole Moment: [e a0]
     X:     7.4263      Y:    -2.8197      Z:     0.3623

  Electronic Dipole Moment: [e a0]
     X:    -7.3417      Y:     2.6436      Z:    -0.3015

  Dipole Moment: [e a0]
     X:     0.0845      Y:    -0.1762      Z:     0.0608     Total:     0.2046

  Dipole Moment: [D]
     X:     0.2149      Y:    -0.4478      Z:     0.1544     Total:     0.5201

*** tstop() called on ds3 at Mon Apr 27 16:38:03 2020
Module time:
	user time   =     516.81 seconds =       8.61 minutes
	system time =     180.80 seconds =       3.01 minutes
	total time  =        782 seconds =      13.03 minutes
Total time:
	user time   =     516.81 seconds =       8.61 minutes
	system time =     180.80 seconds =       3.01 minutes
	total time  =        782 seconds =      13.03 minutes
                                     G D M A

                                 by Anthony Stone

                           version 2.2.06, 22 June 2011

               Distributed Multipoles from Gaussian wavefunctions

Starting at 16:38:3 on 27 Apr 2020

Using SCF density matrix from file ./SSI/SSI-058PHE-081PHE-1-dimer.test.26779.fchk

                         Distributed Multipole Analysis

Standard DMA

Positions and radii in angstrom
Multipole moments in atomic units, ea_0^k for rank k

C          x =  1.343247  y =  0.515174  z = -0.239564 angstrom
           Maximum rank =  0   Radius =  0.650 angstrom
                   Q00  =  -0.025513

C          x =  2.834247  y =  0.878174  z = -0.094564 angstrom
           Maximum rank =  0   Radius =  0.650 angstrom
                   Q00  =  -0.246080

C          x =  0.588247  y =  1.422174  z = -1.189564 angstrom
           Maximum rank =  0   Radius =  0.650 angstrom
                   Q00  =  -0.093321

C          x =  0.833247  y =  1.356174  z = -2.567564 angstrom
           Maximum rank =  0   Radius =  0.650 angstrom
                   Q00  =  -0.099784

C          x = -0.355753  y =  2.324174  z = -0.691564 angstrom
           Maximum rank =  0   Radius =  0.650 angstrom
                   Q00  =  -0.083007

C          x =  0.131247  y =  2.195174  z = -3.432564 angstrom
           Maximum rank =  0   Radius =  0.650 angstrom
                   Q00  =  -0.075877

C          x = -1.074753  y =  3.159174  z = -1.549564 angstrom
           Maximum rank =  0   Radius =  0.650 angstrom
                   Q00  =  -0.075177

C          x = -0.811753  y =  3.070174  z = -2.908564 angstrom
           Maximum rank =  0   Radius =  0.650 angstrom
                   Q00  =   0.008026

H          x =  1.247247  y = -0.515826  z = -0.583564 angstrom
           Maximum rank =  0   Radius =  0.325 angstrom
                   Q00  =   0.069290

H          x =  0.872247  y =  0.572174  z =  0.743436 angstrom
           Maximum rank =  0   Radius =  0.325 angstrom
                   Q00  =   0.073462

H          x =  2.912247  y =  1.952174  z =  0.071436 angstrom
           Maximum rank =  0   Radius =  0.325 angstrom
                   Q00  =   0.087081

H          x =  1.537247  y =  0.644174  z = -2.969564 angstrom
           Maximum rank =  0   Radius =  0.325 angstrom
                   Q00  =   0.056847

H          x = -0.540753  y =  2.377174  z =  0.372436 angstrom
           Maximum rank =  0   Radius =  0.325 angstrom
                   Q00  =   0.059285

H          x =  0.298247  y =  2.141174  z = -4.498564 angstrom
           Maximum rank =  0   Radius =  0.325 angstrom
                   Q00  =   0.063786

H          x = -1.809753  y =  3.854174  z = -1.166564 angstrom
           Maximum rank =  0   Radius =  0.325 angstrom
                   Q00  =   0.066480

H          x = -1.349753  y =  3.708174  z = -3.589564 angstrom
           Maximum rank =  0   Radius =  0.325 angstrom
                   Q00  =   0.054288

H          x =  3.399227  y =  0.578357  z = -0.989494 angstrom
           Maximum rank =  0   Radius =  0.325 angstrom
                   Q00  =   0.079857

H          x =  3.234697  y =  0.340136  z =  0.777306 angstrom
           Maximum rank =  0   Radius =  0.325 angstrom
                   Q00  =   0.077961

C          x =  1.130247  y = -3.385826  z =  0.536436 angstrom
           Maximum rank =  0   Radius =  0.650 angstrom
                   Q00  =  -0.206962

C          x =  0.079247  y = -2.632826  z =  1.316436 angstrom
           Maximum rank =  0   Radius =  0.650 angstrom
                   Q00  =  -0.108152

C          x =  0.384247  y = -2.078826  z =  2.569436 angstrom
           Maximum rank =  0   Radius =  0.650 angstrom
                   Q00  =  -0.093796

C          x = -1.197753  y = -2.437826  z =  0.797436 angstrom
           Maximum rank =  0   Radius =  0.650 angstrom
                   Q00  =   0.006959

C          x = -0.573753  y = -1.330826  z =  3.253436 angstrom
           Maximum rank =  0   Radius =  0.650 angstrom
                   Q00  =  -0.070629

C          x = -2.152753  y = -1.675826  z =  1.465436 angstrom
           Maximum rank =  0   Radius =  0.650 angstrom
                   Q00  =  -0.074307

C          x = -1.822753  y = -1.125826  z =  2.702436 angstrom
           Maximum rank =  0   Radius =  0.650 angstrom
                   Q00  =  -0.061054

H          x =  2.082247  y = -2.876826  z =  0.623436 angstrom
           Maximum rank =  0   Radius =  0.325 angstrom
                   Q00  =   0.099048

H          x =  0.863247  y = -3.347826  z = -0.520564 angstrom
           Maximum rank =  0   Radius =  0.325 angstrom
                   Q00  =   0.095939

H          x =  1.371247  y = -2.190826  z =  2.975436 angstrom
           Maximum rank =  0   Radius =  0.325 angstrom
                   Q00  =   0.057374

H          x = -1.447753  y = -2.861826  z = -0.165564 angstrom
           Maximum rank =  0   Radius =  0.325 angstrom
                   Q00  =   0.057688

H          x = -0.333753  y = -0.895826  z =  4.213436 angstrom
           Maximum rank =  0   Radius =  0.325 angstrom
                   Q00  =   0.062528

H          x = -3.129753  y = -1.513826  z =  1.030436 angstrom
           Maximum rank =  0   Radius =  0.325 angstrom
                   Q00  =   0.069802

H          x = -2.548753  y = -0.532826  z =  3.241436 angstrom
           Maximum rank =  0   Radius =  0.325 angstrom
                   Q00  =   0.059528

H          x =  1.263977  y = -4.439917  z =  0.821056 angstrom
           Maximum rank =  0   Radius =  0.325 angstrom
                   Q00  =   0.108431

Total multipoles referred to origin at
           x =   0.000000,  y =    0.000000,  z =    0.000000 angstrom
                   Q00  =  -0.000000

Finished at 16:38:3 on 27 Apr 2020

  DMA results are available in the Python driver through the
	  variable('DMA DISTRIBUTED MULTIPOLES')
  and
	  variable('DMA TOTAL MULTIPOLES')
  commands.

    Psi4 stopped on: Monday, 27 April 2020 04:38PM
    Psi4 wall time for execution: 0:13:02.32

*** Psi4 exiting successfully. Buy a developer a beer!
