                               Psi4 1.3.2 release

  ==> Input File <==

--------------------------------------------------------------------------
import numpy as np
set {scf_type pk
basis cc-pvdz
d_convergence 10
gdma_switch   0
gdma_limit    0
gdma_origin   [ 0.0,  0.0,  0.0 ]
}
molecule test {
    units Angstrom
    0 1
    --
    0 1
    C               -0.339292173621784     1.407721586524221     1.094381070306236
    C                0.046707826378216     1.656721586524222     2.556381070306236
    C                0.049707826378216     0.033721586524222     0.602381070306236
    C                1.371707826378216    -0.394278413475778     0.669381070306236
    C               -0.920292173621784    -0.848278413475779     0.120381070306236
    C                1.730707826378216    -1.681278413475778     0.228381070306236
    C               -0.571292173621784    -2.129278413475778    -0.321618929693764
    C                0.756707826378216    -2.541278413475778    -0.258618929693764
    O                1.119707826378216    -3.792278413475779    -0.648618929693764
    H               -1.415292173621784     1.546721586524222     0.975381070306236
    H                0.171707826378216     2.148721586524221     0.479381070306236
    H                1.131707826378216     1.559721586524222     2.610381070306236
    H                2.131707826378217     0.271721586524222     1.052381070306236
    H               -1.955292173621784    -0.536278413475779     0.089381070306236
    H                2.761707826378216    -2.002278413475779     0.278381070306236
    H               -1.317292173621784    -2.813278413475778    -0.697618929693764
    H                2.070707826378216    -3.927278413475778    -0.657618929693764
    H               -0.434292173621784     0.921301586524221     3.218038070306236
    H               -0.203312173621784     2.685061586524222     2.856403070306235
    C               -1.522292173621784     4.254721586524222    -1.239618929693764
    C               -1.566292173621784     3.377721586524222    -2.499618929693764
    H               -1.644292173621784     3.642721586524222    -0.346618929693764
    H               -0.568292173621784     4.780721586524222    -1.187618929693764
    H               -2.329292173621784     4.985721586524222    -1.280618929693764
    H               -1.432292173621784     4.030721586524222    -3.355618929693764
    H               -2.540972173621784     2.874981586524221    -2.584840929693764
    H               -0.720242173621784     2.674821586524221    -2.488166929693765

}
e, wfn = energy('scf', return_wfn=True)
gdma(wfn)
dmavals = variable('DMA DISTRIBUTED MULTIPOLES')
charges = np.array(dmavals)
print(charges)
np.save('SSI-163TYR-180LEU-1-dimer.npy', np.array(charges))--------------------------------------------------------------------------

*** tstart() called on ds3
*** at Mon Apr 27 04:58:08 2020

   => Loading Basis Set <=

    Name: CC-PVDZ
    Role: ORBITAL
    Keyword: BASIS
    atoms 1-8, 20-21   entry C          line   138 file /theoryfs2/ds/metcalf/miniconda2/envs/tf2gpu/share/psi4/basis/cc-pvdz.gbs
    atoms 9            entry O          line   198 file /theoryfs2/ds/metcalf/miniconda2/envs/tf2gpu/share/psi4/basis/cc-pvdz.gbs
    atoms 10-19, 22-27 entry H          line    22 file /theoryfs2/ds/metcalf/miniconda2/envs/tf2gpu/share/psi4/basis/cc-pvdz.gbs

         ---------------------------------------------------------
                                   SCF
               by Justin Turney, Rob Parrish, Andy Simmonett
                          and Daniel G. A. Smith
                              RHF Reference
                        1 Threads,    500 MiB Core
         ---------------------------------------------------------

  ==> Geometry <==

    Molecular point group: c1
    Full point group: C1

    Geometry (in Angstrom), charge = 0, multiplicity = 1:

       Center              X                  Y                   Z               Mass
    ------------   -----------------  -----------------  -----------------  -----------------
         C           -0.339292173622     1.407721586524     1.094381070306    12.000000000000
         C            0.046707826378     1.656721586524     2.556381070306    12.000000000000
         C            0.049707826378     0.033721586524     0.602381070306    12.000000000000
         C            1.371707826378    -0.394278413476     0.669381070306    12.000000000000
         C           -0.920292173622    -0.848278413476     0.120381070306    12.000000000000
         C            1.730707826378    -1.681278413476     0.228381070306    12.000000000000
         C           -0.571292173622    -2.129278413476    -0.321618929694    12.000000000000
         C            0.756707826378    -2.541278413476    -0.258618929694    12.000000000000
         O            1.119707826378    -3.792278413476    -0.648618929694    15.994914619570
         H           -1.415292173622     1.546721586524     0.975381070306     1.007825032230
         H            0.171707826378     2.148721586524     0.479381070306     1.007825032230
         H            1.131707826378     1.559721586524     2.610381070306     1.007825032230
         H            2.131707826378     0.271721586524     1.052381070306     1.007825032230
         H           -1.955292173622    -0.536278413476     0.089381070306     1.007825032230
         H            2.761707826378    -2.002278413476     0.278381070306     1.007825032230
         H           -1.317292173622    -2.813278413476    -0.697618929694     1.007825032230
         H            2.070707826378    -3.927278413476    -0.657618929694     1.007825032230
         H           -0.434292173622     0.921301586524     3.218038070306     1.007825032230
         H           -0.203312173622     2.685061586524     2.856403070306     1.007825032230
         C           -1.522292173622     4.254721586524    -1.239618929694    12.000000000000
         C           -1.566292173622     3.377721586524    -2.499618929694    12.000000000000
         H           -1.644292173622     3.642721586524    -0.346618929694     1.007825032230
         H           -0.568292173622     4.780721586524    -1.187618929694     1.007825032230
         H           -2.329292173622     4.985721586524    -1.280618929694     1.007825032230
         H           -1.432292173622     4.030721586524    -3.355618929694     1.007825032230
         H           -2.540972173622     2.874981586524    -2.584840929694     1.007825032230
         H           -0.720242173622     2.674821586524    -2.488166929694     1.007825032230

  Running in c1 symmetry.

  Rotational constants: A =      0.04842  B =      0.01470  C =      0.01254 [cm^-1]
  Rotational constants: A =   1451.56080  B =    440.56574  C =    376.03270 [MHz]
  Nuclear repulsion =  571.928030007258599

  Charge       = 0
  Multiplicity = 1
  Electrons    = 84
  Nalpha       = 42
  Nbeta        = 42

  ==> Algorithm <==

  SCF Algorithm Type is PK.
  DIIS enabled.
  MOM disabled.
  Fractional occupation disabled.
  Guess Type is SAD.
  Energy threshold   = 1.00e-06
  Density threshold  = 1.00e-10
  Integral threshold = 0.00e+00

  ==> Primary Basis <==

  Basis Set: CC-PVDZ
    Blend: CC-PVDZ
    Number of shells: 114
    Number of basis function: 234
    Number of Cartesian functions: 245
    Spherical Harmonics?: true
    Max angular momentum: 2

  ==> Pre-Iterations <==

   -------------------------------------------------------
    Irrep   Nso     Nmo     Nalpha   Nbeta   Ndocc  Nsocc
   -------------------------------------------------------
     A        234     234       0       0       0       0
   -------------------------------------------------------
    Total     234     234      42      42      42       0
   -------------------------------------------------------

  ==> Integral Setup <==

  Using integral reordering PK algorithm.
  Sizing the integral batches needed.
  Building batch lookup table.
   Calculation information:
      Number of atoms:                  27
      Number of AO shells:             114
      Number of primitives:            322
      Number of atomic orbitals:       245
      Number of basis functions:       234

      Integral cutoff                 1.00e-12
      Number of threads:                 1

	Batch   1 pq = [       0,    9405] index = [             0,44231715] size =     44231715
	Batch   2 pq = [    9405,   13301] index = [      44231715,88464951] size =     44233236
	Batch   3 pq = [   13301,   16290] index = [      88464951,132690195] size =     44225244
	Batch   4 pq = [   16290,   18810] index = [     132690195,176917455] size =     44227260
	Batch   5 pq = [   18810,   21030] index = [     176917455,221140965] size =     44223510
	Batch   6 pq = [   21030,   23037] index = [     221140965,265363203] size =     44222238
	Batch   7 pq = [   23037,   24883] index = [     265363203,309594286] size =     44231083
	Batch   8 pq = [   24883,   26601] index = [     309594286,353819901] size =     44225615
	Batch   9 pq = [   26601,   27495] index = [     353819901,378001260] size =     24181359
  Task number: 35
  Buffer size: 11059200
  Buffer per thread: 2
  We computed 18176692 shell quartets total.
  Whereas there are 21487290 unique shell quartets.

  ==> DiskJK: Disk-Based J/K Matrices <==

    J tasked:                  Yes
    K tasked:                  Yes
    wK tasked:                  No
    Memory [MiB]:              375
    Schwarz Cutoff:          1E-12

    OpenMP threads:              1

  Minimum eigenvalue in the overlap matrix is 3.2912355496E-04.
  Using Symmetric Orthogonalization.

  SCF Guess: Superposition of Atomic Densities via on-the-fly atomic UHF.

  ==> Iterations <==

                        Total Energy        Delta E     RMS |[F,P]|

   @RHF iter SAD:  -461.66519755002861   -4.61665e+02   0.00000e+00
   @RHF iter   1:  -462.60970400876408   -9.44506e-01   2.79551e-03 DIIS
   @RHF iter   2:  -462.84813060148747   -2.38427e-01   1.18341e-03 DIIS
   @RHF iter   3:  -462.88698107097412   -3.88505e-02   2.72534e-04 DIIS
   @RHF iter   4:  -462.89023080737405   -3.24974e-03   1.15576e-04 DIIS
   @RHF iter   5:  -462.89065678714780   -4.25980e-04   1.91463e-05 DIIS
   @RHF iter   6:  -462.89067598429580   -1.91971e-05   5.40111e-06 DIIS
   @RHF iter   7:  -462.89067741606226   -1.43177e-06   1.96167e-06 DIIS
   @RHF iter   8:  -462.89067762522052   -2.09158e-07   6.61110e-07 DIIS
   @RHF iter   9:  -462.89067765733722   -3.21167e-08   2.22979e-07 DIIS
   @RHF iter  10:  -462.89067766164368   -4.30646e-09   9.35977e-08 DIIS
   @RHF iter  11:  -462.89067766279800   -1.15432e-09   4.54478e-08 DIIS
   @RHF iter  12:  -462.89067766310450   -3.06500e-10   2.23182e-08 DIIS
   @RHF iter  13:  -462.89067766317652   -7.20206e-11   7.85260e-09 DIIS
   @RHF iter  14:  -462.89067766318203   -5.51381e-12   1.94399e-09 DIIS
   @RHF iter  15:  -462.89067766318499   -2.95586e-12   6.53697e-10 DIIS
   @RHF iter  16:  -462.89067766318459    3.97904e-13   2.54304e-10 DIIS
   @RHF iter  17:  -462.89067766318453    5.68434e-14   1.15767e-10 DIIS
   @RHF iter  18:  -462.89067766318425    2.84217e-13   6.14196e-11 DIIS
  Energy and wave function converged.

  ==> Post-Iterations <==

    Orbital Energies [Eh]
    ---------------------

    Doubly Occupied:

       1A    -20.581154     2A    -11.298704     3A    -11.239855
       4A    -11.239206     5A    -11.233626     6A    -11.230899
       7A    -11.230724     8A    -11.228312     9A    -11.223028
      10A    -11.218036    11A    -11.216285    12A     -1.400035
      13A     -1.150359    14A     -1.058510    15A     -1.016415
      16A     -1.014552    17A     -0.976533    18A     -0.860148
      19A     -0.846050    20A     -0.835704    21A     -0.789515
      22A     -0.732767    23A     -0.672061    24A     -0.644190
      25A     -0.614681    26A     -0.600723    27A     -0.598948
      28A     -0.595997    29A     -0.587092    30A     -0.582038
      31A     -0.571863    32A     -0.538891    33A     -0.517813
      34A     -0.500077    35A     -0.495535    36A     -0.489247
      37A     -0.485831    38A     -0.475778    39A     -0.472831
      40A     -0.461685    41A     -0.335922    42A     -0.302136

    Virtual:

      43A      0.127850    44A      0.155437    45A      0.173149
      46A      0.180398    47A      0.195284    48A      0.207215
      49A      0.214457    50A      0.237323    51A      0.238883
      52A      0.247733    53A      0.258391    54A      0.260089
      55A      0.269330    56A      0.279418    57A      0.289219
      58A      0.311985    59A      0.325319    60A      0.334323
      61A      0.357576    62A      0.388771    63A      0.405324
      64A      0.420260    65A      0.427293    66A      0.474219
      67A      0.490193    68A      0.498354    69A      0.528626
      70A      0.578730    71A      0.599629    72A      0.605786
      73A      0.608416    74A      0.619212    75A      0.644675
      76A      0.651261    77A      0.661167    78A      0.674767
      79A      0.684198    80A      0.692600    81A      0.709753
      82A      0.715509    83A      0.725646    84A      0.737752
      85A      0.740814    86A      0.766153    87A      0.780635
      88A      0.789263    89A      0.809761    90A      0.821266
      91A      0.842785    92A      0.847765    93A      0.862435
      94A      0.865682    95A      0.872672    96A      0.880414
      97A      0.887245    98A      0.891854    99A      0.896207
     100A      0.900168   101A      0.903909   102A      0.906430
     103A      0.914518   104A      0.931077   105A      0.941557
     106A      0.948476   107A      0.961546   108A      0.962878
     109A      0.982199   110A      0.996186   111A      1.001396
     112A      1.022662   113A      1.044505   114A      1.092401
     115A      1.120563   116A      1.126849   117A      1.131638
     118A      1.146470   119A      1.151627   120A      1.171368
     121A      1.200765   122A      1.231039   123A      1.245371
     124A      1.255283   125A      1.262997   126A      1.284557
     127A      1.297334   128A      1.310573   129A      1.315791
     130A      1.348871   131A      1.360677   132A      1.378245
     133A      1.414705   134A      1.456866   135A      1.474481
     136A      1.485510   137A      1.492904   138A      1.510893
     139A      1.535647   140A      1.566993   141A      1.590661
     142A      1.623839   143A      1.628539   144A      1.659558
     145A      1.681170   146A      1.685414   147A      1.719035
     148A      1.727518   149A      1.743924   150A      1.775898
     151A      1.797213   152A      1.817475   153A      1.836578
     154A      1.856555   155A      1.873960   156A      1.879660
     157A      1.884747   158A      1.889854   159A      1.892265
     160A      1.904501   161A      1.912762   162A      1.918900
     163A      1.931857   164A      1.937289   165A      1.941529
     166A      1.948622   167A      1.955008   168A      1.960997
     169A      1.966835   170A      1.974115   171A      1.982344
     172A      2.001640   173A      2.009375   174A      2.019181
     175A      2.030305   176A      2.038778   177A      2.069993
     178A      2.071149   179A      2.079168   180A      2.098317
     181A      2.105145   182A      2.109108   183A      2.131072
     184A      2.149865   185A      2.187948   186A      2.190805
     187A      2.234670   188A      2.259248   189A      2.268663
     190A      2.288180   191A      2.301192   192A      2.308003
     193A      2.311849   194A      2.332374   195A      2.360804
     196A      2.416936   197A      2.445539   198A      2.459626
     199A      2.462170   200A      2.470659   201A      2.483978
     202A      2.532596   203A      2.537586   204A      2.550750
     205A      2.568432   206A      2.577007   207A      2.589153
     208A      2.639899   209A      2.650289   210A      2.746544
     211A      2.766053   212A      2.772166   213A      2.786475
     214A      2.797913   215A      2.808911   216A      2.842512
     217A      2.850454   218A      2.856594   219A      2.872589
     220A      2.909561   221A      2.936597   222A      2.951042
     223A      2.972296   224A      2.981729   225A      3.025906
     226A      3.087490   227A      3.166473   228A      3.249610
     229A      3.281694   230A      3.355645   231A      3.573331
     232A      3.662253   233A      3.985697   234A      4.190594

    Final Occupation by Irrep:
              A
    DOCC [    42 ]

  @RHF Final Energy:  -462.89067766318425

   => Energetics <=

    Nuclear Repulsion Energy =            571.9280300072585987
    One-Electron Energy =               -1761.3099016894593660
    Two-Electron Energy =                 726.4911940190163477
    Total Energy =                       -462.8906776631843059

Computation Completed

Properties will be evaluated at   0.000000,   0.000000,   0.000000 [a0]

Properties computed using the SCF density matrix

  Nuclear Dipole Moment: [e a0]
     X:    -5.8944      Y:    21.3972      Z:    -0.9771

  Electronic Dipole Moment: [e a0]
     X:     6.3825      Y:   -21.1176      Z:     1.0907

  Dipole Moment: [e a0]
     X:     0.4881      Y:     0.2796      Z:     0.1135     Total:     0.5738

  Dipole Moment: [D]
     X:     1.2406      Y:     0.7106      Z:     0.2886     Total:     1.4585

*** tstop() called on ds3 at Mon Apr 27 05:11:37 2020
Module time:
	user time   =     129.04 seconds =       2.15 minutes
	system time =      54.39 seconds =       0.91 minutes
	total time  =        809 seconds =      13.48 minutes
Total time:
	user time   =     129.04 seconds =       2.15 minutes
	system time =      54.39 seconds =       0.91 minutes
	total time  =        809 seconds =      13.48 minutes
                                     G D M A

                                 by Anthony Stone

                           version 2.2.06, 22 June 2011

               Distributed Multipoles from Gaussian wavefunctions

Starting at 5:11:37 on 27 Apr 2020

Using SCF density matrix from file ./SSI/SSI-163TYR-180LEU-1-dimer.test.25617.fchk

                         Distributed Multipole Analysis

Standard DMA

Positions and radii in angstrom
Multipole moments in atomic units, ea_0^k for rank k

C          x = -0.339292  y =  1.407722  z =  1.094381 angstrom
           Maximum rank =  0   Radius =  0.650 angstrom
                   Q00  =  -0.024506

C          x =  0.046708  y =  1.656722  z =  2.556381 angstrom
           Maximum rank =  0   Radius =  0.650 angstrom
                   Q00  =  -0.238915

C          x =  0.049708  y =  0.033722  z =  0.602381 angstrom
           Maximum rank =  0   Radius =  0.650 angstrom
                   Q00  =  -0.139059

C          x =  1.371708  y = -0.394278  z =  0.669381 angstrom
           Maximum rank =  0   Radius =  0.650 angstrom
                   Q00  =  -0.082863

C          x = -0.920292  y = -0.848278  z =  0.120381 angstrom
           Maximum rank =  0   Radius =  0.650 angstrom
                   Q00  =   0.054573

C          x =  1.730708  y = -1.681278  z =  0.228381 angstrom
           Maximum rank =  0   Radius =  0.650 angstrom
                   Q00  =  -0.156679

C          x = -0.571292  y = -2.129278  z = -0.321619 angstrom
           Maximum rank =  0   Radius =  0.650 angstrom
                   Q00  =  -0.122647

C          x =  0.756708  y = -2.541278  z = -0.258619 angstrom
           Maximum rank =  0   Radius =  0.650 angstrom
                   Q00  =   0.288182

O          x =  1.119708  y = -3.792278  z = -0.648619 angstrom
           Maximum rank =  0   Radius =  0.650 angstrom
                   Q00  =  -0.646086

H          x = -1.415292  y =  1.546722  z =  0.975381 angstrom
           Maximum rank =  0   Radius =  0.325 angstrom
                   Q00  =   0.059475

H          x =  0.171708  y =  2.148722  z =  0.479381 angstrom
           Maximum rank =  0   Radius =  0.325 angstrom
                   Q00  =   0.067837

H          x =  1.131708  y =  1.559722  z =  2.610381 angstrom
           Maximum rank =  0   Radius =  0.325 angstrom
                   Q00  =   0.074752

H          x =  2.131708  y =  0.271722  z =  1.052381 angstrom
           Maximum rank =  0   Radius =  0.325 angstrom
                   Q00  =   0.070230

H          x = -1.955292  y = -0.536278  z =  0.089381 angstrom
           Maximum rank =  0   Radius =  0.325 angstrom
                   Q00  =   0.066279

H          x =  2.761708  y = -2.002278  z =  0.278381 angstrom
           Maximum rank =  0   Radius =  0.325 angstrom
                   Q00  =   0.070727

H          x = -1.317292  y = -2.813278  z = -0.697619 angstrom
           Maximum rank =  0   Radius =  0.325 angstrom
                   Q00  =   0.082149

H          x =  2.070708  y = -3.927278  z = -0.657619 angstrom
           Maximum rank =  0   Radius =  0.325 angstrom
                   Q00  =   0.407552

H          x = -0.434292  y =  0.921302  z =  3.218038 angstrom
           Maximum rank =  0   Radius =  0.325 angstrom
                   Q00  =   0.084931

H          x = -0.203312  y =  2.685062  z =  2.856403 angstrom
           Maximum rank =  0   Radius =  0.325 angstrom
                   Q00  =   0.084992

C          x = -1.522292  y =  4.254722  z = -1.239619 angstrom
           Maximum rank =  0   Radius =  0.650 angstrom
                   Q00  =  -0.232750

C          x = -1.566292  y =  3.377722  z = -2.499619 angstrom
           Maximum rank =  0   Radius =  0.650 angstrom
                   Q00  =  -0.245873

H          x = -1.644292  y =  3.642722  z = -0.346619 angstrom
           Maximum rank =  0   Radius =  0.325 angstrom
                   Q00  =   0.081004

H          x = -0.568292  y =  4.780722  z = -1.187619 angstrom
           Maximum rank =  0   Radius =  0.325 angstrom
                   Q00  =   0.078126

H          x = -2.329292  y =  4.985722  z = -1.280619 angstrom
           Maximum rank =  0   Radius =  0.325 angstrom
                   Q00  =   0.077693

H          x = -1.432292  y =  4.030722  z = -3.355619 angstrom
           Maximum rank =  0   Radius =  0.325 angstrom
                   Q00  =   0.077849

H          x = -2.540972  y =  2.874982  z = -2.584841 angstrom
           Maximum rank =  0   Radius =  0.325 angstrom
                   Q00  =   0.080703

H          x = -0.720242  y =  2.674822  z = -2.488167 angstrom
           Maximum rank =  0   Radius =  0.325 angstrom
                   Q00  =   0.082326

Total multipoles referred to origin at
           x =   0.000000,  y =    0.000000,  z =    0.000000 angstrom
                   Q00  =  -0.000000

Finished at 5:11:37 on 27 Apr 2020

  DMA results are available in the Python driver through the
	  variable('DMA DISTRIBUTED MULTIPOLES')
  and
	  variable('DMA TOTAL MULTIPOLES')
  commands.

    Psi4 stopped on: Monday, 27 April 2020 05:11AM
    Psi4 wall time for execution: 0:13:28.74

*** Psi4 exiting successfully. Buy a developer a beer!
