                               Psi4 1.3.2 release

  ==> Input File <==

--------------------------------------------------------------------------
import numpy as np
set {scf_type pk
basis cc-pvdz
d_convergence 10
gdma_switch   0
gdma_limit    0
gdma_origin   [ 0.0,  0.0,  0.0 ]
}
molecule test {
    units Angstrom
    0 1
    --
    0 1
    C               -0.193487274275621     1.547777646023367     1.558537742535543
    C               -1.718487274275621     1.618777646023367     1.452537742535543
    H                0.189512725724379     0.746777646023367     0.939537742535543
    H                0.255512725724379     2.485777646023367     1.235537742535543
    H                0.118512725724379     1.390777646023367     2.591537742535543
    H               -2.065487274275621     2.363777646023367     2.167537742535543
    H               -2.188135274275621     0.653942646023367     1.694457742535543
    H               -2.024371274275621     1.928959646023367     0.442477742535543
    C                0.494512725724379    -1.270222353976633    -0.989462257464457
    C                1.410512725724379    -1.905222353976633    -2.024462257464457
    H               -0.017487274275621    -2.039222353976633    -0.410462257464457
    H                1.115512725724379    -0.679222353976633    -0.320462257464457
    H               -0.230487274275621    -0.613222353976633    -1.469462257464457
    H                1.833512725724378    -1.114222353976632    -2.642462257464457
    H                0.846653725724379    -2.600744353976633    -2.663452257464457
    H                2.249492725724379    -2.417534353976633    -1.530862257464457

}
e, wfn = energy('scf', return_wfn=True)
gdma(wfn)
dmavals = variable('DMA DISTRIBUTED MULTIPOLES')
charges = np.array(dmavals)
print(charges)
np.save('SSI-008ILE-034LEU-1-dimer.npy', np.array(charges))--------------------------------------------------------------------------

*** tstart() called on ds3
*** at Mon Apr 27 23:08:57 2020

   => Loading Basis Set <=

    Name: CC-PVDZ
    Role: ORBITAL
    Keyword: BASIS
    atoms 1-2, 9-10  entry C          line   138 file /theoryfs2/ds/metcalf/miniconda2/envs/tf2gpu/share/psi4/basis/cc-pvdz.gbs
    atoms 3-8, 11-16 entry H          line    22 file /theoryfs2/ds/metcalf/miniconda2/envs/tf2gpu/share/psi4/basis/cc-pvdz.gbs

         ---------------------------------------------------------
                                   SCF
               by Justin Turney, Rob Parrish, Andy Simmonett
                          and Daniel G. A. Smith
                              RHF Reference
                        1 Threads,    500 MiB Core
         ---------------------------------------------------------

  ==> Geometry <==

    Molecular point group: c1
    Full point group: C1

    Geometry (in Angstrom), charge = 0, multiplicity = 1:

       Center              X                  Y                   Z               Mass
    ------------   -----------------  -----------------  -----------------  -----------------
         C           -0.193487274276     1.547777646023     1.558537742536    12.000000000000
         C           -1.718487274276     1.618777646023     1.452537742536    12.000000000000
         H            0.189512725724     0.746777646023     0.939537742536     1.007825032230
         H            0.255512725724     2.485777646023     1.235537742536     1.007825032230
         H            0.118512725724     1.390777646023     2.591537742536     1.007825032230
         H           -2.065487274276     2.363777646023     2.167537742536     1.007825032230
         H           -2.188135274276     0.653942646023     1.694457742536     1.007825032230
         H           -2.024371274276     1.928959646023     0.442477742536     1.007825032230
         C            0.494512725724    -1.270222353977    -0.989462257464    12.000000000000
         C            1.410512725724    -1.905222353977    -2.024462257464    12.000000000000
         H           -0.017487274276    -2.039222353977    -0.410462257464     1.007825032230
         H            1.115512725724    -0.679222353977    -0.320462257464     1.007825032230
         H           -0.230487274276    -0.613222353977    -1.469462257464     1.007825032230
         H            1.833512725724    -1.114222353977    -2.642462257464     1.007825032230
         H            0.846653725724    -2.600744353977    -2.663452257464     1.007825032230
         H            2.249492725724    -2.417534353977    -1.530862257464     1.007825032230

  Running in c1 symmetry.

  Rotational constants: A =      0.55654  B =      0.04489  C =      0.04306 [cm^-1]
  Rotational constants: A =  16684.72272  B =   1345.65472  C =   1290.98500 [MHz]
  Nuclear repulsion =  121.089631787180807

  Charge       = 0
  Multiplicity = 1
  Electrons    = 36
  Nalpha       = 18
  Nbeta        = 18

  ==> Algorithm <==

  SCF Algorithm Type is PK.
  DIIS enabled.
  MOM disabled.
  Fractional occupation disabled.
  Guess Type is SAD.
  Energy threshold   = 1.00e-06
  Density threshold  = 1.00e-10
  Integral threshold = 0.00e+00

  ==> Primary Basis <==

  Basis Set: CC-PVDZ
    Blend: CC-PVDZ
    Number of shells: 60
    Number of basis function: 116
    Number of Cartesian functions: 120
    Spherical Harmonics?: true
    Max angular momentum: 2

  ==> Pre-Iterations <==

   -------------------------------------------------------
    Irrep   Nso     Nmo     Nalpha   Nbeta   Ndocc  Nsocc
   -------------------------------------------------------
     A        116     116       0       0       0       0
   -------------------------------------------------------
    Total     116     116      18      18      18       0
   -------------------------------------------------------

  ==> Integral Setup <==

  Using integral reordering PK algorithm.
  Sizing the integral batches needed.
  Building batch lookup table.
   Calculation information:
      Number of atoms:                  16
      Number of AO shells:              60
      Number of primitives:            148
      Number of atomic orbitals:       120
      Number of basis functions:       116

      Integral cutoff                 1.00e-12
      Number of threads:                 1

	Batch   1 pq = [       0,    6786] index = [             0,23028291] size =     23028291
  Task number: 3
  Buffer size: 11059200
  Buffer per thread: 2
  We computed 1384144 shell quartets total.
  Whereas there are 1675365 unique shell quartets.

  ==> DiskJK: Disk-Based J/K Matrices <==

    J tasked:                  Yes
    K tasked:                  Yes
    wK tasked:                  No
    Memory [MiB]:              375
    Schwarz Cutoff:          1E-12

    OpenMP threads:              1

  Minimum eigenvalue in the overlap matrix is 5.8698511133E-03.
  Using Symmetric Orthogonalization.

  SCF Guess: Superposition of Atomic Densities via on-the-fly atomic UHF.

  ==> Iterations <==

                        Total Energy        Delta E     RMS |[F,P]|

   @RHF iter SAD:  -157.36925856150054   -1.57369e+02   0.00000e+00
   @RHF iter   1:  -158.30653125115927   -9.37273e-01   4.22125e-03 DIIS
   @RHF iter   2:  -158.44017219406277   -1.33641e-01   1.79737e-03 DIIS
   @RHF iter   3:  -158.46361553351846   -2.34433e-02   3.50078e-04 DIIS
   @RHF iter   4:  -158.46545014085223   -1.83461e-03   3.89113e-05 DIIS
   @RHF iter   5:  -158.46547417314545   -2.40323e-05   6.60845e-06 DIIS
   @RHF iter   6:  -158.46547481624810   -6.43103e-07   1.20400e-06 DIIS
   @RHF iter   7:  -158.46547483030471   -1.40566e-08   3.23841e-07 DIIS
   @RHF iter   8:  -158.46547483127779   -9.73074e-10   4.47200e-08 DIIS
   @RHF iter   9:  -158.46547483131076   -3.29692e-11   1.01821e-08 DIIS
   @RHF iter  10:  -158.46547483131187   -1.10845e-12   2.90615e-09 DIIS
   @RHF iter  11:  -158.46547483131206   -1.98952e-13   8.69336e-10 DIIS
   @RHF iter  12:  -158.46547483131235   -2.84217e-13   1.97436e-10 DIIS
   @RHF iter  13:  -158.46547483131246   -1.13687e-13   2.99367e-11 DIIS
  Energy and wave function converged.

  ==> Post-Iterations <==

    Orbital Energies [Eh]
    ---------------------

    Doubly Occupied:

       1A    -11.218932     2A    -11.218515     3A    -11.216861
       4A    -11.213745     5A     -1.021811     6A     -1.016015
       7A     -0.839364     8A     -0.834493     9A     -0.605155
      10A     -0.599703    11A     -0.595523    12A     -0.592914
      13A     -0.504088    14A     -0.501226    15A     -0.493078
      16A     -0.485360    17A     -0.483086    18A     -0.475324

    Virtual:

      19A      0.174891    20A      0.193899    21A      0.229367
      22A      0.239525    23A      0.243642    24A      0.258672
      25A      0.260294    26A      0.275012    27A      0.280773
      28A      0.291231    29A      0.303893    30A      0.349038
      31A      0.393092    32A      0.422578    33A      0.586146
      34A      0.592458    35A      0.603250    36A      0.604022
      37A      0.611942    38A      0.655021    39A      0.671932
      40A      0.677787    41A      0.707182    42A      0.752747
      43A      0.837398    44A      0.871914    45A      0.879827
      46A      0.892217    47A      0.893790    48A      0.896584
      49A      0.901148    50A      0.907032    51A      0.911160
      52A      0.918417    53A      0.937261    54A      0.952046
      55A      0.977034    56A      1.021038    57A      1.121560
      58A      1.126370    59A      1.131537    60A      1.144014
      61A      1.229347    62A      1.315408    63A      1.467009
      64A      1.476543    65A      1.479008    66A      1.491744
      67A      1.563797    68A      1.609612    69A      1.677869
      70A      1.684799    71A      1.690133    72A      1.701490
      73A      1.850624    74A      1.856818    75A      1.866731
      76A      1.879336    77A      1.887106    78A      1.920906
      79A      1.931828    80A      1.935779    81A      1.945068
      82A      1.949123    83A      1.951423    84A      1.952434
      85A      1.957220    86A      1.963038    87A      2.000627
      88A      2.038971    89A      2.100870    90A      2.106714
      91A      2.120128    92A      2.127454    93A      2.296642
      94A      2.297582    95A      2.318905    96A      2.335946
      97A      2.453392    98A      2.454658    99A      2.462195
     100A      2.468374   101A      2.554974   102A      2.561903
     103A      2.580072   104A      2.589444   105A      2.758471
     106A      2.763594   107A      2.785294   108A      2.797197
     109A      2.844772   110A      2.855572   111A      2.859688
     112A      2.871067   113A      2.940723   114A      2.953238
     115A      2.957530   116A      2.987874

    Final Occupation by Irrep:
              A
    DOCC [    18 ]

  @RHF Final Energy:  -158.46547483131246

   => Energetics <=

    Nuclear Repulsion Energy =            121.0896317871808066
    One-Electron Energy =                -451.2798288000705043
    Two-Electron Energy =                 171.7247221815772491
    Total Energy =                       -158.4654748313124628

Computation Completed

Properties will be evaluated at   0.000000,   0.000000,   0.000000 [a0]

Properties computed using the SCF density matrix

  Nuclear Dipole Moment: [e a0]
     X:     0.0776      Y:     0.0992      Z:     0.0318

  Electronic Dipole Moment: [e a0]
     X:    -0.0538      Y:    -0.1003      Z:    -0.0400

  Dipole Moment: [e a0]
     X:     0.0238      Y:    -0.0011      Z:    -0.0082     Total:     0.0252

  Dipole Moment: [D]
     X:     0.0604      Y:    -0.0028      Z:    -0.0209     Total:     0.0640

*** tstop() called on ds3 at Mon Apr 27 23:09:09 2020
Module time:
	user time   =       8.17 seconds =       0.14 minutes
	system time =       4.27 seconds =       0.07 minutes
	total time  =         12 seconds =       0.20 minutes
Total time:
	user time   =       8.17 seconds =       0.14 minutes
	system time =       4.27 seconds =       0.07 minutes
	total time  =         12 seconds =       0.20 minutes
                                     G D M A

                                 by Anthony Stone

                           version 2.2.06, 22 June 2011

               Distributed Multipoles from Gaussian wavefunctions

Starting at 23:9:9 on 27 Apr 2020

Using SCF density matrix from file ./SSI/SSI-008ILE-034LEU-1-dimer.test.1276.fchk

                         Distributed Multipole Analysis

Standard DMA

Positions and radii in angstrom
Multipole moments in atomic units, ea_0^k for rank k

C          x = -0.193487  y =  1.547778  z =  1.558538 angstrom
           Maximum rank =  0   Radius =  0.650 angstrom
                   Q00  =  -0.253497

C          x = -1.718487  y =  1.618778  z =  1.452538 angstrom
           Maximum rank =  0   Radius =  0.650 angstrom
                   Q00  =  -0.227962

H          x =  0.189513  y =  0.746778  z =  0.939538 angstrom
           Maximum rank =  0   Radius =  0.325 angstrom
                   Q00  =   0.088251

H          x =  0.255513  y =  2.485778  z =  1.235538 angstrom
           Maximum rank =  0   Radius =  0.325 angstrom
                   Q00  =   0.077280

H          x =  0.118513  y =  1.390778  z =  2.591538 angstrom
           Maximum rank =  0   Radius =  0.325 angstrom
                   Q00  =   0.077413

H          x = -2.065487  y =  2.363778  z =  2.167538 angstrom
           Maximum rank =  0   Radius =  0.325 angstrom
                   Q00  =   0.077703

H          x = -2.188135  y =  0.653943  z =  1.694458 angstrom
           Maximum rank =  0   Radius =  0.325 angstrom
                   Q00  =   0.079943

H          x = -2.024371  y =  1.928960  z =  0.442478 angstrom
           Maximum rank =  0   Radius =  0.325 angstrom
                   Q00  =   0.078569

C          x =  0.494513  y = -1.270222  z = -0.989462 angstrom
           Maximum rank =  0   Radius =  0.650 angstrom
                   Q00  =  -0.251273

C          x =  1.410513  y = -1.905222  z = -2.024462 angstrom
           Maximum rank =  0   Radius =  0.650 angstrom
                   Q00  =  -0.217083

H          x = -0.017487  y = -2.039222  z = -0.410462 angstrom
           Maximum rank =  0   Radius =  0.325 angstrom
                   Q00  =   0.080554

H          x =  1.115513  y = -0.679222  z = -0.320462 angstrom
           Maximum rank =  0   Radius =  0.325 angstrom
                   Q00  =   0.075492

H          x = -0.230487  y = -0.613222  z = -1.469462 angstrom
           Maximum rank =  0   Radius =  0.325 angstrom
                   Q00  =   0.079639

H          x =  1.833513  y = -1.114222  z = -2.642462 angstrom
           Maximum rank =  0   Radius =  0.325 angstrom
                   Q00  =   0.077700

H          x =  0.846654  y = -2.600744  z = -2.663452 angstrom
           Maximum rank =  0   Radius =  0.325 angstrom
                   Q00  =   0.078684

H          x =  2.249493  y = -2.417534  z = -1.530862 angstrom
           Maximum rank =  0   Radius =  0.325 angstrom
                   Q00  =   0.078587

Total multipoles referred to origin at
           x =   0.000000,  y =    0.000000,  z =    0.000000 angstrom
                   Q00  =  -0.000000

Finished at 23:9:9 on 27 Apr 2020

  DMA results are available in the Python driver through the
	  variable('DMA DISTRIBUTED MULTIPOLES')
  and
	  variable('DMA TOTAL MULTIPOLES')
  commands.

    Psi4 stopped on: Monday, 27 April 2020 11:09PM
    Psi4 wall time for execution: 0:00:12.16

*** Psi4 exiting successfully. Buy a developer a beer!
