                               Psi4 1.3.2 release

  ==> Input File <==

--------------------------------------------------------------------------
import numpy as np
set {scf_type pk
basis cc-pvdz
d_convergence 10
gdma_switch   0
gdma_limit    0
gdma_origin   [ 0.0,  0.0,  0.0 ]
}
molecule test {
    units Angstrom
    0 1
    --
    0 1
    C                3.282295369625377    -0.944840578631647    -0.987549847810221
    C                3.510295369625377     0.420159421368353    -0.361549847810221
    H                3.471295369625377    -0.895840578631647    -2.058549847810221
    H                3.956295369625377    -1.669840578631647    -0.535549847810221
    H                2.252295369625377    -1.253840578631647    -0.818549847810221
    H                4.542295369625377     0.746159421368353    -0.506549847810221
    H                2.828335369625377     1.145559421368353    -0.829219847810221
    H                3.294705369625377     0.341359421368353     0.714240152189779
    C               -2.472704630374623     2.416159421368353    -0.746549847810221
    C               -0.482704630374623    -0.843840578631648    -0.764549847810221
    C               -0.246704630374623    -1.043840578631648     0.601450152189779
    C               -1.165704630374623     0.308159421368353    -1.171549847810221
    C               -1.621704630374623     1.255159421368353    -0.249549847810221
    C               -0.675704630374623    -0.099840578631647     1.541450152189779
    C               -1.372704630374623     1.047159421368353     1.114450152189779
    O                0.368295369625377    -2.185840578631648     1.026450152189779
    H               -0.146704630374623    -1.565840578631647    -1.498549847810221
    H               -1.355704630374623     0.481159421368353    -2.221549847810221
    H               -0.440704630374623    -0.249840578631647     2.587450152189779
    H                0.450295369625377    -2.229840578631647     1.991450152189779
    H               -3.505704630374623     2.247159421368353    -0.433549847810221
    H               -2.435704630374623     2.435159421368353    -1.834549847810221
    H               -1.720704630374623     1.766159421368353     1.842450152189779
    H               -2.207334630374623     3.454259421368352    -0.497499847810221

}
e, wfn = energy('scf', return_wfn=True)
gdma(wfn)
dmavals = variable('DMA DISTRIBUTED MULTIPOLES')
charges = np.array(dmavals)
print(charges)
np.save('SSI-219VAL-222TYR-1-dimer.npy', np.array(charges))--------------------------------------------------------------------------

*** tstart() called on ds3
*** at Tue Apr 28 21:41:44 2020

   => Loading Basis Set <=

    Name: CC-PVDZ
    Role: ORBITAL
    Keyword: BASIS
    atoms 1-2, 9-15  entry C          line   138 file /theoryfs2/ds/metcalf/miniconda2/envs/tf2gpu/share/psi4/basis/cc-pvdz.gbs
    atoms 3-8, 17-24 entry H          line    22 file /theoryfs2/ds/metcalf/miniconda2/envs/tf2gpu/share/psi4/basis/cc-pvdz.gbs
    atoms 16         entry O          line   198 file /theoryfs2/ds/metcalf/miniconda2/envs/tf2gpu/share/psi4/basis/cc-pvdz.gbs

         ---------------------------------------------------------
                                   SCF
               by Justin Turney, Rob Parrish, Andy Simmonett
                          and Daniel G. A. Smith
                              RHF Reference
                        1 Threads,    500 MiB Core
         ---------------------------------------------------------

  ==> Geometry <==

    Molecular point group: c1
    Full point group: C1

    Geometry (in Angstrom), charge = 0, multiplicity = 1:

       Center              X                  Y                   Z               Mass
    ------------   -----------------  -----------------  -----------------  -----------------
         C            3.282295369625    -0.944840578632    -0.987549847810    12.000000000000
         C            3.510295369625     0.420159421368    -0.361549847810    12.000000000000
         H            3.471295369625    -0.895840578632    -2.058549847810     1.007825032230
         H            3.956295369625    -1.669840578632    -0.535549847810     1.007825032230
         H            2.252295369625    -1.253840578632    -0.818549847810     1.007825032230
         H            4.542295369625     0.746159421368    -0.506549847810     1.007825032230
         H            2.828335369625     1.145559421368    -0.829219847810     1.007825032230
         H            3.294705369625     0.341359421368     0.714240152190     1.007825032230
         C           -2.472704630375     2.416159421368    -0.746549847810    12.000000000000
         C           -0.482704630375    -0.843840578632    -0.764549847810    12.000000000000
         C           -0.246704630375    -1.043840578632     0.601450152190    12.000000000000
         C           -1.165704630375     0.308159421368    -1.171549847810    12.000000000000
         C           -1.621704630375     1.255159421368    -0.249549847810    12.000000000000
         C           -0.675704630375    -0.099840578632     1.541450152190    12.000000000000
         C           -1.372704630375     1.047159421368     1.114450152190    12.000000000000
         O            0.368295369625    -2.185840578632     1.026450152190    15.994914619570
         H           -0.146704630375    -1.565840578632    -1.498549847810     1.007825032230
         H           -1.355704630375     0.481159421368    -2.221549847810     1.007825032230
         H           -0.440704630375    -0.249840578632     2.587450152190     1.007825032230
         H            0.450295369625    -2.229840578632     1.991450152190     1.007825032230
         H           -3.505704630375     2.247159421368    -0.433549847810     1.007825032230
         H           -2.435704630375     2.435159421368    -1.834549847810     1.007825032230
         H           -1.720704630375     1.766159421368     1.842450152190     1.007825032230
         H           -2.207334630375     3.454259421368    -0.497499847810     1.007825032230

  Running in c1 symmetry.

  Rotational constants: A =      0.05376  B =      0.02376  C =      0.02016 [cm^-1]
  Rotational constants: A =   1611.82763  B =    712.16817  C =    604.30862 [MHz]
  Nuclear repulsion =  499.968949045520276

  Charge       = 0
  Multiplicity = 1
  Electrons    = 76
  Nalpha       = 38
  Nbeta        = 38

  ==> Algorithm <==

  SCF Algorithm Type is PK.
  DIIS enabled.
  MOM disabled.
  Fractional occupation disabled.
  Guess Type is SAD.
  Energy threshold   = 1.00e-06
  Density threshold  = 1.00e-10
  Integral threshold = 0.00e+00

  ==> Primary Basis <==

  Basis Set: CC-PVDZ
    Blend: CC-PVDZ
    Number of shells: 102
    Number of basis function: 210
    Number of Cartesian functions: 220
    Spherical Harmonics?: true
    Max angular momentum: 2

  ==> Pre-Iterations <==

   -------------------------------------------------------
    Irrep   Nso     Nmo     Nalpha   Nbeta   Ndocc  Nsocc
   -------------------------------------------------------
     A        210     210       0       0       0       0
   -------------------------------------------------------
    Total     210     210      38      38      38       0
   -------------------------------------------------------

  ==> Integral Setup <==

  Using integral reordering PK algorithm.
  Sizing the integral batches needed.
  Building batch lookup table.
   Calculation information:
      Number of atoms:                  24
      Number of AO shells:             102
      Number of primitives:            290
      Number of atomic orbitals:       220
      Number of basis functions:       210

      Integral cutoff                 1.00e-12
      Number of threads:                 1

	Batch   1 pq = [       0,    9405] index = [             0,44231715] size =     44231715
	Batch   2 pq = [    9405,   13301] index = [      44231715,88464951] size =     44233236
	Batch   3 pq = [   13301,   16290] index = [      88464951,132690195] size =     44225244
	Batch   4 pq = [   16290,   18810] index = [     132690195,176917455] size =     44227260
	Batch   5 pq = [   18810,   21030] index = [     176917455,221140965] size =     44223510
	Batch   6 pq = [   21030,   22155] index = [     221140965,245433090] size =     24292125
  Task number: 23
  Buffer size: 11059200
  Buffer per thread: 2
  We computed 12230392 shell quartets total.
  Whereas there are 13799631 unique shell quartets.

  ==> DiskJK: Disk-Based J/K Matrices <==

    J tasked:                  Yes
    K tasked:                  Yes
    wK tasked:                  No
    Memory [MiB]:              375
    Schwarz Cutoff:          1E-12

    OpenMP threads:              1

  Minimum eigenvalue in the overlap matrix is 3.3680368906E-04.
  Using Symmetric Orthogonalization.

  SCF Guess: Superposition of Atomic Densities via on-the-fly atomic UHF.

  ==> Iterations <==

                        Total Energy        Delta E     RMS |[F,P]|

   @RHF iter SAD:  -422.57413533821176   -4.22574e+02   0.00000e+00
   @RHF iter   1:  -423.59857555790575   -1.02444e+00   2.96791e-03 DIIS
   @RHF iter   2:  -423.81350394985873   -2.14928e-01   1.25792e-03 DIIS
   @RHF iter   3:  -423.84843933089786   -3.49354e-02   2.84188e-04 DIIS
   @RHF iter   4:  -423.85132072214748   -2.88139e-03   1.17617e-04 DIIS
   @RHF iter   5:  -423.85167741311710   -3.56691e-04   2.09736e-05 DIIS
   @RHF iter   6:  -423.85169549313446   -1.80800e-05   6.56957e-06 DIIS
   @RHF iter   7:  -423.85169725750131   -1.76437e-06   2.23073e-06 DIIS
   @RHF iter   8:  -423.85169752753274   -2.70031e-07   8.70503e-07 DIIS
   @RHF iter   9:  -423.85169757904123   -5.15085e-08   3.67811e-07 DIIS
   @RHF iter  10:  -423.85169759015969   -1.11185e-08   1.62553e-07 DIIS
   @RHF iter  11:  -423.85169759364595   -3.48626e-09   6.99738e-08 DIIS
   @RHF iter  12:  -423.85169759421211   -5.66160e-10   3.25156e-08 DIIS
   @RHF iter  13:  -423.85169759430073   -8.86189e-11   8.70365e-09 DIIS
   @RHF iter  14:  -423.85169759430926   -8.52651e-12   2.31051e-09 DIIS
   @RHF iter  15:  -423.85169759430846    7.95808e-13   8.23412e-10 DIIS
   @RHF iter  16:  -423.85169759430624    2.21689e-12   3.10779e-10 DIIS
   @RHF iter  17:  -423.85169759430903   -2.78533e-12   1.43918e-10 DIIS
   @RHF iter  18:  -423.85169759430846    5.68434e-13   7.43245e-11 DIIS
  Energy and wave function converged.

  ==> Post-Iterations <==

    Orbital Energies [Eh]
    ---------------------

    Doubly Occupied:

       1A    -20.586021     2A    -11.304123     3A    -11.244276
       4A    -11.241265     5A    -11.238393     6A    -11.238125
       7A    -11.234766     8A    -11.229866     9A    -11.209051
      10A    -11.203266    11A     -1.399469    12A     -1.146763
      13A     -1.034054    14A     -1.016063    15A     -1.010621
      16A     -0.926135    17A     -0.845245    18A     -0.823915
      19A     -0.803433    20A     -0.731324    21A     -0.666672
      22A     -0.643537    23A     -0.609539    24A     -0.596375
      25A     -0.590539    26A     -0.587398    27A     -0.580852
      28A     -0.572251    29A     -0.559712    30A     -0.522540
      31A     -0.498111    32A     -0.490142    33A     -0.485960
      34A     -0.474904    35A     -0.473835    36A     -0.466282
      37A     -0.337787    38A     -0.302855

    Virtual:

      39A      0.125604    40A      0.153474    41A      0.171334
      42A      0.185804    43A      0.200545    44A      0.214436
      45A      0.223104    46A      0.243157    47A      0.258495
      48A      0.264318    49A      0.269536    50A      0.269890
      51A      0.279904    52A      0.291394    53A      0.298080
      54A      0.340357    55A      0.367932    56A      0.368539
      57A      0.406687    58A      0.444123    59A      0.454481
      60A      0.482369    61A      0.489970    62A      0.506847
      63A      0.592598    64A      0.604361    65A      0.610413
      66A      0.614231    67A      0.634267    68A      0.647544
      69A      0.657542    70A      0.671390    71A      0.685423
      72A      0.695188    73A      0.708651    74A      0.725631
      75A      0.728510    76A      0.735425    77A      0.756755
      78A      0.762026    79A      0.776693    80A      0.796877
      81A      0.804768    82A      0.838652    83A      0.847024
      84A      0.853837    85A      0.865077    86A      0.879081
      87A      0.887914    88A      0.893647    89A      0.897422
      90A      0.902362    91A      0.920085    92A      0.923856
      93A      0.925341    94A      0.926772    95A      0.943825
      96A      0.948512    97A      0.957437    98A      0.967050
      99A      0.994761   100A      1.016208   101A      1.020904
     102A      1.077925   103A      1.114941   104A      1.129865
     105A      1.140577   106A      1.143475   107A      1.153568
     108A      1.167449   109A      1.202174   110A      1.225572
     111A      1.240098   112A      1.257675   113A      1.264953
     114A      1.280124   115A      1.299679   116A      1.312572
     117A      1.334625   118A      1.354910   119A      1.379851
     120A      1.395871   121A      1.478825   122A      1.482595
     123A      1.488344   124A      1.501265   125A      1.514590
     126A      1.546254   127A      1.581216   128A      1.612658
     129A      1.654901   130A      1.676386   131A      1.685798
     132A      1.707140   133A      1.709481   134A      1.730918
     135A      1.750171   136A      1.774280   137A      1.799404
     138A      1.804641   139A      1.850371   140A      1.864480
     141A      1.867459   142A      1.879961   143A      1.890628
     144A      1.907556   145A      1.917221   146A      1.925956
     147A      1.930917   148A      1.940072   149A      1.954110
     150A      1.958985   151A      1.962961   152A      1.975331
     153A      1.976853   154A      1.982290   155A      1.985552
     156A      2.000525   157A      2.023438   158A      2.033887
     159A      2.046225   160A      2.062086   161A      2.072343
     162A      2.104591   163A      2.114788   164A      2.133003
     165A      2.149847   166A      2.174049   167A      2.196980
     168A      2.198611   169A      2.254451   170A      2.264679
     171A      2.300826   172A      2.306424   173A      2.321730
     174A      2.359832   175A      2.369790   176A      2.371557
     177A      2.439315   178A      2.468401   179A      2.476604
     180A      2.481977   181A      2.483495   182A      2.512013
     183A      2.556522   184A      2.583134   185A      2.599127
     186A      2.610001   187A      2.634732   188A      2.722213
     189A      2.761805   190A      2.772719   191A      2.781497
     192A      2.793818   193A      2.819906   194A      2.848023
     195A      2.854482   196A      2.875316   197A      2.900379
     198A      2.948345   199A      2.968621   200A      2.990955
     201A      2.999777   202A      3.065055   203A      3.119975
     204A      3.240732   205A      3.262187   206A      3.340936
     207A      3.568258   208A      3.656314   209A      3.947514
     210A      4.178461

    Final Occupation by Irrep:
              A
    DOCC [    38 ]

  @RHF Final Energy:  -423.85169759430846

   => Energetics <=

    Nuclear Repulsion Energy =            499.9689490455202758
    One-Electron Energy =               -1565.7903631069605126
    Two-Electron Energy =                 641.9697164671317751
    Total Energy =                       -423.8516975943084617

Computation Completed

Properties will be evaluated at   0.000000,   0.000000,   0.000000 [a0]

Properties computed using the SCF density matrix

  Nuclear Dipole Moment: [e a0]
     X:     8.4230      Y:     4.4443      Z:    -3.8373

  Electronic Dipole Moment: [e a0]
     X:    -8.6799      Y:    -4.1631      Z:     4.3080

  Dipole Moment: [e a0]
     X:    -0.2569      Y:     0.2812      Z:     0.4707     Total:     0.6055

  Dipole Moment: [D]
     X:    -0.6529      Y:     0.7147      Z:     1.1963     Total:     1.5389

*** tstop() called on ds3 at Tue Apr 28 21:43:47 2020
Module time:
	user time   =      90.98 seconds =       1.52 minutes
	system time =      37.04 seconds =       0.62 minutes
	total time  =        123 seconds =       2.05 minutes
Total time:
	user time   =      90.98 seconds =       1.52 minutes
	system time =      37.04 seconds =       0.62 minutes
	total time  =        123 seconds =       2.05 minutes
                                     G D M A

                                 by Anthony Stone

                           version 2.2.06, 22 June 2011

               Distributed Multipoles from Gaussian wavefunctions

Starting at 21:43:48 on 28 Apr 2020

Using SCF density matrix from file ./SSI/SSI-219VAL-222TYR-1-dimer.test.25573.fchk

                         Distributed Multipole Analysis

Standard DMA

Positions and radii in angstrom
Multipole moments in atomic units, ea_0^k for rank k

C          x =  3.282295  y = -0.944841  z = -0.987550 angstrom
           Maximum rank =  0   Radius =  0.650 angstrom
                   Q00  =  -0.231376

C          x =  3.510295  y =  0.420159  z = -0.361550 angstrom
           Maximum rank =  0   Radius =  0.650 angstrom
                   Q00  =  -0.231921

H          x =  3.471295  y = -0.895841  z = -2.058550 angstrom
           Maximum rank =  0   Radius =  0.325 angstrom
                   Q00  =   0.070117

H          x =  3.956295  y = -1.669841  z = -0.535550 angstrom
           Maximum rank =  0   Radius =  0.325 angstrom
                   Q00  =   0.072529

H          x =  2.252295  y = -1.253841  z = -0.818550 angstrom
           Maximum rank =  0   Radius =  0.325 angstrom
                   Q00  =   0.088169

H          x =  4.542295  y =  0.746159  z = -0.506550 angstrom
           Maximum rank =  0   Radius =  0.325 angstrom
                   Q00  =   0.073635

H          x =  2.828335  y =  1.145559  z = -0.829220 angstrom
           Maximum rank =  0   Radius =  0.325 angstrom
                   Q00  =   0.079335

H          x =  3.294705  y =  0.341359  z =  0.714240 angstrom
           Maximum rank =  0   Radius =  0.325 angstrom
                   Q00  =   0.072061

C          x = -2.472705  y =  2.416159  z = -0.746550 angstrom
           Maximum rank =  0   Radius =  0.650 angstrom
                   Q00  =  -0.218752

C          x = -0.482705  y = -0.843841  z = -0.764550 angstrom
           Maximum rank =  0   Radius =  0.650 angstrom
                   Q00  =  -0.125642

C          x = -0.246705  y = -1.043841  z =  0.601450 angstrom
           Maximum rank =  0   Radius =  0.650 angstrom
                   Q00  =   0.313344

C          x = -1.165705  y =  0.308159  z = -1.171550 angstrom
           Maximum rank =  0   Radius =  0.650 angstrom
                   Q00  =   0.050762

C          x = -1.621705  y =  1.255159  z = -0.249550 angstrom
           Maximum rank =  0   Radius =  0.650 angstrom
                   Q00  =  -0.123414

C          x = -0.675705  y = -0.099841  z =  1.541450 angstrom
           Maximum rank =  0   Radius =  0.650 angstrom
                   Q00  =  -0.156523

C          x = -1.372705  y =  1.047159  z =  1.114450 angstrom
           Maximum rank =  0   Radius =  0.650 angstrom
                   Q00  =  -0.060717

O          x =  0.368295  y = -2.185841  z =  1.026450 angstrom
           Maximum rank =  0   Radius =  0.650 angstrom
                   Q00  =  -0.676460

H          x = -0.146705  y = -1.565841  z = -1.498550 angstrom
           Maximum rank =  0   Radius =  0.325 angstrom
                   Q00  =   0.088178

H          x = -1.355705  y =  0.481159  z = -2.221550 angstrom
           Maximum rank =  0   Radius =  0.325 angstrom
                   Q00  =   0.067684

H          x = -0.440705  y = -0.249841  z =  2.587450 angstrom
           Maximum rank =  0   Radius =  0.325 angstrom
                   Q00  =   0.072695

H          x =  0.450295  y = -2.229841  z =  1.991450 angstrom
           Maximum rank =  0   Radius =  0.325 angstrom
                   Q00  =   0.411790

H          x = -3.505705  y =  2.247159  z = -0.433550 angstrom
           Maximum rank =  0   Radius =  0.325 angstrom
                   Q00  =   0.100188

H          x = -2.435705  y =  2.435159  z = -1.834550 angstrom
           Maximum rank =  0   Radius =  0.325 angstrom
                   Q00  =   0.093271

H          x = -1.720705  y =  1.766159  z =  1.842450 angstrom
           Maximum rank =  0   Radius =  0.325 angstrom
                   Q00  =   0.072247

H          x = -2.207335  y =  3.454259  z = -0.497500 angstrom
           Maximum rank =  0   Radius =  0.325 angstrom
                   Q00  =   0.098798

Total multipoles referred to origin at
           x =   0.000000,  y =    0.000000,  z =    0.000000 angstrom
                   Q00  =  -0.000000

Finished at 21:43:48 on 28 Apr 2020

  DMA results are available in the Python driver through the
	  variable('DMA DISTRIBUTED MULTIPOLES')
  and
	  variable('DMA TOTAL MULTIPOLES')
  commands.

    Psi4 stopped on: Tuesday, 28 April 2020 09:43PM
    Psi4 wall time for execution: 0:02:04.02

*** Psi4 exiting successfully. Buy a developer a beer!
