                               Psi4 1.3.2 release

  ==> Input File <==

--------------------------------------------------------------------------
import numpy as np
set {scf_type pk
basis cc-pvdz
d_convergence 10
gdma_switch   0
gdma_limit    0
gdma_origin   [ 0.0,  0.0,  0.0 ]
}
molecule test {
    units Angstrom
    0 1
    --
    0 1
    C                2.203384877768941     1.077827357501569     1.584074006730429
    C                2.156384877768940     1.790827357501569     2.940074006730429
    H                2.387384877768941     0.010827357501569     1.718074006730429
    H                1.271384877768940     1.196827357501569     1.041074006730429
    H                2.976384877768941     1.501827357501569     0.944074006730429
    H                2.084384877768941     2.862827357501569     2.765074006730429
    H                3.070884877768941     1.580717357501569     3.514134006730429
    H                1.268684877768941     1.454707357501569     3.495964006730429
    C                1.529384877768941    -0.764172642498431    -2.607925993269571
    C               -0.166615122231059     0.663827357501569    -1.428925993269571
    C                0.431384877768941    -0.589172642498431    -1.590925993269571
    C               -1.180615122231059     0.856827357501569    -0.492925993269571
    C               -0.007615122231059    -1.656172642498431    -0.796925993269571
    C               -1.605615122231060    -0.211172642498431     0.294074006730429
    C               -1.022615122231060    -1.472172642498431     0.143074006730429
    O               -2.588615122231059    -0.014172642498431     1.216074006730429
    H                0.156384877768941     1.489827357501569    -2.047925993269571
    H               -1.633615122231059     1.826827357501569    -0.374925993269571
    H                2.245384877768941     0.049827357501569    -2.486925993269571
    H                1.078384877768941    -0.658172642498431    -3.595925993269571
    H                0.406384877768941    -2.647172642498431    -0.890925993269571
    H               -1.360615122231059    -2.302172642498431     0.747074006730429
    H               -2.768615122231060    -0.805172642498431     1.736074006730429
    H                2.068614877768940    -1.722232642498431    -2.571155993269571

}
e, wfn = energy('scf', return_wfn=True)
gdma(wfn)
dmavals = variable('DMA DISTRIBUTED MULTIPOLES')
charges = np.array(dmavals)
print(charges)
np.save('SSI-077ILE-128TYR-2-dimer.npy', np.array(charges))--------------------------------------------------------------------------

*** tstart() called on ds3
*** at Tue Apr 28 01:58:12 2020

   => Loading Basis Set <=

    Name: CC-PVDZ
    Role: ORBITAL
    Keyword: BASIS
    atoms 1-2, 9-15  entry C          line   138 file /theoryfs2/ds/metcalf/miniconda2/envs/tf2gpu/share/psi4/basis/cc-pvdz.gbs
    atoms 3-8, 17-24 entry H          line    22 file /theoryfs2/ds/metcalf/miniconda2/envs/tf2gpu/share/psi4/basis/cc-pvdz.gbs
    atoms 16         entry O          line   198 file /theoryfs2/ds/metcalf/miniconda2/envs/tf2gpu/share/psi4/basis/cc-pvdz.gbs

         ---------------------------------------------------------
                                   SCF
               by Justin Turney, Rob Parrish, Andy Simmonett
                          and Daniel G. A. Smith
                              RHF Reference
                        1 Threads,    500 MiB Core
         ---------------------------------------------------------

  ==> Geometry <==

    Molecular point group: c1
    Full point group: C1

    Geometry (in Angstrom), charge = 0, multiplicity = 1:

       Center              X                  Y                   Z               Mass
    ------------   -----------------  -----------------  -----------------  -----------------
         C            2.203384877769     1.077827357502     1.584074006730    12.000000000000
         C            2.156384877769     1.790827357502     2.940074006730    12.000000000000
         H            2.387384877769     0.010827357502     1.718074006730     1.007825032230
         H            1.271384877769     1.196827357502     1.041074006730     1.007825032230
         H            2.976384877769     1.501827357502     0.944074006730     1.007825032230
         H            2.084384877769     2.862827357502     2.765074006730     1.007825032230
         H            3.070884877769     1.580717357502     3.514134006730     1.007825032230
         H            1.268684877769     1.454707357502     3.495964006730     1.007825032230
         C            1.529384877769    -0.764172642498    -2.607925993270    12.000000000000
         C           -0.166615122231     0.663827357502    -1.428925993270    12.000000000000
         C            0.431384877769    -0.589172642498    -1.590925993270    12.000000000000
         C           -1.180615122231     0.856827357502    -0.492925993270    12.000000000000
         C           -0.007615122231    -1.656172642498    -0.796925993270    12.000000000000
         C           -1.605615122231    -0.211172642498     0.294074006730    12.000000000000
         C           -1.022615122231    -1.472172642498     0.143074006730    12.000000000000
         O           -2.588615122231    -0.014172642498     1.216074006730    15.994914619570
         H            0.156384877769     1.489827357502    -2.047925993270     1.007825032230
         H           -1.633615122231     1.826827357502    -0.374925993270     1.007825032230
         H            2.245384877769     0.049827357502    -2.486925993270     1.007825032230
         H            1.078384877769    -0.658172642498    -3.595925993270     1.007825032230
         H            0.406384877769    -2.647172642498    -0.890925993270     1.007825032230
         H           -1.360615122231    -2.302172642498     0.747074006730     1.007825032230
         H           -2.768615122231    -0.805172642498     1.736074006730     1.007825032230
         H            2.068614877769    -1.722232642498    -2.571155993270     1.007825032230

  Running in c1 symmetry.

  Rotational constants: A =      0.03831  B =      0.02952  C =      0.02030 [cm^-1]
  Rotational constants: A =   1148.63705  B =    885.00783  C =    608.56593 [MHz]
  Nuclear repulsion =  500.049070233875739

  Charge       = 0
  Multiplicity = 1
  Electrons    = 76
  Nalpha       = 38
  Nbeta        = 38

  ==> Algorithm <==

  SCF Algorithm Type is PK.
  DIIS enabled.
  MOM disabled.
  Fractional occupation disabled.
  Guess Type is SAD.
  Energy threshold   = 1.00e-06
  Density threshold  = 1.00e-10
  Integral threshold = 0.00e+00

  ==> Primary Basis <==

  Basis Set: CC-PVDZ
    Blend: CC-PVDZ
    Number of shells: 102
    Number of basis function: 210
    Number of Cartesian functions: 220
    Spherical Harmonics?: true
    Max angular momentum: 2

  ==> Pre-Iterations <==

   -------------------------------------------------------
    Irrep   Nso     Nmo     Nalpha   Nbeta   Ndocc  Nsocc
   -------------------------------------------------------
     A        210     210       0       0       0       0
   -------------------------------------------------------
    Total     210     210      38      38      38       0
   -------------------------------------------------------

  ==> Integral Setup <==

  Using integral reordering PK algorithm.
  Sizing the integral batches needed.
  Building batch lookup table.
   Calculation information:
      Number of atoms:                  24
      Number of AO shells:             102
      Number of primitives:            290
      Number of atomic orbitals:       220
      Number of basis functions:       210

      Integral cutoff                 1.00e-12
      Number of threads:                 1

	Batch   1 pq = [       0,    9405] index = [             0,44231715] size =     44231715
	Batch   2 pq = [    9405,   13301] index = [      44231715,88464951] size =     44233236
	Batch   3 pq = [   13301,   16290] index = [      88464951,132690195] size =     44225244
	Batch   4 pq = [   16290,   18810] index = [     132690195,176917455] size =     44227260
	Batch   5 pq = [   18810,   21030] index = [     176917455,221140965] size =     44223510
	Batch   6 pq = [   21030,   22155] index = [     221140965,245433090] size =     24292125
  Task number: 23
  Buffer size: 11059200
  Buffer per thread: 2
  We computed 12460031 shell quartets total.
  Whereas there are 13799631 unique shell quartets.

  ==> DiskJK: Disk-Based J/K Matrices <==

    J tasked:                  Yes
    K tasked:                  Yes
    wK tasked:                  No
    Memory [MiB]:              375
    Schwarz Cutoff:          1E-12

    OpenMP threads:              1

  Minimum eigenvalue in the overlap matrix is 3.2959902640E-04.
  Using Symmetric Orthogonalization.

  SCF Guess: Superposition of Atomic Densities via on-the-fly atomic UHF.

  ==> Iterations <==

                        Total Energy        Delta E     RMS |[F,P]|

   @RHF iter SAD:  -422.63440961865751   -4.22634e+02   0.00000e+00
   @RHF iter   1:  -423.60252536729774   -9.68116e-01   2.97373e-03 DIIS
   @RHF iter   2:  -423.81840944302593   -2.15884e-01   1.24899e-03 DIIS
   @RHF iter   3:  -423.85282786233915   -3.44184e-02   2.80541e-04 DIIS
   @RHF iter   4:  -423.85564633196799   -2.81847e-03   1.14923e-04 DIIS
   @RHF iter   5:  -423.85598498622716   -3.38654e-04   2.09037e-05 DIIS
   @RHF iter   6:  -423.85600260970654   -1.76235e-05   6.45321e-06 DIIS
   @RHF iter   7:  -423.85600429237707   -1.68267e-06   2.13335e-06 DIIS
   @RHF iter   8:  -423.85600454163404   -2.49257e-07   8.04196e-07 DIIS
   @RHF iter   9:  -423.85600458716738   -4.55333e-08   3.34722e-07 DIIS
   @RHF iter  10:  -423.85600459669899   -9.53162e-09   1.42504e-07 DIIS
   @RHF iter  11:  -423.85600459965394   -2.95495e-09   6.29189e-08 DIIS
   @RHF iter  12:  -423.85600460013546   -4.81521e-10   2.76118e-08 DIIS
   @RHF iter  13:  -423.85600460020714   -7.16796e-11   8.31800e-09 DIIS
   @RHF iter  14:  -423.85600460021112   -3.97904e-12   2.30924e-09 DIIS
   @RHF iter  15:  -423.85600460021197   -8.52651e-13   9.08413e-10 DIIS
   @RHF iter  16:  -423.85600460021476   -2.78533e-12   3.87850e-10 DIIS
   @RHF iter  17:  -423.85600460021288    1.87583e-12   1.77106e-10 DIIS
   @RHF iter  18:  -423.85600460021243    4.54747e-13   8.39269e-11 DIIS
  Energy and wave function converged.

  ==> Post-Iterations <==

    Orbital Energies [Eh]
    ---------------------

    Doubly Occupied:

       1A    -20.582866     2A    -11.300186     3A    -11.239826
       4A    -11.239019     5A    -11.235799     6A    -11.233885
       7A    -11.231281     8A    -11.228366     9A    -11.212373
      10A    -11.204349    11A     -1.399529    12A     -1.149219
      13A     -1.036537    14A     -1.018179    15A     -1.007548
      16A     -0.925835    17A     -0.843422    18A     -0.828839
      19A     -0.803168    20A     -0.732658    21A     -0.665572
      22A     -0.642616    23A     -0.607589    24A     -0.589976
      25A     -0.589375    26A     -0.588025    27A     -0.582774
      28A     -0.569746    29A     -0.566239    30A     -0.530216
      31A     -0.495853    32A     -0.492893    33A     -0.486361
      34A     -0.478307    35A     -0.478004    36A     -0.460393
      37A     -0.338769    38A     -0.299778

    Virtual:

      39A      0.128757    40A      0.156215    41A      0.177672
      42A      0.180911    43A      0.198415    44A      0.214999
      45A      0.218297    46A      0.244174    47A      0.258625
      48A      0.262601    49A      0.266153    50A      0.271141
      51A      0.278120    52A      0.288922    53A      0.301273
      54A      0.316694    55A      0.369174    56A      0.373073
      57A      0.402652    58A      0.430006    59A      0.452957
      60A      0.478766    61A      0.492462    62A      0.509927
      63A      0.586046    64A      0.595452    65A      0.606041
      66A      0.615773    67A      0.637577    68A      0.647602
      69A      0.656181    70A      0.671754    71A      0.684084
      72A      0.691327    73A      0.697069    74A      0.729218
      75A      0.735538    76A      0.760182    77A      0.763517
      78A      0.780158    79A      0.787750    80A      0.795329
      81A      0.820893    82A      0.831157    83A      0.841702
      84A      0.857522    85A      0.875005    86A      0.883569
      87A      0.886411    88A      0.892245    89A      0.899304
      90A      0.900160    91A      0.908115    92A      0.914521
      93A      0.919854    94A      0.928248    95A      0.938515
      96A      0.946714    97A      0.948178    98A      0.961482
      99A      0.997096   100A      1.015338   101A      1.048240
     102A      1.088268   103A      1.125000   104A      1.131975
     105A      1.138487   106A      1.143209   107A      1.147697
     108A      1.179464   109A      1.204165   110A      1.239259
     111A      1.245664   112A      1.249879   113A      1.280644
     114A      1.285943   115A      1.305527   116A      1.310558
     117A      1.314665   118A      1.355074   119A      1.361634
     120A      1.398218   121A      1.475504   122A      1.483610
     123A      1.486533   124A      1.500133   125A      1.533350
     126A      1.572326   127A      1.598496   128A      1.614307
     129A      1.621455   130A      1.678313   131A      1.686632
     132A      1.689302   133A      1.710326   134A      1.730986
     135A      1.744447   136A      1.783811   137A      1.800367
     138A      1.813758   139A      1.849419   140A      1.876651
     141A      1.880560   142A      1.887651   143A      1.898681
     144A      1.906210   145A      1.911617   146A      1.917866
     147A      1.923689   148A      1.935731   149A      1.950226
     150A      1.953762   151A      1.958058   152A      1.959120
     153A      1.963483   154A      1.972223   155A      1.984504
     156A      1.997716   157A      2.021104   158A      2.054076
     159A      2.072885   160A      2.075808   161A      2.098438
     162A      2.107916   163A      2.121850   164A      2.128818
     165A      2.146031   166A      2.161669   167A      2.189368
     168A      2.215406   169A      2.262408   170A      2.268825
     171A      2.296237   172A      2.303994   173A      2.343092
     174A      2.360803   175A      2.382309   176A      2.399872
     177A      2.453870   178A      2.458995   179A      2.466199
     180A      2.476873   181A      2.487927   182A      2.523127
     183A      2.546431   184A      2.574252   185A      2.584256
     186A      2.621249   187A      2.640221   188A      2.730290
     189A      2.765990   190A      2.772109   191A      2.773260
     192A      2.804228   193A      2.806471   194A      2.841936
     195A      2.858763   196A      2.876959   197A      2.895377
     198A      2.951834   199A      2.964903   200A      2.995255
     201A      3.000562   202A      3.090172   203A      3.144564
     204A      3.248027   205A      3.274828   206A      3.348274
     207A      3.570624   208A      3.672792   209A      3.963288
     210A      4.191833

    Final Occupation by Irrep:
              A
    DOCC [    38 ]

  @RHF Final Energy:  -423.85600460021243

   => Energetics <=

    Nuclear Repulsion Energy =            500.0490702338757387
    One-Electron Energy =               -1565.9794122407797659
    Two-Electron Energy =                 642.0743374066917113
    Total Energy =                       -423.8560046002123727

Computation Completed

Properties will be evaluated at   0.000000,   0.000000,   0.000000 [a0]

Properties computed using the SCF density matrix

  Nuclear Dipole Moment: [e a0]
     X:    12.4104      Y:     3.5992      Z:     3.7499

  Electronic Dipole Moment: [e a0]
     X:   -12.2976      Y:    -4.1516      Z:    -3.7964

  Dipole Moment: [e a0]
     X:     0.1128      Y:    -0.5525      Z:    -0.0466     Total:     0.5658

  Dipole Moment: [D]
     X:     0.2866      Y:    -1.4042      Z:    -0.1184     Total:     1.4380

*** tstop() called on ds3 at Tue Apr 28 02:00:11 2020
Module time:
	user time   =      85.91 seconds =       1.43 minutes
	system time =      36.55 seconds =       0.61 minutes
	total time  =        119 seconds =       1.98 minutes
Total time:
	user time   =      85.91 seconds =       1.43 minutes
	system time =      36.55 seconds =       0.61 minutes
	total time  =        119 seconds =       1.98 minutes
                                     G D M A

                                 by Anthony Stone

                           version 2.2.06, 22 June 2011

               Distributed Multipoles from Gaussian wavefunctions

Starting at 2:0:11 on 28 Apr 2020

Using SCF density matrix from file ./SSI/SSI-077ILE-128TYR-2-dimer.test.10059.fchk

                         Distributed Multipole Analysis

Standard DMA

Positions and radii in angstrom
Multipole moments in atomic units, ea_0^k for rank k

C          x =  2.203385  y =  1.077827  z =  1.584074 angstrom
           Maximum rank =  0   Radius =  0.650 angstrom
                   Q00  =  -0.240149

C          x =  2.156385  y =  1.790827  z =  2.940074 angstrom
           Maximum rank =  0   Radius =  0.650 angstrom
                   Q00  =  -0.237084

H          x =  2.387385  y =  0.010827  z =  1.718074 angstrom
           Maximum rank =  0   Radius =  0.325 angstrom
                   Q00  =   0.076218

H          x =  1.271385  y =  1.196827  z =  1.041074 angstrom
           Maximum rank =  0   Radius =  0.325 angstrom
                   Q00  =   0.097068

H          x =  2.976385  y =  1.501827  z =  0.944074 angstrom
           Maximum rank =  0   Radius =  0.325 angstrom
                   Q00  =   0.069561

H          x =  2.084385  y =  2.862827  z =  2.765074 angstrom
           Maximum rank =  0   Radius =  0.325 angstrom
                   Q00  =   0.077264

H          x =  3.070885  y =  1.580717  z =  3.514134 angstrom
           Maximum rank =  0   Radius =  0.325 angstrom
                   Q00  =   0.075845

H          x =  1.268685  y =  1.454707  z =  3.495964 angstrom
           Maximum rank =  0   Radius =  0.325 angstrom
                   Q00  =   0.078431

C          x =  1.529385  y = -0.764173  z = -2.607926 angstrom
           Maximum rank =  0   Radius =  0.650 angstrom
                   Q00  =  -0.202192

C          x = -0.166615  y =  0.663827  z = -1.428926 angstrom
           Maximum rank =  0   Radius =  0.650 angstrom
                   Q00  =   0.019758

C          x =  0.431385  y = -0.589173  z = -1.590926 angstrom
           Maximum rank =  0   Radius =  0.650 angstrom
                   Q00  =  -0.121598

C          x = -1.180615  y =  0.856827  z = -0.492926 angstrom
           Maximum rank =  0   Radius =  0.650 angstrom
                   Q00  =  -0.113903

C          x = -0.007615  y = -1.656173  z = -0.796926 angstrom
           Maximum rank =  0   Radius =  0.650 angstrom
                   Q00  =  -0.015647

C          x = -1.605615  y = -0.211173  z =  0.294074 angstrom
           Maximum rank =  0   Radius =  0.650 angstrom
                   Q00  =   0.324221

C          x = -1.022615  y = -1.472173  z =  0.143074 angstrom
           Maximum rank =  0   Radius =  0.650 angstrom
                   Q00  =  -0.199806

O          x = -2.588615  y = -0.014173  z =  1.216074 angstrom
           Maximum rank =  0   Radius =  0.650 angstrom
                   Q00  =  -0.673570

H          x =  0.156385  y =  1.489827  z = -2.047926 angstrom
           Maximum rank =  0   Radius =  0.325 angstrom
                   Q00  =   0.062749

H          x = -1.633615  y =  1.826827  z = -0.374926 angstrom
           Maximum rank =  0   Radius =  0.325 angstrom
                   Q00  =   0.081225

H          x =  2.245385  y =  0.049827  z = -2.486926 angstrom
           Maximum rank =  0   Radius =  0.325 angstrom
                   Q00  =   0.096432

H          x =  1.078385  y = -0.658173  z = -3.595926 angstrom
           Maximum rank =  0   Radius =  0.325 angstrom
                   Q00  =   0.095902

H          x =  0.406385  y = -2.647173  z = -0.890926 angstrom
           Maximum rank =  0   Radius =  0.325 angstrom
                   Q00  =   0.069920

H          x = -1.360615  y = -2.302173  z =  0.747074 angstrom
           Maximum rank =  0   Radius =  0.325 angstrom
                   Q00  =   0.072189

H          x = -2.768615  y = -0.805173  z =  1.736074 angstrom
           Maximum rank =  0   Radius =  0.325 angstrom
                   Q00  =   0.406741

H          x =  2.068615  y = -1.722233  z = -2.571156 angstrom
           Maximum rank =  0   Radius =  0.325 angstrom
                   Q00  =   0.100426

Total multipoles referred to origin at
           x =   0.000000,  y =    0.000000,  z =    0.000000 angstrom
                   Q00  =  -0.000000

Finished at 2:0:11 on 28 Apr 2020

  DMA results are available in the Python driver through the
	  variable('DMA DISTRIBUTED MULTIPOLES')
  and
	  variable('DMA TOTAL MULTIPOLES')
  commands.

    Psi4 stopped on: Tuesday, 28 April 2020 02:00AM
    Psi4 wall time for execution: 0:01:58.78

*** Psi4 exiting successfully. Buy a developer a beer!
