                               Psi4 1.3.2 release

  ==> Input File <==

--------------------------------------------------------------------------
import numpy as np
set {scf_type pk
basis cc-pvdz
d_convergence 10
gdma_switch   0
gdma_limit    0
gdma_origin   [ 0.0,  0.0,  0.0 ]
}
molecule test {
    units Angstrom
    0 1
    --
    0 1
    C                2.134422537375954    -0.446274218172945     1.087219028749195
    C                3.134422537375954     0.588725781827055     1.576219028749195
    H                2.000422537375954    -1.235274218172945     1.828219028749195
    H                1.169422537375954     0.034725781827055     0.926219028749195
    H                2.477422537375954    -0.883274218172945     0.149219028749195
    H                2.741422537375954     1.040725781827055     2.486219028749195
    H                4.111772537375954     0.132625781827055     1.792454028749195
    H                3.236952537375954     1.373555781827055     0.812327028749195
    C               -1.271577462624046    -0.130274218172945    -0.709780971250805
    C               -1.824577462624046    -0.853274218172945    -1.947780971250805
    C               -2.258577462624046     0.825725781827055    -0.056780971250805
    H               -0.963577462624046    -0.870274218172945     0.031219028749195
    H               -0.388577462624046     0.441725781827055    -0.982780971250805
    H               -2.200577462624046    -0.107274218172945    -2.646780971250805
    H               -3.033577462624046     0.274725781827055     0.475219028749195
    H               -1.730577462624046     1.458725781827055     0.655219028749195
    H               -2.717577462624046     1.460725781827055    -0.813780971250805
    H               -1.017747462624046    -1.425604218172945    -2.428884971250805
    H               -2.662557462624046    -1.512814218172945    -1.677970971250805

}
e, wfn = energy('scf', return_wfn=True)
gdma(wfn)
dmavals = variable('DMA DISTRIBUTED MULTIPOLES')
charges = np.array(dmavals)
print(charges)
np.save('SSI-165VAL-177ILE-1-dimer.npy', np.array(charges))--------------------------------------------------------------------------

*** tstart() called on ds3
*** at Sun Apr 26 18:46:58 2020

   => Loading Basis Set <=

    Name: CC-PVDZ
    Role: ORBITAL
    Keyword: BASIS
    atoms 1-2, 9-11  entry C          line   138 file /theoryfs2/ds/metcalf/miniconda2/envs/tf2gpu/share/psi4/basis/cc-pvdz.gbs
    atoms 3-8, 12-19 entry H          line    22 file /theoryfs2/ds/metcalf/miniconda2/envs/tf2gpu/share/psi4/basis/cc-pvdz.gbs

         ---------------------------------------------------------
                                   SCF
               by Justin Turney, Rob Parrish, Andy Simmonett
                          and Daniel G. A. Smith
                              RHF Reference
                        1 Threads,    500 MiB Core
         ---------------------------------------------------------

  ==> Geometry <==

    Molecular point group: c1
    Full point group: C1

    Geometry (in Angstrom), charge = 0, multiplicity = 1:

       Center              X                  Y                   Z               Mass
    ------------   -----------------  -----------------  -----------------  -----------------
         C            2.134422537376    -0.446274218173     1.087219028749    12.000000000000
         C            3.134422537376     0.588725781827     1.576219028749    12.000000000000
         H            2.000422537376    -1.235274218173     1.828219028749     1.007825032230
         H            1.169422537376     0.034725781827     0.926219028749     1.007825032230
         H            2.477422537376    -0.883274218173     0.149219028749     1.007825032230
         H            2.741422537376     1.040725781827     2.486219028749     1.007825032230
         H            4.111772537376     0.132625781827     1.792454028749     1.007825032230
         H            3.236952537376     1.373555781827     0.812327028749     1.007825032230
         C           -1.271577462624    -0.130274218173    -0.709780971251    12.000000000000
         C           -1.824577462624    -0.853274218173    -1.947780971251    12.000000000000
         C           -2.258577462624     0.825725781827    -0.056780971251    12.000000000000
         H           -0.963577462624    -0.870274218173     0.031219028749     1.007825032230
         H           -0.388577462624     0.441725781827    -0.982780971251     1.007825032230
         H           -2.200577462624    -0.107274218173    -2.646780971251     1.007825032230
         H           -3.033577462624     0.274725781827     0.475219028749     1.007825032230
         H           -1.730577462624     1.458725781827     0.655219028749     1.007825032230
         H           -2.717577462624     1.460725781827    -0.813780971251     1.007825032230
         H           -1.017747462624    -1.425604218173    -2.428884971251     1.007825032230
         H           -2.662557462624    -1.512814218173    -1.677970971251     1.007825032230

  Running in c1 symmetry.

  Rotational constants: A =      0.23206  B =      0.03511  C =      0.03190 [cm^-1]
  Rotational constants: A =   6956.94904  B =   1052.42950  C =    956.36909 [MHz]
  Nuclear repulsion =  174.689815715756652

  Charge       = 0
  Multiplicity = 1
  Electrons    = 44
  Nalpha       = 22
  Nbeta        = 22

  ==> Algorithm <==

  SCF Algorithm Type is PK.
  DIIS enabled.
  MOM disabled.
  Fractional occupation disabled.
  Guess Type is SAD.
  Energy threshold   = 1.00e-06
  Density threshold  = 1.00e-10
  Integral threshold = 0.00e+00

  ==> Primary Basis <==

  Basis Set: CC-PVDZ
    Blend: CC-PVDZ
    Number of shells: 72
    Number of basis function: 140
    Number of Cartesian functions: 145
    Spherical Harmonics?: true
    Max angular momentum: 2

  ==> Pre-Iterations <==

   -------------------------------------------------------
    Irrep   Nso     Nmo     Nalpha   Nbeta   Ndocc  Nsocc
   -------------------------------------------------------
     A        140     140       0       0       0       0
   -------------------------------------------------------
    Total     140     140      22      22      22       0
   -------------------------------------------------------

  ==> Integral Setup <==

  Using integral reordering PK algorithm.
  Sizing the integral batches needed.
  Building batch lookup table.
   Calculation information:
      Number of atoms:                  19
      Number of AO shells:              72
      Number of primitives:            180
      Number of atomic orbitals:       145
      Number of basis functions:       140

      Integral cutoff                 1.00e-12
      Number of threads:                 1

	Batch   1 pq = [       0,    9405] index = [             0,44231715] size =     44231715
	Batch   2 pq = [    9405,    9870] index = [      44231715,48713385] size =      4481670
  Task number: 5
  Buffer size: 11059200
  Buffer per thread: 2
  We computed 2704045 shell quartets total.
  Whereas there are 3454506 unique shell quartets.

  ==> DiskJK: Disk-Based J/K Matrices <==

    J tasked:                  Yes
    K tasked:                  Yes
    wK tasked:                  No
    Memory [MiB]:              375
    Schwarz Cutoff:          1E-12

    OpenMP threads:              1

  Minimum eigenvalue in the overlap matrix is 5.3797537132E-03.
  Using Symmetric Orthogonalization.

  SCF Guess: Superposition of Atomic Densities via on-the-fly atomic UHF.

  ==> Iterations <==

                        Total Energy        Delta E     RMS |[F,P]|

   @RHF iter SAD:  -196.37130487572693   -1.96371e+02   0.00000e+00
   @RHF iter   1:  -197.31171634419155   -9.40411e-01   3.81460e-03 DIIS
   @RHF iter   2:  -197.47231254344291   -1.60596e-01   1.64470e-03 DIIS
   @RHF iter   3:  -197.50085145109318   -2.85389e-02   3.26027e-04 DIIS
   @RHF iter   4:  -197.50308442333443   -2.23297e-03   4.88251e-05 DIIS
   @RHF iter   5:  -197.50312384320213   -3.94199e-05   1.48444e-05 DIIS
   @RHF iter   6:  -197.50312721732445   -3.37412e-06   2.46320e-06 DIIS
   @RHF iter   7:  -197.50312732503983   -1.07715e-07   4.54930e-07 DIIS
   @RHF iter   8:  -197.50312732921034   -4.17052e-09   1.18380e-07 DIIS
   @RHF iter   9:  -197.50312732947418   -2.63839e-10   3.62500e-08 DIIS
   @RHF iter  10:  -197.50312732950425   -3.00702e-11   7.88798e-09 DIIS
   @RHF iter  11:  -197.50312732950673   -2.47269e-12   1.51141e-09 DIIS
   @RHF iter  12:  -197.50312732950616    5.68434e-13   2.78759e-10 DIIS
   @RHF iter  13:  -197.50312732950687   -7.10543e-13   4.93335e-11 DIIS
  Energy and wave function converged.

  ==> Post-Iterations <==

    Orbital Energies [Eh]
    ---------------------

    Doubly Occupied:

       1A    -11.218625     2A    -11.218362     3A    -11.217903
       4A    -11.215159     5A    -11.214285     6A     -1.053159
       7A     -1.020102     8A     -0.925435     9A     -0.835140
      10A     -0.796520    11A     -0.625217    12A     -0.600762
      13A     -0.599086    14A     -0.593446    15A     -0.551104
      16A     -0.532129    17A     -0.501644    18A     -0.486677
      19A     -0.484490    20A     -0.471178    21A     -0.467193
      22A     -0.466521

    Virtual:

      23A      0.171243    24A      0.193228    25A      0.218800
      26A      0.223742    27A      0.230221    28A      0.250069
      29A      0.256172    30A      0.264933    31A      0.275687
      32A      0.285445    33A      0.287579    34A      0.295836
      35A      0.306798    36A      0.331210    37A      0.382650
      38A      0.400702    39A      0.435801    40A      0.569319
      41A      0.586984    42A      0.601225    43A      0.605035
      44A      0.608429    45A      0.615653    46A      0.629950
      47A      0.658170    48A      0.683070    49A      0.759578
      50A      0.792670    51A      0.801011    52A      0.849876
      53A      0.868978    54A      0.879091    55A      0.889404
      56A      0.893067    57A      0.895640    58A      0.897472
      59A      0.899815    60A      0.900523    61A      0.906921
      62A      0.915808    63A      0.923707    64A      0.938199
      65A      0.941982    66A      0.962781    67A      0.982996
      68A      1.016848    69A      1.122034    70A      1.127847
      71A      1.129389    72A      1.153208    73A      1.201483
      74A      1.256410    75A      1.389440    76A      1.468060
      77A      1.473464    78A      1.480659    79A      1.488928
      80A      1.532946    81A      1.583601    82A      1.639173
      83A      1.669157    84A      1.680753    85A      1.687140
      86A      1.697537    87A      1.708144    88A      1.845495
      89A      1.860036    90A      1.870739    91A      1.878788
      92A      1.886410    93A      1.907635    94A      1.918998
      95A      1.924628    96A      1.943106    97A      1.948090
      98A      1.950775    99A      1.955665   100A      1.959506
     101A      1.964204   102A      1.979674   103A      1.982185
     104A      1.997339   105A      2.005718   106A      2.024250
     107A      2.056478   108A      2.100179   109A      2.116216
     110A      2.134543   111A      2.161297   112A      2.286047
     113A      2.296148   114A      2.312359   115A      2.314027
     116A      2.332257   117A      2.353548   118A      2.452052
     119A      2.467819   120A      2.491864   121A      2.541051
     122A      2.563470   123A      2.573987   124A      2.579000
     125A      2.623374   126A      2.630653   127A      2.752033
     128A      2.761058   129A      2.770963   130A      2.786291
     131A      2.796070   132A      2.819623   133A      2.847945
     134A      2.861706   135A      2.914875   136A      2.946911
     137A      2.952443   138A      2.972568   139A      2.981205
     140A      3.065033

    Final Occupation by Irrep:
              A
    DOCC [    22 ]

  @RHF Final Energy:  -197.50312732950687

   => Energetics <=

    Nuclear Repulsion Energy =            174.6898157157566516
    One-Electron Energy =                -610.1976118343488906
    Two-Electron Energy =                 238.0046687890853718
    Total Energy =                       -197.5031273295068672

Computation Completed

Properties will be evaluated at   0.000000,   0.000000,   0.000000 [a0]

Properties computed using the SCF density matrix

  Nuclear Dipole Moment: [e a0]
     X:     0.9587      Y:     0.1716      Z:     0.5682

  Electronic Dipole Moment: [e a0]
     X:    -0.9496      Y:    -0.1703      Z:    -0.5579

  Dipole Moment: [e a0]
     X:     0.0091      Y:     0.0013      Z:     0.0103     Total:     0.0138

  Dipole Moment: [D]
     X:     0.0231      Y:     0.0033      Z:     0.0263     Total:     0.0351

*** tstop() called on ds3 at Sun Apr 26 18:47:17 2020
Module time:
	user time   =      13.68 seconds =       0.23 minutes
	system time =       5.97 seconds =       0.10 minutes
	total time  =         19 seconds =       0.32 minutes
Total time:
	user time   =      13.68 seconds =       0.23 minutes
	system time =       5.97 seconds =       0.10 minutes
	total time  =         19 seconds =       0.32 minutes
                                     G D M A

                                 by Anthony Stone

                           version 2.2.06, 22 June 2011

               Distributed Multipoles from Gaussian wavefunctions

Starting at 18:47:17 on 26 Apr 2020

Using SCF density matrix from file ./SSI/SSI-165VAL-177ILE-1-dimer.test.15264.fchk

                         Distributed Multipole Analysis

Standard DMA

Positions and radii in angstrom
Multipole moments in atomic units, ea_0^k for rank k

C          x =  2.134423  y = -0.446274  z =  1.087219 angstrom
           Maximum rank =  0   Radius =  0.650 angstrom
                   Q00  =  -0.234118

C          x =  3.134423  y =  0.588726  z =  1.576219 angstrom
           Maximum rank =  0   Radius =  0.650 angstrom
                   Q00  =  -0.234687

H          x =  2.000423  y = -1.235274  z =  1.828219 angstrom
           Maximum rank =  0   Radius =  0.325 angstrom
                   Q00  =   0.077441

H          x =  1.169423  y =  0.034726  z =  0.926219 angstrom
           Maximum rank =  0   Radius =  0.325 angstrom
                   Q00  =   0.080081

H          x =  2.477423  y = -0.883274  z =  0.149219 angstrom
           Maximum rank =  0   Radius =  0.325 angstrom
                   Q00  =   0.077341

H          x =  2.741423  y =  1.040726  z =  2.486219 angstrom
           Maximum rank =  0   Radius =  0.325 angstrom
                   Q00  =   0.076855

H          x =  4.111773  y =  0.132626  z =  1.792454 angstrom
           Maximum rank =  0   Radius =  0.325 angstrom
                   Q00  =   0.079529

H          x =  3.236953  y =  1.373556  z =  0.812327 angstrom
           Maximum rank =  0   Radius =  0.325 angstrom
                   Q00  =   0.076398

C          x = -1.271577  y = -0.130274  z = -0.709781 angstrom
           Maximum rank =  0   Radius =  0.650 angstrom
                   Q00  =  -0.084149

C          x = -1.824577  y = -0.853274  z = -1.947781 angstrom
           Maximum rank =  0   Radius =  0.650 angstrom
                   Q00  =  -0.239684

C          x = -2.258577  y =  0.825726  z = -0.056781 angstrom
           Maximum rank =  0   Radius =  0.650 angstrom
                   Q00  =  -0.241053

H          x = -0.963577  y = -0.870274  z =  0.031219 angstrom
           Maximum rank =  0   Radius =  0.325 angstrom
                   Q00  =   0.046975

H          x = -0.388577  y =  0.441726  z = -0.982781 angstrom
           Maximum rank =  0   Radius =  0.325 angstrom
                   Q00  =   0.043741

H          x = -2.200577  y = -0.107274  z = -2.646781 angstrom
           Maximum rank =  0   Radius =  0.325 angstrom
                   Q00  =   0.076479

H          x = -3.033577  y =  0.274726  z =  0.475219 angstrom
           Maximum rank =  0   Radius =  0.325 angstrom
                   Q00  =   0.078023

H          x = -1.730577  y =  1.458726  z =  0.655219 angstrom
           Maximum rank =  0   Radius =  0.325 angstrom
                   Q00  =   0.081584

H          x = -2.717577  y =  1.460726  z = -0.813781 angstrom
           Maximum rank =  0   Radius =  0.325 angstrom
                   Q00  =   0.074923

H          x = -1.017747  y = -1.425604  z = -2.428885 angstrom
           Maximum rank =  0   Radius =  0.325 angstrom
                   Q00  =   0.085657

H          x = -2.662557  y = -1.512814  z = -1.677971 angstrom
           Maximum rank =  0   Radius =  0.325 angstrom
                   Q00  =   0.078664

Total multipoles referred to origin at
           x =   0.000000,  y =    0.000000,  z =    0.000000 angstrom
                   Q00  =  -0.000000

Finished at 18:47:17 on 26 Apr 2020

  DMA results are available in the Python driver through the
	  variable('DMA DISTRIBUTED MULTIPOLES')
  and
	  variable('DMA TOTAL MULTIPOLES')
  commands.

    Psi4 stopped on: Sunday, 26 April 2020 06:47PM
    Psi4 wall time for execution: 0:00:19.43

*** Psi4 exiting successfully. Buy a developer a beer!
