                               Psi4 1.3.2 release

  ==> Input File <==

--------------------------------------------------------------------------
import numpy as np
set {scf_type pk
basis cc-pvdz
d_convergence 10
gdma_switch   0
gdma_limit    0
gdma_origin   [ 0.0,  0.0,  0.0 ]
}
molecule test {
    units Angstrom
    0 1
    --
    0 1
    C                0.723804696188800    -0.245098246634189     3.017799605688282
    C                0.434804696188799    -0.283098246634189     4.534799605688284
    H               -0.194195303811201    -0.064098246634190     2.459799605688283
    H                1.435804696188800     0.545901753365810     2.786799605688283
    H                1.147804696188799    -1.198098246634190     2.700799605688283
    H                1.365804696188799    -0.406098246634189     5.083799605688283
    H               -0.271305303811201    -1.094688246634189     4.764429605688283
    H               -0.031575303811201     0.679551753365811     4.791309605688283
    C               -2.031195303811201     1.322901753365810    -2.235200394311717
    C                1.189804696188799     0.519901753365810    -0.379200394311717
    C                0.117804696188799     1.242901753365810    -0.917200394311717
    C                1.195804696188800    -0.893098246634189    -0.447200394311717
    C               -0.875195303811200     0.584901753365811    -1.629200394311717
    C                0.171804696188799    -1.533098246634190    -1.163200394311717
    C               -0.849195303811201    -0.797098246634189    -1.729200394311717
    H                1.993804696188799     1.028901753365810     0.128799605688283
    H                0.092804696188799     2.319901753365811    -0.828200394311717
    H                1.999804696188800    -1.465098246634190    -0.004200394311717
    H                0.176804696188799    -2.610098246634189    -1.263200394311717
    H               -2.243195303811201     2.194901753365810    -1.617200394311717
    H               -2.910195303811200     0.682901753365810    -2.190200394311717
    H               -1.635195303811200    -1.313098246634189    -2.260200394311718
    H               -1.858588303811201     1.662291753365810    -3.267200394311717

}
e, wfn = energy('scf', return_wfn=True)
gdma(wfn)
dmavals = variable('DMA DISTRIBUTED MULTIPOLES')
charges = np.array(dmavals)
print(charges)
np.save('SSI-129LEU-155PHE-1-dimer.npy', np.array(charges))--------------------------------------------------------------------------

*** tstart() called on ds3
*** at Tue Apr 28 00:03:20 2020

   => Loading Basis Set <=

    Name: CC-PVDZ
    Role: ORBITAL
    Keyword: BASIS
    atoms 1-2, 9-15  entry C          line   138 file /theoryfs2/ds/metcalf/miniconda2/envs/tf2gpu/share/psi4/basis/cc-pvdz.gbs
    atoms 3-8, 16-23 entry H          line    22 file /theoryfs2/ds/metcalf/miniconda2/envs/tf2gpu/share/psi4/basis/cc-pvdz.gbs

         ---------------------------------------------------------
                                   SCF
               by Justin Turney, Rob Parrish, Andy Simmonett
                          and Daniel G. A. Smith
                              RHF Reference
                        1 Threads,    500 MiB Core
         ---------------------------------------------------------

  ==> Geometry <==

    Molecular point group: c1
    Full point group: C1

    Geometry (in Angstrom), charge = 0, multiplicity = 1:

       Center              X                  Y                   Z               Mass
    ------------   -----------------  -----------------  -----------------  -----------------
         C            0.723804696189    -0.245098246634     3.017799605688    12.000000000000
         C            0.434804696189    -0.283098246634     4.534799605688    12.000000000000
         H           -0.194195303811    -0.064098246634     2.459799605688     1.007825032230
         H            1.435804696189     0.545901753366     2.786799605688     1.007825032230
         H            1.147804696189    -1.198098246634     2.700799605688     1.007825032230
         H            1.365804696189    -0.406098246634     5.083799605688     1.007825032230
         H           -0.271305303811    -1.094688246634     4.764429605688     1.007825032230
         H           -0.031575303811     0.679551753366     4.791309605688     1.007825032230
         C           -2.031195303811     1.322901753366    -2.235200394312    12.000000000000
         C            1.189804696189     0.519901753366    -0.379200394312    12.000000000000
         C            0.117804696189     1.242901753366    -0.917200394312    12.000000000000
         C            1.195804696189    -0.893098246634    -0.447200394312    12.000000000000
         C           -0.875195303811     0.584901753366    -1.629200394312    12.000000000000
         C            0.171804696189    -1.533098246634    -1.163200394312    12.000000000000
         C           -0.849195303811    -0.797098246634    -1.729200394312    12.000000000000
         H            1.993804696189     1.028901753366     0.128799605688     1.007825032230
         H            0.092804696189     2.319901753366    -0.828200394312     1.007825032230
         H            1.999804696189    -1.465098246634    -0.004200394312     1.007825032230
         H            0.176804696189    -2.610098246634    -1.263200394312     1.007825032230
         H           -2.243195303811     2.194901753366    -1.617200394312     1.007825032230
         H           -2.910195303811     0.682901753366    -2.190200394312     1.007825032230
         H           -1.635195303811    -1.313098246634    -2.260200394312     1.007825032230
         H           -1.858588303811     1.662291753366    -3.267200394312     1.007825032230

  Running in c1 symmetry.

  Rotational constants: A =      0.07909  B =      0.02218  C =      0.02039 [cm^-1]
  Rotational constants: A =   2371.14317  B =    665.05267  C =    611.13677 [MHz]
  Nuclear repulsion =  405.397637926431514

  Charge       = 0
  Multiplicity = 1
  Electrons    = 68
  Nalpha       = 34
  Nbeta        = 34

  ==> Algorithm <==

  SCF Algorithm Type is PK.
  DIIS enabled.
  MOM disabled.
  Fractional occupation disabled.
  Guess Type is SAD.
  Energy threshold   = 1.00e-06
  Density threshold  = 1.00e-10
  Integral threshold = 0.00e+00

  ==> Primary Basis <==

  Basis Set: CC-PVDZ
    Blend: CC-PVDZ
    Number of shells: 96
    Number of basis function: 196
    Number of Cartesian functions: 205
    Spherical Harmonics?: true
    Max angular momentum: 2

  ==> Pre-Iterations <==

   -------------------------------------------------------
    Irrep   Nso     Nmo     Nalpha   Nbeta   Ndocc  Nsocc
   -------------------------------------------------------
     A        196     196       0       0       0       0
   -------------------------------------------------------
    Total     196     196      34      34      34       0
   -------------------------------------------------------

  ==> Integral Setup <==

  Using integral reordering PK algorithm.
  Sizing the integral batches needed.
  Building batch lookup table.
   Calculation information:
      Number of atoms:                  23
      Number of AO shells:              96
      Number of primitives:            268
      Number of atomic orbitals:       205
      Number of basis functions:       196

      Integral cutoff                 1.00e-12
      Number of threads:                 1

	Batch   1 pq = [       0,    9405] index = [             0,44231715] size =     44231715
	Batch   2 pq = [    9405,   13301] index = [      44231715,88464951] size =     44233236
	Batch   3 pq = [   13301,   16290] index = [      88464951,132690195] size =     44225244
	Batch   4 pq = [   16290,   18810] index = [     132690195,176917455] size =     44227260
	Batch   5 pq = [   18810,   19306] index = [     176917455,186370471] size =      9453016
  Task number: 17
  Buffer size: 11059200
  Buffer per thread: 2
  We computed 9121326 shell quartets total.
  Whereas there are 10841496 unique shell quartets.

  ==> DiskJK: Disk-Based J/K Matrices <==

    J tasked:                  Yes
    K tasked:                  Yes
    wK tasked:                  No
    Memory [MiB]:              375
    Schwarz Cutoff:          1E-12

    OpenMP threads:              1

  Minimum eigenvalue in the overlap matrix is 3.3851882665E-04.
  Using Symmetric Orthogonalization.

  SCF Guess: Superposition of Atomic Densities via on-the-fly atomic UHF.

  ==> Iterations <==

                        Total Energy        Delta E     RMS |[F,P]|

   @RHF iter SAD:  -347.83300096135298   -3.47833e+02   0.00000e+00
   @RHF iter   1:  -348.76585438932648   -9.32853e-01   2.88175e-03 DIIS
   @RHF iter   2:  -348.95723174970743   -1.91377e-01   1.19124e-03 DIIS
   @RHF iter   3:  -348.98700090540461   -2.97692e-02   2.62756e-04 DIIS
   @RHF iter   4:  -348.98946098558491   -2.46008e-03   7.01008e-05 DIIS
   @RHF iter   5:  -348.98957812500896   -1.17139e-04   2.14189e-05 DIIS
   @RHF iter   6:  -348.98958967606552   -1.15511e-05   5.03512e-06 DIIS
   @RHF iter   7:  -348.98959041103365   -7.34968e-07   1.11103e-06 DIIS
   @RHF iter   8:  -348.98959045302502   -4.19914e-08   2.76991e-07 DIIS
   @RHF iter   9:  -348.98959045675770   -3.73268e-09   1.07816e-07 DIIS
   @RHF iter  10:  -348.98959045741111   -6.53415e-10   5.29216e-08 DIIS
   @RHF iter  11:  -348.98959045763127   -2.20155e-10   2.42616e-08 DIIS
   @RHF iter  12:  -348.98959045768675   -5.54792e-11   1.17297e-08 DIIS
   @RHF iter  13:  -348.98959045770061   -1.38698e-11   4.29958e-09 DIIS
   @RHF iter  14:  -348.98959045770022    3.97904e-13   1.11896e-09 DIIS
   @RHF iter  15:  -348.98959045770368   -3.46745e-12   3.25274e-10 DIIS
   @RHF iter  16:  -348.98959045770039    3.29692e-12   8.01897e-11 DIIS
  Energy and wave function converged.

  ==> Post-Iterations <==

    Orbital Energies [Eh]
    ---------------------

    Doubly Occupied:

       1A    -11.238610     2A    -11.237781     3A    -11.235139
       4A    -11.234021     5A    -11.230914     6A    -11.227562
       7A    -11.226292     8A    -11.215646     9A    -11.210421
      10A     -1.151534    11A     -1.042481    12A     -1.011580
      13A     -1.008897    14A     -0.929777    15A     -0.831923
      16A     -0.822963    17A     -0.795757    18A     -0.689354
      19A     -0.630478    20A     -0.629753    21A     -0.593371
      22A     -0.590347    23A     -0.582023    24A     -0.578088
      25A     -0.562171    26A     -0.532267    27A     -0.494797
      28A     -0.486714    29A     -0.483846    30A     -0.481376
      31A     -0.480082    32A     -0.476842    33A     -0.331853
      34A     -0.319112

    Virtual:

      35A      0.136611    36A      0.138915    37A      0.176876
      38A      0.193744    39A      0.204357    40A      0.214338
      41A      0.235138    42A      0.245018    43A      0.256509
      44A      0.259584    45A      0.272377    46A      0.277159
      47A      0.281858    48A      0.290483    49A      0.302464
      50A      0.319020    51A      0.368544    52A      0.379317
      53A      0.392276    54A      0.449924    55A      0.461164
      56A      0.482174    57A      0.491895    58A      0.562260
      59A      0.576485    60A      0.601274    61A      0.605773
      62A      0.606150    63A      0.638596    64A      0.664967
      65A      0.676976    66A      0.687117    67A      0.699728
      68A      0.709625    69A      0.733828    70A      0.737399
      71A      0.743293    72A      0.750799    73A      0.756581
      74A      0.769676    75A      0.789464    76A      0.796962
      77A      0.842653    78A      0.858434    79A      0.860372
      80A      0.867106    81A      0.878457    82A      0.893095
      83A      0.896181    84A      0.898763    85A      0.900823
      86A      0.916496    87A      0.918175    88A      0.924325
      89A      0.934004    90A      0.943502    91A      0.946289
      92A      0.950045    93A      0.981760    94A      1.001646
      95A      1.023732    96A      1.054900    97A      1.100388
      98A      1.124470    99A      1.128566   100A      1.147520
     101A      1.154713   102A      1.173791   103A      1.187743
     104A      1.231569   105A      1.240921   106A      1.247027
     107A      1.256778   108A      1.275502   109A      1.299572
     110A      1.312085   111A      1.330552   112A      1.336831
     113A      1.413531   114A      1.471231   115A      1.483788
     116A      1.509746   117A      1.518864   118A      1.556416
     119A      1.589462   120A      1.602025   121A      1.679679
     122A      1.682831   123A      1.700051   124A      1.702739
     125A      1.727638   126A      1.753401   127A      1.764288
     128A      1.790770   129A      1.813940   130A      1.852800
     131A      1.869175   132A      1.873222   133A      1.888277
     134A      1.894802   135A      1.904308   136A      1.913086
     137A      1.917658   138A      1.922532   139A      1.941488
     140A      1.943726   141A      1.948898   142A      1.950170
     143A      1.964057   144A      1.967996   145A      1.973364
     146A      1.993952   147A      2.003531   148A      2.025839
     149A      2.046393   150A      2.071610   151A      2.073994
     152A      2.093630   153A      2.102404   154A      2.129932
     155A      2.142096   156A      2.153770   157A      2.161551
     158A      2.180443   159A      2.181242   160A      2.256984
     161A      2.280219   162A      2.294011   163A      2.298601
     164A      2.302874   165A      2.309834   166A      2.326296
     167A      2.356783   168A      2.459942   169A      2.466501
     170A      2.473000   171A      2.479987   172A      2.498086
     173A      2.542890   174A      2.563997   175A      2.580721
     176A      2.622986   177A      2.737904   178A      2.753619
     179A      2.770985   180A      2.772837   181A      2.782103
     182A      2.798813   183A      2.809787   184A      2.834345
     185A      2.853045   186A      2.860546   187A      2.863224
     188A      2.954255   189A      2.955986   190A      2.986389
     191A      2.998771   192A      3.000009   193A      3.153272
     194A      3.197142   195A      3.297014   196A      3.949234

    Final Occupation by Irrep:
              A
    DOCC [    34 ]

  @RHF Final Energy:  -348.98959045770039

   => Energetics <=

    Nuclear Repulsion Energy =            405.3976379264315142
    One-Electron Energy =               -1273.5869086431962387
    Two-Electron Energy =                 519.1996802590642801
    Total Energy =                       -348.9895904577003876

Computation Completed

Properties will be evaluated at   0.000000,   0.000000,   0.000000 [a0]

Properties computed using the SCF density matrix

  Nuclear Dipole Moment: [e a0]
     X:    -0.8734      Y:     0.9029      Z:    10.5797

  Electronic Dipole Moment: [e a0]
     X:     0.7745      Y:    -0.8440      Z:   -10.6807

  Dipole Moment: [e a0]
     X:    -0.0989      Y:     0.0588      Z:    -0.1010     Total:     0.1531

  Dipole Moment: [D]
     X:    -0.2513      Y:     0.1495      Z:    -0.2568     Total:     0.3892

*** tstop() called on ds3 at Tue Apr 28 00:04:48 2020
Module time:
	user time   =      64.00 seconds =       1.07 minutes
	system time =      26.81 seconds =       0.45 minutes
	total time  =         88 seconds =       1.47 minutes
Total time:
	user time   =      64.00 seconds =       1.07 minutes
	system time =      26.81 seconds =       0.45 minutes
	total time  =         88 seconds =       1.47 minutes
                                     G D M A

                                 by Anthony Stone

                           version 2.2.06, 22 June 2011

               Distributed Multipoles from Gaussian wavefunctions

Starting at 0:4:48 on 28 Apr 2020

Using SCF density matrix from file ./SSI/SSI-129LEU-155PHE-1-dimer.test.4769.fchk

                         Distributed Multipole Analysis

Standard DMA

Positions and radii in angstrom
Multipole moments in atomic units, ea_0^k for rank k

C          x =  0.723805  y = -0.245098  z =  3.017800 angstrom
           Maximum rank =  0   Radius =  0.650 angstrom
                   Q00  =  -0.242397

C          x =  0.434805  y = -0.283098  z =  4.534800 angstrom
           Maximum rank =  0   Radius =  0.650 angstrom
                   Q00  =  -0.229036

H          x = -0.194195  y = -0.064098  z =  2.459800 angstrom
           Maximum rank =  0   Radius =  0.325 angstrom
                   Q00  =   0.088172

H          x =  1.435805  y =  0.545902  z =  2.786800 angstrom
           Maximum rank =  0   Radius =  0.325 angstrom
                   Q00  =   0.073653

H          x =  1.147805  y = -1.198098  z =  2.700800 angstrom
           Maximum rank =  0   Radius =  0.325 angstrom
                   Q00  =   0.074739

H          x =  1.365805  y = -0.406098  z =  5.083800 angstrom
           Maximum rank =  0   Radius =  0.325 angstrom
                   Q00  =   0.081135

H          x = -0.271305  y = -1.094688  z =  4.764430 angstrom
           Maximum rank =  0   Radius =  0.325 angstrom
                   Q00  =   0.080705

H          x = -0.031575  y =  0.679552  z =  4.791310 angstrom
           Maximum rank =  0   Radius =  0.325 angstrom
                   Q00  =   0.075045

C          x = -2.031195  y =  1.322902  z = -2.235200 angstrom
           Maximum rank =  0   Radius =  0.650 angstrom
                   Q00  =  -0.201200

C          x =  1.189805  y =  0.519902  z = -0.379200 angstrom
           Maximum rank =  0   Radius =  0.650 angstrom
                   Q00  =  -0.064590

C          x =  0.117805  y =  1.242902  z = -0.917200 angstrom
           Maximum rank =  0   Radius =  0.650 angstrom
                   Q00  =  -0.090626

C          x =  1.195805  y = -0.893098  z = -0.447200 angstrom
           Maximum rank =  0   Radius =  0.650 angstrom
                   Q00  =  -0.088036

C          x = -0.875195  y =  0.584902  z = -1.629200 angstrom
           Maximum rank =  0   Radius =  0.650 angstrom
                   Q00  =  -0.101801

C          x =  0.171805  y = -1.533098  z = -1.163200 angstrom
           Maximum rank =  0   Radius =  0.650 angstrom
                   Q00  =  -0.082355

C          x = -0.849195  y = -0.797098  z = -1.729200 angstrom
           Maximum rank =  0   Radius =  0.650 angstrom
                   Q00  =   0.015522

H          x =  1.993805  y =  1.028902  z =  0.128800 angstrom
           Maximum rank =  0   Radius =  0.325 angstrom
                   Q00  =   0.069425

H          x =  0.092805  y =  2.319902  z = -0.828200 angstrom
           Maximum rank =  0   Radius =  0.325 angstrom
                   Q00  =   0.058876

H          x =  1.999805  y = -1.465098  z = -0.004200 angstrom
           Maximum rank =  0   Radius =  0.325 angstrom
                   Q00  =   0.067611

H          x =  0.176805  y = -2.610098  z = -1.263200 angstrom
           Maximum rank =  0   Radius =  0.325 angstrom
                   Q00  =   0.064325

H          x = -2.243195  y =  2.194902  z = -1.617200 angstrom
           Maximum rank =  0   Radius =  0.325 angstrom
                   Q00  =   0.095408

H          x = -2.910195  y =  0.682902  z = -2.190200 angstrom
           Maximum rank =  0   Radius =  0.325 angstrom
                   Q00  =   0.096388

H          x = -1.635195  y = -1.313098  z = -2.260200 angstrom
           Maximum rank =  0   Radius =  0.325 angstrom
                   Q00  =   0.053799

H          x = -1.858588  y =  1.662292  z = -3.267200 angstrom
           Maximum rank =  0   Radius =  0.325 angstrom
                   Q00  =   0.105238

Total multipoles referred to origin at
           x =   0.000000,  y =    0.000000,  z =    0.000000 angstrom
                   Q00  =  -0.000000

Finished at 0:4:48 on 28 Apr 2020

  DMA results are available in the Python driver through the
	  variable('DMA DISTRIBUTED MULTIPOLES')
  and
	  variable('DMA TOTAL MULTIPOLES')
  commands.

    Psi4 stopped on: Tuesday, 28 April 2020 12:04AM
    Psi4 wall time for execution: 0:01:27.81

*** Psi4 exiting successfully. Buy a developer a beer!
