                               Psi4 1.3.2 release

  ==> Input File <==

--------------------------------------------------------------------------
import numpy as np
set {scf_type pk
basis cc-pvdz
d_convergence 10
gdma_switch   0
gdma_limit    0
gdma_origin   [ 0.0,  0.0,  0.0 ]
}
molecule test {
    units Angstrom
    0 1
    --
    0 1
    C                2.999559014785935     0.471673134262332     0.631413069807858
    C                3.414559014785935     1.216673134262332     1.912413069807859
    H                3.668559014785935    -0.374326865737668     0.464413069807859
    H                1.981559014785935     0.106673134262332     0.731413069807859
    H                3.056559014785935     1.147673134262332    -0.222586930192141
    H                3.434559014785935     0.534673134262332     2.761413069807859
    H                4.446589014785935     1.548803134262332     1.726393069807859
    H                2.711939014785935     2.036753134262332     2.121703069807859
    C                0.832559014785935    -1.738326865737668    -1.509586930192142
    C                0.164559014785935    -2.387326865737669    -2.730586930192141
    C               -0.103440985214065    -0.843326865737668    -0.727586930192141
    C               -0.686440985214065     0.259673134262332    -1.351586930192141
    C               -0.329440985214065    -1.053326865737668     0.645413069807859
    C               -1.478440985214065     1.148673134262332    -0.624586930192141
    C               -1.122440985214065    -0.161326865737668     1.386413069807858
    C               -1.695440985214065     0.943673134262332     0.745413069807858
    O               -2.488440985214065     1.832673134262332     1.422413069807858
    H                1.142559014785935    -2.570326865737668    -0.879586930192142
    H                1.718559014785935    -1.162326865737668    -1.794586930192141
    H               -0.438440985214065    -1.640326865737668    -3.245586930192141
    H               -0.516440985214065     0.424673134262332    -2.406586930192141
    H                0.119559014785935    -1.908326865737668     1.136413069807859
    H               -1.917440985214065     2.003673134262332    -1.114586930192141
    H               -1.291440985214065    -0.321326865737668     2.442413069807859
    H               -2.832440985214065     2.535673134262332     0.874413069807859
    H               -0.478120985214065    -3.213636865737668    -2.392686930192142
    H                0.926099014785935    -2.714316865737668    -3.453866930192141

}
e, wfn = energy('scf', return_wfn=True)
gdma(wfn)
dmavals = variable('DMA DISTRIBUTED MULTIPOLES')
charges = np.array(dmavals)
print(charges)
np.save('SSI-170LEU-186TYR-1-dimer.npy', np.array(charges))--------------------------------------------------------------------------

*** tstart() called on ds3
*** at Tue Apr 28 09:19:38 2020

   => Loading Basis Set <=

    Name: CC-PVDZ
    Role: ORBITAL
    Keyword: BASIS
    atoms 1-2, 9-16  entry C          line   138 file /theoryfs2/ds/metcalf/miniconda2/envs/tf2gpu/share/psi4/basis/cc-pvdz.gbs
    atoms 3-8, 18-27 entry H          line    22 file /theoryfs2/ds/metcalf/miniconda2/envs/tf2gpu/share/psi4/basis/cc-pvdz.gbs
    atoms 17         entry O          line   198 file /theoryfs2/ds/metcalf/miniconda2/envs/tf2gpu/share/psi4/basis/cc-pvdz.gbs

         ---------------------------------------------------------
                                   SCF
               by Justin Turney, Rob Parrish, Andy Simmonett
                          and Daniel G. A. Smith
                              RHF Reference
                        1 Threads,    500 MiB Core
         ---------------------------------------------------------

  ==> Geometry <==

    Molecular point group: c1
    Full point group: C1

    Geometry (in Angstrom), charge = 0, multiplicity = 1:

       Center              X                  Y                   Z               Mass
    ------------   -----------------  -----------------  -----------------  -----------------
         C            2.999559014786     0.471673134262     0.631413069808    12.000000000000
         C            3.414559014786     1.216673134262     1.912413069808    12.000000000000
         H            3.668559014786    -0.374326865738     0.464413069808     1.007825032230
         H            1.981559014786     0.106673134262     0.731413069808     1.007825032230
         H            3.056559014786     1.147673134262    -0.222586930192     1.007825032230
         H            3.434559014786     0.534673134262     2.761413069808     1.007825032230
         H            4.446589014786     1.548803134262     1.726393069808     1.007825032230
         H            2.711939014786     2.036753134262     2.121703069808     1.007825032230
         C            0.832559014786    -1.738326865738    -1.509586930192    12.000000000000
         C            0.164559014786    -2.387326865738    -2.730586930192    12.000000000000
         C           -0.103440985214    -0.843326865738    -0.727586930192    12.000000000000
         C           -0.686440985214     0.259673134262    -1.351586930192    12.000000000000
         C           -0.329440985214    -1.053326865738     0.645413069808    12.000000000000
         C           -1.478440985214     1.148673134262    -0.624586930192    12.000000000000
         C           -1.122440985214    -0.161326865738     1.386413069808    12.000000000000
         C           -1.695440985214     0.943673134262     0.745413069808    12.000000000000
         O           -2.488440985214     1.832673134262     1.422413069808    15.994914619570
         H            1.142559014786    -2.570326865738    -0.879586930192     1.007825032230
         H            1.718559014786    -1.162326865738    -1.794586930192     1.007825032230
         H           -0.438440985214    -1.640326865738    -3.245586930192     1.007825032230
         H           -0.516440985214     0.424673134262    -2.406586930192     1.007825032230
         H            0.119559014786    -1.908326865738     1.136413069808     1.007825032230
         H           -1.917440985214     2.003673134262    -1.114586930192     1.007825032230
         H           -1.291440985214    -0.321326865738     2.442413069808     1.007825032230
         H           -2.832440985214     2.535673134262     0.874413069808     1.007825032230
         H           -0.478120985214    -3.213636865738    -2.392686930192     1.007825032230
         H            0.926099014786    -2.714316865738    -3.453866930192     1.007825032230

  Running in c1 symmetry.

  Rotational constants: A =      0.02867  B =      0.02668  C =      0.01612 [cm^-1]
  Rotational constants: A =    859.64504  B =    799.88786  C =    483.12240 [MHz]
  Nuclear repulsion =  589.619033333239940

  Charge       = 0
  Multiplicity = 1
  Electrons    = 84
  Nalpha       = 42
  Nbeta        = 42

  ==> Algorithm <==

  SCF Algorithm Type is PK.
  DIIS enabled.
  MOM disabled.
  Fractional occupation disabled.
  Guess Type is SAD.
  Energy threshold   = 1.00e-06
  Density threshold  = 1.00e-10
  Integral threshold = 0.00e+00

  ==> Primary Basis <==

  Basis Set: CC-PVDZ
    Blend: CC-PVDZ
    Number of shells: 114
    Number of basis function: 234
    Number of Cartesian functions: 245
    Spherical Harmonics?: true
    Max angular momentum: 2

  ==> Pre-Iterations <==

   -------------------------------------------------------
    Irrep   Nso     Nmo     Nalpha   Nbeta   Ndocc  Nsocc
   -------------------------------------------------------
     A        234     234       0       0       0       0
   -------------------------------------------------------
    Total     234     234      42      42      42       0
   -------------------------------------------------------

  ==> Integral Setup <==

  Using integral reordering PK algorithm.
  Sizing the integral batches needed.
  Building batch lookup table.
   Calculation information:
      Number of atoms:                  27
      Number of AO shells:             114
      Number of primitives:            322
      Number of atomic orbitals:       245
      Number of basis functions:       234

      Integral cutoff                 1.00e-12
      Number of threads:                 1

	Batch   1 pq = [       0,    9405] index = [             0,44231715] size =     44231715
	Batch   2 pq = [    9405,   13301] index = [      44231715,88464951] size =     44233236
	Batch   3 pq = [   13301,   16290] index = [      88464951,132690195] size =     44225244
	Batch   4 pq = [   16290,   18810] index = [     132690195,176917455] size =     44227260
	Batch   5 pq = [   18810,   21030] index = [     176917455,221140965] size =     44223510
	Batch   6 pq = [   21030,   23037] index = [     221140965,265363203] size =     44222238
	Batch   7 pq = [   23037,   24883] index = [     265363203,309594286] size =     44231083
	Batch   8 pq = [   24883,   26601] index = [     309594286,353819901] size =     44225615
	Batch   9 pq = [   26601,   27495] index = [     353819901,378001260] size =     24181359
  Task number: 35
  Buffer size: 11059200
  Buffer per thread: 2
  We computed 21002359 shell quartets total.
  Whereas there are 21487290 unique shell quartets.

  ==> DiskJK: Disk-Based J/K Matrices <==

    J tasked:                  Yes
    K tasked:                  Yes
    wK tasked:                  No
    Memory [MiB]:              375
    Schwarz Cutoff:          1E-12

    OpenMP threads:              1

  Minimum eigenvalue in the overlap matrix is 3.3658313214E-04.
  Using Symmetric Orthogonalization.

  SCF Guess: Superposition of Atomic Densities via on-the-fly atomic UHF.

  ==> Iterations <==

                        Total Energy        Delta E     RMS |[F,P]|

   @RHF iter SAD:  -461.60137929297304   -4.61601e+02   0.00000e+00
   @RHF iter   1:  -462.60550023166365   -1.00412e+00   2.78977e-03 DIIS
   @RHF iter   2:  -462.84259390804255   -2.37094e-01   1.17973e-03 DIIS
   @RHF iter   3:  -462.88113329699479   -3.85394e-02   2.74209e-04 DIIS
   @RHF iter   4:  -462.88438462696104   -3.25133e-03   1.17776e-04 DIIS
   @RHF iter   5:  -462.88482696830306   -4.42341e-04   1.94029e-05 DIIS
   @RHF iter   6:  -462.88484682106161   -1.98528e-05   5.63968e-06 DIIS
   @RHF iter   7:  -462.88484839515274   -1.57409e-06   2.08252e-06 DIIS
   @RHF iter   8:  -462.88484864007700   -2.44924e-07   7.00391e-07 DIIS
   @RHF iter   9:  -462.88484868122714   -4.11501e-08   2.57842e-07 DIIS
   @RHF iter  10:  -462.88484868750982   -6.28268e-09   1.14965e-07 DIIS
   @RHF iter  11:  -462.88484868949325   -1.98344e-09   5.48409e-08 DIIS
   @RHF iter  12:  -462.88484868995539   -4.62137e-10   2.47333e-08 DIIS
   @RHF iter  13:  -462.88484869002770   -7.23048e-11   8.30786e-09 DIIS
   @RHF iter  14:  -462.88484869003764   -9.94760e-12   1.99190e-09 DIIS
   @RHF iter  15:  -462.88484869003980   -2.16005e-12   6.68018e-10 DIIS
   @RHF iter  16:  -462.88484869004128   -1.47793e-12   2.28085e-10 DIIS
   @RHF iter  17:  -462.88484869003935    1.93268e-12   8.88573e-11 DIIS
  Energy and wave function converged.

  ==> Post-Iterations <==

    Orbital Energies [Eh]
    ---------------------

    Doubly Occupied:

       1A    -20.582003     2A    -11.304248     3A    -11.242634
       4A    -11.240289     5A    -11.235931     6A    -11.235415
       7A    -11.232961     8A    -11.228545     9A    -11.222536
      10A    -11.213071    11A    -11.206401    12A     -1.397430
      13A     -1.149171    14A     -1.056857    15A     -1.016722
      16A     -1.008676    17A     -0.974988    18A     -0.860092
      19A     -0.844356    20A     -0.827951    21A     -0.789838
      22A     -0.733022    23A     -0.672932    24A     -0.642798
      25A     -0.615689    26A     -0.602359    27A     -0.595096
      28A     -0.588589    29A     -0.583768    30A     -0.581135
      31A     -0.574175    32A     -0.536738    33A     -0.520134
      34A     -0.500318    35A     -0.489951    36A     -0.482585
      37A     -0.476933    38A     -0.474908    39A     -0.472729
      40A     -0.457809    41A     -0.338165    42A     -0.300845

    Virtual:

      43A      0.126630    44A      0.148881    45A      0.179594
      46A      0.181928    47A      0.195583    48A      0.212300
      49A      0.215757    50A      0.223496    51A      0.244303
      52A      0.259870    53A      0.262226    54A      0.267776
      55A      0.276114    56A      0.285976    57A      0.294749
      58A      0.305523    59A      0.322621    60A      0.325795
      61A      0.353596    62A      0.381585    63A      0.404255
      64A      0.408193    65A      0.426168    66A      0.474728
      67A      0.482891    68A      0.494471    69A      0.515456
      70A      0.579952    71A      0.596407    72A      0.603890
      73A      0.611923    74A      0.625945    75A      0.639311
      76A      0.647623    77A      0.666699    78A      0.670524
      79A      0.677695    80A      0.699282    81A      0.710106
      82A      0.720677    83A      0.731610    84A      0.740683
      85A      0.746818    86A      0.759665    87A      0.779111
      88A      0.781532    89A      0.816383    90A      0.836685
      91A      0.838912    92A      0.856562    93A      0.864844
      94A      0.874525    95A      0.882934    96A      0.890127
      97A      0.893359    98A      0.897786    99A      0.899168
     100A      0.904210   101A      0.910110   102A      0.914751
     103A      0.927258   104A      0.937616   105A      0.942698
     106A      0.946576   107A      0.953115   108A      0.977298
     109A      0.989008   110A      0.996511   111A      1.014724
     112A      1.026492   113A      1.073259   114A      1.093216
     115A      1.121743   116A      1.132656   117A      1.140414
     118A      1.146037   119A      1.147363   120A      1.181229
     121A      1.205848   122A      1.222433   123A      1.242983
     124A      1.259808   125A      1.284869   126A      1.291038
     127A      1.298441   128A      1.303798   129A      1.330992
     130A      1.353350   131A      1.372678   132A      1.377757
     133A      1.420431   134A      1.463519   135A      1.480372
     136A      1.483242   137A      1.509179   138A      1.510301
     139A      1.531704   140A      1.587511   141A      1.619787
     142A      1.623012   143A      1.628906   144A      1.662276
     145A      1.677793   146A      1.688539   147A      1.709494
     148A      1.716829   149A      1.752032   150A      1.771820
     151A      1.794755   152A      1.812577   153A      1.835815
     154A      1.855043   155A      1.862956   156A      1.874905
     157A      1.878214   158A      1.882574   159A      1.895776
     160A      1.902503   161A      1.910197   162A      1.920182
     163A      1.930918   164A      1.937332   165A      1.946825
     166A      1.948586   167A      1.954347   168A      1.962364
     169A      1.968253   170A      1.979922   171A      1.986879
     172A      2.008345   173A      2.023320   174A      2.027179
     175A      2.039289   176A      2.046464   177A      2.062273
     178A      2.079315   179A      2.090323   180A      2.093730
     181A      2.117349   182A      2.131995   183A      2.137484
     184A      2.157987   185A      2.190566   186A      2.210090
     187A      2.240059   188A      2.251579   189A      2.264280
     190A      2.284341   191A      2.299066   192A      2.309321
     193A      2.322172   194A      2.361193   195A      2.383864
     196A      2.409569   197A      2.457198   198A      2.462929
     199A      2.465755   200A      2.473249   201A      2.483152
     202A      2.496483   203A      2.534635   204A      2.543505
     205A      2.567967   206A      2.586971   207A      2.606114
     208A      2.643630   209A      2.657392   210A      2.741218
     211A      2.766021   212A      2.771230   213A      2.777391
     214A      2.801733   215A      2.818168   216A      2.836345
     217A      2.844032   218A      2.849360   219A      2.867043
     220A      2.903806   221A      2.954154   222A      2.957317
     223A      2.969599   224A      2.998037   225A      3.054560
     226A      3.072452   227A      3.143416   228A      3.240489
     229A      3.271495   230A      3.350086   231A      3.560506
     232A      3.645268   233A      3.974732   234A      4.190695

    Final Occupation by Irrep:
              A
    DOCC [    42 ]

  @RHF Final Energy:  -462.88484869003935

   => Energetics <=

    Nuclear Repulsion Energy =            589.6190333332399405
    One-Electron Energy =               -1796.7861786749483599
    Two-Electron Energy =                 744.2822966516690713
    Total Energy =                       -462.8848486900393482

Computation Completed

Properties will be evaluated at   0.000000,   0.000000,   0.000000 [a0]

Properties computed using the SCF density matrix

  Nuclear Dipole Moment: [e a0]
     X:    14.7365      Y:    -3.3345      Z:    -3.0413

  Electronic Dipole Moment: [e a0]
     X:   -14.7674      Y:     3.4988      Z:     2.4799

  Dipole Moment: [e a0]
     X:    -0.0309      Y:     0.1643      Z:    -0.5614     Total:     0.5858

  Dipole Moment: [D]
     X:    -0.0785      Y:     0.4176      Z:    -1.4270     Total:     1.4889

*** tstop() called on ds3 at Tue Apr 28 09:23:06 2020
Module time:
	user time   =     155.76 seconds =       2.60 minutes
	system time =      61.99 seconds =       1.03 minutes
	total time  =        208 seconds =       3.47 minutes
Total time:
	user time   =     155.76 seconds =       2.60 minutes
	system time =      61.99 seconds =       1.03 minutes
	total time  =        208 seconds =       3.47 minutes
                                     G D M A

                                 by Anthony Stone

                           version 2.2.06, 22 June 2011

               Distributed Multipoles from Gaussian wavefunctions

Starting at 9:23:6 on 28 Apr 2020

Using SCF density matrix from file ./SSI/SSI-170LEU-186TYR-1-dimer.test.10188.fchk

                         Distributed Multipole Analysis

Standard DMA

Positions and radii in angstrom
Multipole moments in atomic units, ea_0^k for rank k

C          x =  2.999559  y =  0.471673  z =  0.631413 angstrom
           Maximum rank =  0   Radius =  0.650 angstrom
                   Q00  =  -0.251898

C          x =  3.414559  y =  1.216673  z =  1.912413 angstrom
           Maximum rank =  0   Radius =  0.650 angstrom
                   Q00  =  -0.231047

H          x =  3.668559  y = -0.374327  z =  0.464413 angstrom
           Maximum rank =  0   Radius =  0.325 angstrom
                   Q00  =   0.070142

H          x =  1.981559  y =  0.106673  z =  0.731413 angstrom
           Maximum rank =  0   Radius =  0.325 angstrom
                   Q00  =   0.100053

H          x =  3.056559  y =  1.147673  z = -0.222587 angstrom
           Maximum rank =  0   Radius =  0.325 angstrom
                   Q00  =   0.075057

H          x =  3.434559  y =  0.534673  z =  2.761413 angstrom
           Maximum rank =  0   Radius =  0.325 angstrom
                   Q00  =   0.078424

H          x =  4.446589  y =  1.548803  z =  1.726393 angstrom
           Maximum rank =  0   Radius =  0.325 angstrom
                   Q00  =   0.071196

H          x =  2.711939  y =  2.036753  z =  2.121703 angstrom
           Maximum rank =  0   Radius =  0.325 angstrom
                   Q00  =   0.084378

C          x =  0.832559  y = -1.738327  z = -1.509587 angstrom
           Maximum rank =  0   Radius =  0.650 angstrom
                   Q00  =  -0.048903

C          x =  0.164559  y = -2.387327  z = -2.730587 angstrom
           Maximum rank =  0   Radius =  0.650 angstrom
                   Q00  =  -0.241338

C          x = -0.103441  y = -0.843327  z = -0.727587 angstrom
           Maximum rank =  0   Radius =  0.650 angstrom
                   Q00  =  -0.127068

C          x = -0.686441  y =  0.259673  z = -1.351587 angstrom
           Maximum rank =  0   Radius =  0.650 angstrom
                   Q00  =  -0.023101

C          x = -0.329441  y = -1.053327  z =  0.645413 angstrom
           Maximum rank =  0   Radius =  0.650 angstrom
                   Q00  =  -0.002232

C          x = -1.478441  y =  1.148673  z = -0.624587 angstrom
           Maximum rank =  0   Radius =  0.650 angstrom
                   Q00  =  -0.160436

C          x = -1.122441  y = -0.161327  z =  1.386413 angstrom
           Maximum rank =  0   Radius =  0.650 angstrom
                   Q00  =  -0.119863

C          x = -1.695441  y =  0.943673  z =  0.745413 angstrom
           Maximum rank =  0   Radius =  0.650 angstrom
                   Q00  =   0.282040

O          x = -2.488441  y =  1.832673  z =  1.422413 angstrom
           Maximum rank =  0   Radius =  0.650 angstrom
                   Q00  =  -0.646058

H          x =  1.142559  y = -2.570327  z = -0.879587 angstrom
           Maximum rank =  0   Radius =  0.325 angstrom
                   Q00  =   0.066425

H          x =  1.718559  y = -1.162327  z = -1.794587 angstrom
           Maximum rank =  0   Radius =  0.325 angstrom
                   Q00  =   0.073415

H          x = -0.438441  y = -1.640327  z = -3.245587 angstrom
           Maximum rank =  0   Radius =  0.325 angstrom
                   Q00  =   0.076361

H          x = -0.516441  y =  0.424673  z = -2.406587 angstrom
           Maximum rank =  0   Radius =  0.325 angstrom
                   Q00  =   0.071627

H          x =  0.119559  y = -1.908327  z =  1.136413 angstrom
           Maximum rank =  0   Radius =  0.325 angstrom
                   Q00  =   0.069084

H          x = -1.917441  y =  2.003673  z = -1.114587 angstrom
           Maximum rank =  0   Radius =  0.325 angstrom
                   Q00  =   0.071156

H          x = -1.291441  y = -0.321327  z =  2.442413 angstrom
           Maximum rank =  0   Radius =  0.325 angstrom
                   Q00  =   0.083181

H          x = -2.832441  y =  2.535673  z =  0.874413 angstrom
           Maximum rank =  0   Radius =  0.325 angstrom
                   Q00  =   0.407427

H          x = -0.478121  y = -3.213637  z = -2.392687 angstrom
           Maximum rank =  0   Radius =  0.325 angstrom
                   Q00  =   0.089168

H          x =  0.926099  y = -2.714317  z = -3.453867 angstrom
           Maximum rank =  0   Radius =  0.325 angstrom
                   Q00  =   0.082811

Total multipoles referred to origin at
           x =   0.000000,  y =    0.000000,  z =    0.000000 angstrom
                   Q00  =  -0.000000

Finished at 9:23:6 on 28 Apr 2020

  DMA results are available in the Python driver through the
	  variable('DMA DISTRIBUTED MULTIPOLES')
  and
	  variable('DMA TOTAL MULTIPOLES')
  commands.

    Psi4 stopped on: Tuesday, 28 April 2020 09:23AM
    Psi4 wall time for execution: 0:03:28.03

*** Psi4 exiting successfully. Buy a developer a beer!
