                               Psi4 1.3.2 release

  ==> Input File <==

--------------------------------------------------------------------------
import numpy as np
set {scf_type pk
basis cc-pvdz
d_convergence 10
gdma_switch   0
gdma_limit    0
gdma_origin   [ 0.0,  0.0,  0.0 ]
}
molecule test {
    units Angstrom
    0 1
    --
    0 1
    C                2.883782227757623     0.217874293578145     0.001706803488545
    C                3.393782227757623    -1.121125706421855    -0.502293196511455
    C                3.347782227757623     0.462874293578145     1.425706803488545
    H                3.239782227757623     1.020874293578145    -0.644293196511455
    H                1.801782227757623     0.157874293578145    -0.048293196511455
    H                2.977782227757623    -1.903125706421855     0.134706803488545
    H                2.940782227757623    -0.341125706421855     2.020706803488544
    H                4.424782227757624     0.429874293578145     1.482706803488545
    H                4.490822227757623    -1.156000706421855    -0.429511196511455
    H                3.048292227757623    -1.325243706421855    -1.526488196511456
    H                3.004882227757623     1.415992293578145     1.854640703488545
    C               -1.059217772242377    -1.851125706421855     1.284706803488545
    C               -0.690217772242377    -0.500125706421855    -0.808293196511455
    C               -1.360217772242377    -0.666125706421855     0.398706803488545
    C               -0.957217772242377     0.590874293578145    -1.627293196511456
    C               -2.298217772242377     0.287874293578145     0.779706803488545
    C               -1.899217772242377     1.531874293578145    -1.239293196511455
    C               -2.572217772242377     1.378874293578145    -0.035293196511455
    H                0.011782227757623    -1.247125706421855    -1.121293196511456
    H               -0.440217772242377     0.698874293578145    -2.572293196511456
    H               -1.225217772242377    -1.559125706421855     2.318706803488544
    H                0.001782227757623    -2.077125706421855     1.195706803488545
    H               -2.799217772242377     0.196874293578145     1.721706803488545
    H               -2.108217772242377     2.382874293578145    -1.867293196511456
    H               -3.308217772242377     2.109874293578144     0.267706803488545
    H               -1.640097772242377    -2.754245706421855     1.046065803488545

}
e, wfn = energy('scf', return_wfn=True)
gdma(wfn)
dmavals = variable('DMA DISTRIBUTED MULTIPOLES')
charges = np.array(dmavals)
print(charges)
np.save('SSI-224MET-229PHE-2-dimer.npy', np.array(charges))--------------------------------------------------------------------------

*** tstart() called on ds3
*** at Mon Apr 27 17:16:58 2020

   => Loading Basis Set <=

    Name: CC-PVDZ
    Role: ORBITAL
    Keyword: BASIS
    atoms 1-3, 12-18  entry C          line   138 file /theoryfs2/ds/metcalf/miniconda2/envs/tf2gpu/share/psi4/basis/cc-pvdz.gbs
    atoms 4-11, 19-26 entry H          line    22 file /theoryfs2/ds/metcalf/miniconda2/envs/tf2gpu/share/psi4/basis/cc-pvdz.gbs

         ---------------------------------------------------------
                                   SCF
               by Justin Turney, Rob Parrish, Andy Simmonett
                          and Daniel G. A. Smith
                              RHF Reference
                        1 Threads,    500 MiB Core
         ---------------------------------------------------------

  ==> Geometry <==

    Molecular point group: c1
    Full point group: C1

    Geometry (in Angstrom), charge = 0, multiplicity = 1:

       Center              X                  Y                   Z               Mass
    ------------   -----------------  -----------------  -----------------  -----------------
         C            2.883782227758     0.217874293578     0.001706803489    12.000000000000
         C            3.393782227758    -1.121125706422    -0.502293196511    12.000000000000
         C            3.347782227758     0.462874293578     1.425706803489    12.000000000000
         H            3.239782227758     1.020874293578    -0.644293196511     1.007825032230
         H            1.801782227758     0.157874293578    -0.048293196511     1.007825032230
         H            2.977782227758    -1.903125706422     0.134706803489     1.007825032230
         H            2.940782227758    -0.341125706422     2.020706803489     1.007825032230
         H            4.424782227758     0.429874293578     1.482706803489     1.007825032230
         H            4.490822227758    -1.156000706422    -0.429511196511     1.007825032230
         H            3.048292227758    -1.325243706422    -1.526488196511     1.007825032230
         H            3.004882227758     1.415992293578     1.854640703489     1.007825032230
         C           -1.059217772242    -1.851125706422     1.284706803489    12.000000000000
         C           -0.690217772242    -0.500125706422    -0.808293196511    12.000000000000
         C           -1.360217772242    -0.666125706422     0.398706803489    12.000000000000
         C           -0.957217772242     0.590874293578    -1.627293196511    12.000000000000
         C           -2.298217772242     0.287874293578     0.779706803489    12.000000000000
         C           -1.899217772242     1.531874293578    -1.239293196511    12.000000000000
         C           -2.572217772242     1.378874293578    -0.035293196511    12.000000000000
         H            0.011782227758    -1.247125706422    -1.121293196511     1.007825032230
         H           -0.440217772242     0.698874293578    -2.572293196511     1.007825032230
         H           -1.225217772242    -1.559125706422     2.318706803489     1.007825032230
         H            0.001782227758    -2.077125706422     1.195706803489     1.007825032230
         H           -2.799217772242     0.196874293578     1.721706803489     1.007825032230
         H           -2.108217772242     2.382874293578    -1.867293196511     1.007825032230
         H           -3.308217772242     2.109874293578     0.267706803489     1.007825032230
         H           -1.640097772242    -2.754245706422     1.046065803489     1.007825032230

  Running in c1 symmetry.

  Rotational constants: A =      0.05775  B =      0.01987  C =      0.01797 [cm^-1]
  Rotational constants: A =   1731.26863  B =    595.67636  C =    538.66224 [MHz]
  Nuclear repulsion =  489.524054743915030

  Charge       = 0
  Multiplicity = 1
  Electrons    = 76
  Nalpha       = 38
  Nbeta        = 38

  ==> Algorithm <==

  SCF Algorithm Type is PK.
  DIIS enabled.
  MOM disabled.
  Fractional occupation disabled.
  Guess Type is SAD.
  Energy threshold   = 1.00e-06
  Density threshold  = 1.00e-10
  Integral threshold = 0.00e+00

  ==> Primary Basis <==

  Basis Set: CC-PVDZ
    Blend: CC-PVDZ
    Number of shells: 108
    Number of basis function: 220
    Number of Cartesian functions: 230
    Spherical Harmonics?: true
    Max angular momentum: 2

  ==> Pre-Iterations <==

   -------------------------------------------------------
    Irrep   Nso     Nmo     Nalpha   Nbeta   Ndocc  Nsocc
   -------------------------------------------------------
     A        220     220       0       0       0       0
   -------------------------------------------------------
    Total     220     220      38      38      38       0
   -------------------------------------------------------

  ==> Integral Setup <==

  Using integral reordering PK algorithm.
  Sizing the integral batches needed.
  Building batch lookup table.
   Calculation information:
      Number of atoms:                  26
      Number of AO shells:             108
      Number of primitives:            300
      Number of atomic orbitals:       230
      Number of basis functions:       220

      Integral cutoff                 1.00e-12
      Number of threads:                 1

	Batch   1 pq = [       0,    9405] index = [             0,44231715] size =     44231715
	Batch   2 pq = [    9405,   13301] index = [      44231715,88464951] size =     44233236
	Batch   3 pq = [   13301,   16290] index = [      88464951,132690195] size =     44225244
	Batch   4 pq = [   16290,   18810] index = [     132690195,176917455] size =     44227260
	Batch   5 pq = [   18810,   21030] index = [     176917455,221140965] size =     44223510
	Batch   6 pq = [   21030,   23037] index = [     221140965,265363203] size =     44222238
	Batch   7 pq = [   23037,   24310] index = [     265363203,295500205] size =     30137002
  Task number: 27
  Buffer size: 11059200
  Buffer per thread: 2
  We computed 15844993 shell quartets total.
  Whereas there are 17325441 unique shell quartets.

  ==> DiskJK: Disk-Based J/K Matrices <==

    J tasked:                  Yes
    K tasked:                  Yes
    wK tasked:                  No
    Memory [MiB]:              375
    Schwarz Cutoff:          1E-12

    OpenMP threads:              1

  Minimum eigenvalue in the overlap matrix is 3.0105308427E-04.
  Using Symmetric Orthogonalization.

  SCF Guess: Superposition of Atomic Densities via on-the-fly atomic UHF.

  ==> Iterations <==

                        Total Energy        Delta E     RMS |[F,P]|

   @RHF iter SAD:  -386.98413477513401   -3.86984e+02   0.00000e+00
   @RHF iter   1:  -387.76768910836847   -7.83554e-01   2.77548e-03 DIIS
   @RHF iter   2:  -387.98887684651004   -2.21188e-01   1.17056e-03 DIIS
   @RHF iter   3:  -388.02476056796246   -3.58837e-02   2.51028e-04 DIIS
   @RHF iter   4:  -388.02764867731355   -2.88811e-03   5.20332e-05 DIIS
   @RHF iter   5:  -388.02773753591111   -8.88586e-05   1.65915e-05 DIIS
   @RHF iter   6:  -388.02774614768606   -8.61177e-06   4.95252e-06 DIIS
   @RHF iter   7:  -388.02774702982902   -8.82143e-07   1.26610e-06 DIIS
   @RHF iter   8:  -388.02774711355579   -8.37268e-08   4.12198e-07 DIIS
   @RHF iter   9:  -388.02774713233799   -1.87822e-08   2.03427e-07 DIIS
   @RHF iter  10:  -388.02774713769514   -5.35715e-09   8.78001e-08 DIIS
   @RHF iter  11:  -388.02774713883628   -1.14113e-09   2.92101e-08 DIIS
   @RHF iter  12:  -388.02774713892325   -8.69704e-11   9.06477e-09 DIIS
   @RHF iter  13:  -388.02774713893052   -7.27596e-12   3.54817e-09 DIIS
   @RHF iter  14:  -388.02774713893024    2.84217e-13   8.86587e-10 DIIS
   @RHF iter  15:  -388.02774713893439   -4.14957e-12   3.04157e-10 DIIS
   @RHF iter  16:  -388.02774713893120    3.18323e-12   8.50997e-11 DIIS
  Energy and wave function converged.

  ==> Post-Iterations <==

    Orbital Energies [Eh]
    ---------------------

    Doubly Occupied:

       1A    -11.240180     2A    -11.235288     3A    -11.234641
       4A    -11.230422     5A    -11.230163     6A    -11.229182
       7A    -11.229079     8A    -11.215405     9A    -11.211777
      10A    -11.209836    11A     -1.155281    12A     -1.056572
      13A     -1.045679    14A     -1.013515    15A     -0.933076
      16A     -0.921420    17A     -0.827143    18A     -0.797305
      19A     -0.793899    20A     -0.693964    21A     -0.633404
      22A     -0.632252    23A     -0.627918    24A     -0.596717
      25A     -0.583802    26A     -0.579109    27A     -0.563509
      28A     -0.542326    29A     -0.535975    30A     -0.528325
      31A     -0.491122    32A     -0.484976    33A     -0.482931
      34A     -0.474868    35A     -0.464788    36A     -0.463320
      37A     -0.332600    38A     -0.323758

    Virtual:

      39A      0.134355    40A      0.140404    41A      0.162759
      42A      0.190424    43A      0.200592    44A      0.216639
      45A      0.227170    46A      0.232301    47A      0.247998
      48A      0.255547    49A      0.260048    50A      0.266485
      51A      0.283606    52A      0.287903    53A      0.297564
      54A      0.309042    55A      0.318902    56A      0.338636
      57A      0.366611    58A      0.374036    59A      0.383480
      60A      0.429188    61A      0.454702    62A      0.463242
      63A      0.483958    64A      0.492556    65A      0.562396
      66A      0.580558    67A      0.595068    68A      0.609323
      69A      0.613536    70A      0.623558    71A      0.629836
      72A      0.662472    73A      0.679899    74A      0.696200
      75A      0.704109    76A      0.714972    77A      0.737483
      78A      0.739963    79A      0.747732    80A      0.766404
      81A      0.768656    82A      0.781197    83A      0.783017
      84A      0.813078    85A      0.823214    86A      0.839301
      87A      0.860986    88A      0.864464    89A      0.867973
      90A      0.875102    91A      0.881326    92A      0.889474
      93A      0.892543    94A      0.897263    95A      0.904060
      96A      0.908130    97A      0.913598    98A      0.917601
      99A      0.919208   100A      0.938957   101A      0.942158
     102A      0.965521   103A      0.993286   104A      0.994911
     105A      0.996267   106A      1.015439   107A      1.048892
     108A      1.076512   109A      1.119634   110A      1.129368
     111A      1.139634   112A      1.147316   113A      1.155675
     114A      1.161090   115A      1.187374   116A      1.229671
     117A      1.239994   118A      1.248948   119A      1.257713
     120A      1.295828   121A      1.307951   122A      1.312584
     123A      1.319621   124A      1.338329   125A      1.384251
     126A      1.418172   127A      1.481927   128A      1.492094
     129A      1.512647   130A      1.524491   131A      1.552726
     132A      1.559688   133A      1.603114   134A      1.619436
     135A      1.680749   136A      1.683831   137A      1.691613
     138A      1.700842   139A      1.704950   140A      1.739265
     141A      1.749881   142A      1.762618   143A      1.791558
     144A      1.810060   145A      1.852926   146A      1.860655
     147A      1.877257   148A      1.885189   149A      1.892719
     150A      1.902122   151A      1.908065   152A      1.917150
     153A      1.919197   154A      1.929914   155A      1.941669
     156A      1.949771   157A      1.953939   158A      1.964061
     159A      1.969102   160A      1.975091   161A      1.986353
     162A      1.993577   163A      1.994435   164A      2.009800
     165A      2.018180   166A      2.034853   167A      2.047186
     168A      2.055823   169A      2.072027   170A      2.079527
     171A      2.110503   172A      2.134675   173A      2.147465
     174A      2.155305   175A      2.165675   176A      2.170861
     177A      2.180678   178A      2.182987   179A      2.263139
     180A      2.285139   181A      2.296054   182A      2.299047
     183A      2.305972   184A      2.313616   185A      2.322929
     186A      2.324699   187A      2.329307   188A      2.346095
     189A      2.477581   190A      2.484496   191A      2.499582
     192A      2.513329   193A      2.541738   194A      2.551147
     195A      2.591824   196A      2.623691   197A      2.627211
     198A      2.647279   199A      2.742715   200A      2.756023
     201A      2.768294   202A      2.775545   203A      2.789794
     204A      2.798992   205A      2.809595   206A      2.825324
     207A      2.831049   208A      2.857041   209A      2.880008
     210A      2.930940   211A      2.978848   212A      2.984393
     213A      2.999513   214A      3.016730   215A      3.037356
     216A      3.107530   217A      3.161099   218A      3.210945
     219A      3.315069   220A      3.983287

    Final Occupation by Irrep:
              A
    DOCC [    38 ]

  @RHF Final Energy:  -388.02774713893120

   => Energetics <=

    Nuclear Repulsion Energy =            489.5240547439150305
    One-Electron Energy =               -1493.4125523797456481
    Two-Electron Energy =                 615.8607504968994135
    Total Energy =                       -388.0277471389312041

Computation Completed

Properties will be evaluated at   0.000000,   0.000000,   0.000000 [a0]

Properties computed using the SCF density matrix

  Nuclear Dipole Moment: [e a0]
     X:    13.5195      Y:    -3.7030      Z:     3.5935

  Electronic Dipole Moment: [e a0]
     X:   -13.5898      Y:     3.6503      Z:    -3.5324

  Dipole Moment: [e a0]
     X:    -0.0703      Y:    -0.0527      Z:     0.0611     Total:     0.1070

  Dipole Moment: [D]
     X:    -0.1786      Y:    -0.1339      Z:     0.1553     Total:     0.2719

*** tstop() called on ds3 at Mon Apr 27 17:19:22 2020
Module time:
	user time   =     107.70 seconds =       1.80 minutes
	system time =      41.60 seconds =       0.69 minutes
	total time  =        144 seconds =       2.40 minutes
Total time:
	user time   =     107.70 seconds =       1.80 minutes
	system time =      41.60 seconds =       0.69 minutes
	total time  =        144 seconds =       2.40 minutes
                                     G D M A

                                 by Anthony Stone

                           version 2.2.06, 22 June 2011

               Distributed Multipoles from Gaussian wavefunctions

Starting at 17:19:22 on 27 Apr 2020

Using SCF density matrix from file ./SSI/SSI-224MET-229PHE-2-dimer.test.7575.fchk

                         Distributed Multipole Analysis

Standard DMA

Positions and radii in angstrom
Multipole moments in atomic units, ea_0^k for rank k

C          x =  2.883782  y =  0.217874  z =  0.001707 angstrom
           Maximum rank =  0   Radius =  0.650 angstrom
                   Q00  =  -0.104696

C          x =  3.393782  y = -1.121126  z = -0.502293 angstrom
           Maximum rank =  0   Radius =  0.650 angstrom
                   Q00  =  -0.234423

C          x =  3.347782  y =  0.462874  z =  1.425707 angstrom
           Maximum rank =  0   Radius =  0.650 angstrom
                   Q00  =  -0.226041

H          x =  3.239782  y =  1.020874  z = -0.644293 angstrom
           Maximum rank =  0   Radius =  0.325 angstrom
                   Q00  =   0.045392

H          x =  1.801782  y =  0.157874  z = -0.048293 angstrom
           Maximum rank =  0   Radius =  0.325 angstrom
                   Q00  =   0.065908

H          x =  2.977782  y = -1.903126  z =  0.134707 angstrom
           Maximum rank =  0   Radius =  0.325 angstrom
                   Q00  =   0.068019

H          x =  2.940782  y = -0.341126  z =  2.020707 angstrom
           Maximum rank =  0   Radius =  0.325 angstrom
                   Q00  =   0.069383

H          x =  4.424782  y =  0.429874  z =  1.482707 angstrom
           Maximum rank =  0   Radius =  0.325 angstrom
                   Q00  =   0.075287

H          x =  4.490822  y = -1.156001  z = -0.429511 angstrom
           Maximum rank =  0   Radius =  0.325 angstrom
                   Q00  =   0.075281

H          x =  3.048292  y = -1.325244  z = -1.526488 angstrom
           Maximum rank =  0   Radius =  0.325 angstrom
                   Q00  =   0.080196

H          x =  3.004882  y =  1.415992  z =  1.854641 angstrom
           Maximum rank =  0   Radius =  0.325 angstrom
                   Q00  =   0.085353

C          x = -1.059218  y = -1.851126  z =  1.284707 angstrom
           Maximum rank =  0   Radius =  0.650 angstrom
                   Q00  =  -0.204413

C          x = -0.690218  y = -0.500126  z = -0.808293 angstrom
           Maximum rank =  0   Radius =  0.650 angstrom
                   Q00  =  -0.013053

C          x = -1.360218  y = -0.666126  z =  0.398707 angstrom
           Maximum rank =  0   Radius =  0.650 angstrom
                   Q00  =  -0.106604

C          x = -0.957218  y =  0.590874  z = -1.627293 angstrom
           Maximum rank =  0   Radius =  0.650 angstrom
                   Q00  =  -0.077468

C          x = -2.298218  y =  0.287874  z =  0.779707 angstrom
           Maximum rank =  0   Radius =  0.650 angstrom
                   Q00  =  -0.048616

C          x = -1.899218  y =  1.531874  z = -1.239293 angstrom
           Maximum rank =  0   Radius =  0.650 angstrom
                   Q00  =  -0.084723

C          x = -2.572218  y =  1.378874  z = -0.035293 angstrom
           Maximum rank =  0   Radius =  0.650 angstrom
                   Q00  =  -0.068586

H          x =  0.011782  y = -1.247126  z = -1.121293 angstrom
           Maximum rank =  0   Radius =  0.325 angstrom
                   Q00  =   0.055245

H          x = -0.440218  y =  0.698874  z = -2.572293 angstrom
           Maximum rank =  0   Radius =  0.325 angstrom
                   Q00  =   0.064612

H          x = -1.225218  y = -1.559126  z =  2.318707 angstrom
           Maximum rank =  0   Radius =  0.325 angstrom
                   Q00  =   0.099690

H          x =  0.001782  y = -2.077126  z =  1.195707 angstrom
           Maximum rank =  0   Radius =  0.325 angstrom
                   Q00  =   0.096765

H          x = -2.799218  y =  0.196874  z =  1.721707 angstrom
           Maximum rank =  0   Radius =  0.325 angstrom
                   Q00  =   0.055586

H          x = -2.108218  y =  2.382874  z = -1.867293 angstrom
           Maximum rank =  0   Radius =  0.325 angstrom
                   Q00  =   0.060620

H          x = -3.308218  y =  2.109874  z =  0.267707 angstrom
           Maximum rank =  0   Radius =  0.325 angstrom
                   Q00  =   0.064147

H          x = -1.640098  y = -2.754246  z =  1.046066 angstrom
           Maximum rank =  0   Radius =  0.325 angstrom
                   Q00  =   0.107139

Total multipoles referred to origin at
           x =   0.000000,  y =    0.000000,  z =    0.000000 angstrom
                   Q00  =  -0.000000

Finished at 17:19:22 on 27 Apr 2020

  DMA results are available in the Python driver through the
	  variable('DMA DISTRIBUTED MULTIPOLES')
  and
	  variable('DMA TOTAL MULTIPOLES')
  commands.

    Psi4 stopped on: Monday, 27 April 2020 05:19PM
    Psi4 wall time for execution: 0:02:24.03

*** Psi4 exiting successfully. Buy a developer a beer!
