                               Psi4 1.3.2 release

  ==> Input File <==

--------------------------------------------------------------------------
import numpy as np
set {scf_type pk
basis cc-pvdz
d_convergence 10
gdma_switch   0
gdma_limit    0
gdma_origin   [ 0.0,  0.0,  0.0 ]
}
molecule test {
    units Angstrom
    -1 1
    --
    -1 1
    C                0.966164143387800    -0.387745034460672    -0.420687102857183
    C                2.052164143387799    -0.413745034460672    -1.482687102857183
    C                1.191164143387799     0.662254965539328     0.657312897142817
    O                0.224164143387799     0.920254965539328     1.412312897142817
    O                2.334164143387799     1.130254965539328     0.834312897142817
    H                0.026164143387799    -0.174745034460672    -0.932687102857183
    H                0.851164143387800    -1.364745034460672     0.043312897142817
    H                3.035164143387799    -0.422745034460672    -1.017687102857183
    H                1.965164143387799     0.489254965539328    -2.088687102857183
    H                1.965693143387799    -1.297750034460672    -2.131577102857183
    C               -2.831835856612201    -0.363745034460672    -0.342687102857183
    C               -3.780835856612201    -1.524745034460671    -0.641687102857183
    H               -2.112835856612200    -0.647745034460672     0.427312897142817
    H               -2.298835856612201    -0.066745034460672    -1.242687102857183
    H               -3.383835856612201     0.516254965539328    -0.015687102857183
    H               -4.521835856612201    -1.193745034460671    -1.371687102857183
    H               -4.292486856612200    -1.853664034460672     0.274842897142817
    H               -3.221801856612201    -2.382930034460672    -1.042937102857183

}
e, wfn = energy('scf', return_wfn=True)
gdma(wfn)
dmavals = variable('DMA DISTRIBUTED MULTIPOLES')
charges = np.array(dmavals)
print(charges)
np.save('SSI-013GLU-052ILE-1-dimer.npy', np.array(charges))--------------------------------------------------------------------------

*** tstart() called on ds3
*** at Mon Apr 27 07:31:13 2020

   => Loading Basis Set <=

    Name: CC-PVDZ
    Role: ORBITAL
    Keyword: BASIS
    atoms 1-3, 11-12  entry C          line   138 file /theoryfs2/ds/metcalf/miniconda2/envs/tf2gpu/share/psi4/basis/cc-pvdz.gbs
    atoms 4-5         entry O          line   198 file /theoryfs2/ds/metcalf/miniconda2/envs/tf2gpu/share/psi4/basis/cc-pvdz.gbs
    atoms 6-10, 13-18 entry H          line    22 file /theoryfs2/ds/metcalf/miniconda2/envs/tf2gpu/share/psi4/basis/cc-pvdz.gbs

         ---------------------------------------------------------
                                   SCF
               by Justin Turney, Rob Parrish, Andy Simmonett
                          and Daniel G. A. Smith
                              RHF Reference
                        1 Threads,    500 MiB Core
         ---------------------------------------------------------

  ==> Geometry <==

    Molecular point group: c1
    Full point group: C1

    Geometry (in Angstrom), charge = -1, multiplicity = 1:

       Center              X                  Y                   Z               Mass
    ------------   -----------------  -----------------  -----------------  -----------------
         C            0.966164143388    -0.387745034461    -0.420687102857    12.000000000000
         C            2.052164143388    -0.413745034461    -1.482687102857    12.000000000000
         C            1.191164143388     0.662254965539     0.657312897143    12.000000000000
         O            0.224164143388     0.920254965539     1.412312897143    15.994914619570
         O            2.334164143388     1.130254965539     0.834312897143    15.994914619570
         H            0.026164143388    -0.174745034461    -0.932687102857     1.007825032230
         H            0.851164143388    -1.364745034461     0.043312897143     1.007825032230
         H            3.035164143388    -0.422745034461    -1.017687102857     1.007825032230
         H            1.965164143388     0.489254965539    -2.088687102857     1.007825032230
         H            1.965693143388    -1.297750034461    -2.131577102857     1.007825032230
         C           -2.831835856612    -0.363745034461    -0.342687102857    12.000000000000
         C           -3.780835856612    -1.524745034461    -0.641687102857    12.000000000000
         H           -2.112835856612    -0.647745034461     0.427312897143     1.007825032230
         H           -2.298835856612    -0.066745034461    -1.242687102857     1.007825032230
         H           -3.383835856612     0.516254965539    -0.015687102857     1.007825032230
         H           -4.521835856612    -1.193745034461    -1.371687102857     1.007825032230
         H           -4.292486856612    -1.853664034461     0.274842897143     1.007825032230
         H           -3.221801856612    -2.382930034461    -1.042937102857     1.007825032230

  Running in c1 symmetry.

  Rotational constants: A =      0.12203  B =      0.02892  C =      0.02412 [cm^-1]
  Rotational constants: A =   3658.41825  B =    867.02149  C =    723.03433 [MHz]
  Nuclear repulsion =  287.558533730484783

  Charge       = -1
  Multiplicity = 1
  Electrons    = 58
  Nalpha       = 29
  Nbeta        = 29

  ==> Algorithm <==

  SCF Algorithm Type is PK.
  DIIS enabled.
  MOM disabled.
  Fractional occupation disabled.
  Guess Type is SAD.
  Energy threshold   = 1.00e-06
  Density threshold  = 1.00e-10
  Integral threshold = 0.00e+00

  ==> Primary Basis <==

  Basis Set: CC-PVDZ
    Blend: CC-PVDZ
    Number of shells: 75
    Number of basis function: 153
    Number of Cartesian functions: 160
    Spherical Harmonics?: true
    Max angular momentum: 2

  ==> Pre-Iterations <==

   -------------------------------------------------------
    Irrep   Nso     Nmo     Nalpha   Nbeta   Ndocc  Nsocc
   -------------------------------------------------------
     A        153     153       0       0       0       0
   -------------------------------------------------------
    Total     153     153      29      29      29       0
   -------------------------------------------------------

  ==> Integral Setup <==

  Using integral reordering PK algorithm.
  Sizing the integral batches needed.
  Building batch lookup table.
   Calculation information:
      Number of atoms:                  18
      Number of AO shells:              75
      Number of primitives:            209
      Number of atomic orbitals:       160
      Number of basis functions:       153

      Integral cutoff                 1.00e-12
      Number of threads:                 1

	Batch   1 pq = [       0,    9405] index = [             0,44231715] size =     44231715
	Batch   2 pq = [    9405,   11781] index = [      44231715,69401871] size =     25170156
  Task number: 7
  Buffer size: 11059200
  Buffer per thread: 2
  We computed 3264894 shell quartets total.
  Whereas there are 4062675 unique shell quartets.

  ==> DiskJK: Disk-Based J/K Matrices <==

    J tasked:                  Yes
    K tasked:                  Yes
    wK tasked:                  No
    Memory [MiB]:              375
    Schwarz Cutoff:          1E-12

    OpenMP threads:              1

  Minimum eigenvalue in the overlap matrix is 3.7244077143E-03.
  Using Symmetric Orthogonalization.

  SCF Guess: Superposition of Atomic Densities via on-the-fly atomic UHF.

  ==> Iterations <==

                        Total Energy        Delta E     RMS |[F,P]|

   @RHF iter SAD:  -343.88093784824014   -3.43881e+02   0.00000e+00
   @RHF iter   1:  -345.22089795661446   -1.33996e+00   4.91424e-03 DIIS
   @RHF iter   2:  -345.44455243645291   -2.23654e-01   2.70935e-03 DIIS
   @RHF iter   3:  -345.50910904319738   -6.45566e-02   4.26992e-04 DIIS
   @RHF iter   4:  -345.51211359586813   -3.00455e-03   1.67608e-04 DIIS
   @RHF iter   5:  -345.51255650822321   -4.42912e-04   2.43134e-05 DIIS
   @RHF iter   6:  -345.51256984175285   -1.33335e-05   5.28225e-06 DIIS
   @RHF iter   7:  -345.51257043395503   -5.92202e-07   1.90774e-06 DIIS
   @RHF iter   8:  -345.51257049947895   -6.55239e-08   7.95925e-07 DIIS
   @RHF iter   9:  -345.51257050997299   -1.04940e-08   2.67209e-07 DIIS
   @RHF iter  10:  -345.51257051249399   -2.52101e-09   1.03880e-07 DIIS
   @RHF iter  11:  -345.51257051292959   -4.35591e-10   2.83548e-08 DIIS
   @RHF iter  12:  -345.51257051296716   -3.75735e-11   8.62789e-09 DIIS
   @RHF iter  13:  -345.51257051297137   -4.20641e-12   2.67069e-09 DIIS
   @RHF iter  14:  -345.51257051296898    2.38742e-12   7.95501e-10 DIIS
   @RHF iter  15:  -345.51257051297097   -1.98952e-12   3.15301e-10 DIIS
   @RHF iter  16:  -345.51257051297034    6.25278e-13   1.18896e-10 DIIS
   @RHF iter  17:  -345.51257051297227   -1.93268e-12   4.98390e-11 DIIS
  Energy and wave function converged.

  ==> Post-Iterations <==

    Orbital Energies [Eh]
    ---------------------

    Doubly Occupied:

       1A    -20.261123     2A    -20.254597     3A    -11.124235
       4A    -11.112067     5A    -11.100987     6A    -11.067123
       7A    -11.050240     8A     -1.148271     9A     -1.033948
      10A     -0.913169    11A     -0.870848    12A     -0.731879
      13A     -0.699730    14A     -0.507139    15A     -0.496010
      16A     -0.490181    17A     -0.457541    18A     -0.430462
      19A     -0.397864    20A     -0.389573    21A     -0.379112
      22A     -0.377891    23A     -0.358855    24A     -0.354469
      25A     -0.322895    26A     -0.296475    27A     -0.180880
      28A     -0.168828    29A     -0.159028

    Virtual:

      30A      0.281841    31A      0.326099    32A      0.342045
      33A      0.351749    34A      0.356148    35A      0.367426
      36A      0.390580    37A      0.400382    38A      0.421905
      39A      0.429381    40A      0.453896    41A      0.498555
      42A      0.517327    43A      0.562889    44A      0.609870
      45A      0.686869    46A      0.696768    47A      0.703389
      48A      0.709530    49A      0.741432    50A      0.756669
      51A      0.762266    52A      0.791896    53A      0.872980
      54A      0.905327    55A      0.953788    56A      0.958901
      57A      0.972385    58A      0.983572    59A      0.988641
      60A      1.005138    61A      1.008696    62A      1.012788
      63A      1.023615    64A      1.038236    65A      1.041835
      66A      1.053034    67A      1.067272    68A      1.072430
      69A      1.075208    70A      1.114508    71A      1.128018
      72A      1.152175    73A      1.227788    74A      1.234661
      75A      1.308762    76A      1.312164    77A      1.324843
      78A      1.342399    79A      1.398622    80A      1.472671
      81A      1.502771    82A      1.534141    83A      1.573036
      84A      1.581878    85A      1.599658    86A      1.619503
      87A      1.644226    88A      1.675832    89A      1.705866
      90A      1.732791    91A      1.774369    92A      1.801029
      93A      1.828489    94A      1.846625    95A      1.876300
      96A      1.922234    97A      1.968991    98A      1.982529
      99A      2.005507   100A      2.029116   101A      2.042250
     102A      2.043840   103A      2.054717   104A      2.056182
     105A      2.062733   106A      2.072434   107A      2.098359
     108A      2.126810   109A      2.140953   110A      2.158755
     111A      2.190829   112A      2.200627   113A      2.201934
     114A      2.217725   115A      2.237525   116A      2.256095
     117A      2.351449   118A      2.398293   119A      2.409896
     120A      2.438423   121A      2.462174   122A      2.504173
     123A      2.526289   124A      2.558655   125A      2.585137
     126A      2.606612   127A      2.661529   128A      2.668168
     129A      2.678734   130A      2.739331   131A      2.773259
     132A      2.802407   133A      2.852305   134A      2.905587
     135A      2.921610   136A      2.951442   137A      2.974682
     138A      3.004107   139A      3.014692   140A      3.063364
     141A      3.064603   142A      3.077808   143A      3.151293
     144A      3.247536   145A      3.289996   146A      3.306551
     147A      3.363826   148A      3.640825   149A      3.770190
     150A      3.847267   151A      4.057029   152A      4.092773
     153A      4.207509

    Final Occupation by Irrep:
              A
    DOCC [    29 ]

  @RHF Final Energy:  -345.51257051297227

   => Energetics <=

    Nuclear Repulsion Energy =            287.5585337304847826
    One-Electron Energy =               -1051.8713712318640319
    Two-Electron Energy =                 418.8002669884069746
    Total Energy =                       -345.5125705129722746

Computation Completed

Properties will be evaluated at   0.000000,   0.000000,   0.000000 [a0]

Properties computed using the SCF density matrix

  Nuclear Dipole Moment: [e a0]
     X:   -11.2264      Y:    -7.8642      Z:    -8.5185

  Electronic Dipole Moment: [e a0]
     X:     9.0385      Y:     6.0287      Z:     6.5550

  Dipole Moment: [e a0]
     X:    -2.1879      Y:    -1.8355      Z:    -1.9635     Total:     3.4657

  Dipole Moment: [D]
     X:    -5.5611      Y:    -4.6654      Z:    -4.9906     Total:     8.8090

*** tstop() called on ds3 at Mon Apr 27 07:32:14 2020
Module time:
	user time   =      21.68 seconds =       0.36 minutes
	system time =       9.79 seconds =       0.16 minutes
	total time  =         61 seconds =       1.02 minutes
Total time:
	user time   =      21.68 seconds =       0.36 minutes
	system time =       9.79 seconds =       0.16 minutes
	total time  =         61 seconds =       1.02 minutes
                                     G D M A

                                 by Anthony Stone

                           version 2.2.06, 22 June 2011

               Distributed Multipoles from Gaussian wavefunctions

Starting at 7:32:14 on 27 Apr 2020

Using SCF density matrix from file ./SSI/SSI-013GLU-052ILE-1-dimer.test.21260.fchk

                         Distributed Multipole Analysis

Standard DMA

Positions and radii in angstrom
Multipole moments in atomic units, ea_0^k for rank k

C          x =  0.966164  y = -0.387745  z = -0.420687 angstrom
           Maximum rank =  0   Radius =  0.650 angstrom
                   Q00  =  -0.162101

C          x =  2.052164  y = -0.413745  z = -1.482687 angstrom
           Maximum rank =  0   Radius =  0.650 angstrom
                   Q00  =  -0.212922

C          x =  1.191164  y =  0.662255  z =  0.657313 angstrom
           Maximum rank =  0   Radius =  0.650 angstrom
                   Q00  =   1.023522

O          x =  0.224164  y =  0.920255  z =  1.412313 angstrom
           Maximum rank =  0   Radius =  0.650 angstrom
                   Q00  =  -0.946644

O          x =  2.334164  y =  1.130255  z =  0.834313 angstrom
           Maximum rank =  0   Radius =  0.650 angstrom
                   Q00  =  -0.953244

H          x =  0.026164  y = -0.174745  z = -0.932687 angstrom
           Maximum rank =  0   Radius =  0.325 angstrom
                   Q00  =   0.028585

H          x =  0.851164  y = -1.364745  z =  0.043313 angstrom
           Maximum rank =  0   Radius =  0.325 angstrom
                   Q00  =   0.055049

H          x =  3.035164  y = -0.422745  z = -1.017687 angstrom
           Maximum rank =  0   Radius =  0.325 angstrom
                   Q00  =   0.093523

H          x =  1.965164  y =  0.489255  z = -2.088687 angstrom
           Maximum rank =  0   Radius =  0.325 angstrom
                   Q00  =   0.063261

H          x =  1.965693  y = -1.297750  z = -2.131577 angstrom
           Maximum rank =  0   Radius =  0.325 angstrom
                   Q00  =   0.013964

C          x = -2.831836  y = -0.363745  z = -0.342687 angstrom
           Maximum rank =  0   Radius =  0.650 angstrom
                   Q00  =  -0.183681

C          x = -3.780836  y = -1.524745  z = -0.641687 angstrom
           Maximum rank =  0   Radius =  0.650 angstrom
                   Q00  =  -0.247899

H          x = -2.112836  y = -0.647745  z =  0.427313 angstrom
           Maximum rank =  0   Radius =  0.325 angstrom
                   Q00  =   0.100687

H          x = -2.298836  y = -0.066745  z = -1.242687 angstrom
           Maximum rank =  0   Radius =  0.325 angstrom
                   Q00  =   0.070378

H          x = -3.383836  y =  0.516255  z = -0.015687 angstrom
           Maximum rank =  0   Radius =  0.325 angstrom
                   Q00  =   0.065344

H          x = -4.521836  y = -1.193745  z = -1.371687 angstrom
           Maximum rank =  0   Radius =  0.325 angstrom
                   Q00  =   0.056171

H          x = -4.292487  y = -1.853664  z =  0.274843 angstrom
           Maximum rank =  0   Radius =  0.325 angstrom
                   Q00  =   0.065552

H          x = -3.221802  y = -2.382930  z = -1.042937 angstrom
           Maximum rank =  0   Radius =  0.325 angstrom
                   Q00  =   0.070455

Total multipoles referred to origin at
           x =   0.000000,  y =    0.000000,  z =    0.000000 angstrom
                   Q00  =  -1.000000

Finished at 7:32:14 on 27 Apr 2020

  DMA results are available in the Python driver through the
	  variable('DMA DISTRIBUTED MULTIPOLES')
  and
	  variable('DMA TOTAL MULTIPOLES')
  commands.

    Psi4 stopped on: Monday, 27 April 2020 07:32AM
    Psi4 wall time for execution: 0:01:00.82

*** Psi4 exiting successfully. Buy a developer a beer!
