                               Psi4 1.3.2 release

  ==> Input File <==

--------------------------------------------------------------------------
import numpy as np
set {scf_type pk
basis cc-pvdz
d_convergence 10
gdma_switch   0
gdma_limit    0
gdma_origin   [ 0.0,  0.0,  0.0 ]
}
molecule test {
    units Angstrom
    0 1
    --
    0 1
    C               -1.864290650104772    -0.026513060673067    -1.155245128305765
    C               -2.833290650104773    -0.050513060673067     0.007754871694235
    H               -2.290290650104773     0.497486939326933    -2.014245128305765
    H               -0.949290650104772     0.486486939326933    -0.855245128305765
    H               -1.589290650104772    -1.043513060673067    -1.438245128305765
    H               -2.457290650104772    -0.772513060673067     0.734754871694235
    H               -3.825344650104773    -0.389023060673067    -0.325775128305765
    H               -2.877900650104772     0.922266939326933     0.519324871694235
    C                1.595709349895228     0.054486939326933     0.490754871694235
    C                3.096709349895227     0.035486939326933     0.653754871694235
    H                1.322709349895227    -0.121513060673067    -0.550245128305765
    H                1.151709349895228    -0.746513060673067     1.080754871694235
    H                1.189709349895227     1.009486939326933     0.826754871694235
    H                3.453709349895227    -0.893513060673067     0.209754871694235
    H                3.565162349895228     0.880726939326933     0.128274871694235
    H                3.367878349895227     0.015966939326933     1.719624871694235

}
e, wfn = energy('scf', return_wfn=True)
gdma(wfn)
dmavals = variable('DMA DISTRIBUTED MULTIPOLES')
charges = np.array(dmavals)
print(charges)
np.save('SSI-154ILE-160VAL-1-dimer.npy', np.array(charges))--------------------------------------------------------------------------

*** tstart() called on ds3
*** at Tue Apr 28 02:04:58 2020

   => Loading Basis Set <=

    Name: CC-PVDZ
    Role: ORBITAL
    Keyword: BASIS
    atoms 1-2, 9-10  entry C          line   138 file /theoryfs2/ds/metcalf/miniconda2/envs/tf2gpu/share/psi4/basis/cc-pvdz.gbs
    atoms 3-8, 11-16 entry H          line    22 file /theoryfs2/ds/metcalf/miniconda2/envs/tf2gpu/share/psi4/basis/cc-pvdz.gbs

         ---------------------------------------------------------
                                   SCF
               by Justin Turney, Rob Parrish, Andy Simmonett
                          and Daniel G. A. Smith
                              RHF Reference
                        1 Threads,    500 MiB Core
         ---------------------------------------------------------

  ==> Geometry <==

    Molecular point group: c1
    Full point group: C1

    Geometry (in Angstrom), charge = 0, multiplicity = 1:

       Center              X                  Y                   Z               Mass
    ------------   -----------------  -----------------  -----------------  -----------------
         C           -1.864290650105    -0.026513060673    -1.155245128306    12.000000000000
         C           -2.833290650105    -0.050513060673     0.007754871694    12.000000000000
         H           -2.290290650105     0.497486939327    -2.014245128306     1.007825032230
         H           -0.949290650105     0.486486939327    -0.855245128306     1.007825032230
         H           -1.589290650105    -1.043513060673    -1.438245128306     1.007825032230
         H           -2.457290650105    -0.772513060673     0.734754871694     1.007825032230
         H           -3.825344650105    -0.389023060673    -0.325775128306     1.007825032230
         H           -2.877900650105     0.922266939327     0.519324871694     1.007825032230
         C            1.595709349895     0.054486939327     0.490754871694    12.000000000000
         C            3.096709349895     0.035486939327     0.653754871694    12.000000000000
         H            1.322709349895    -0.121513060673    -0.550245128306     1.007825032230
         H            1.151709349895    -0.746513060673     1.080754871694     1.007825032230
         H            1.189709349895     1.009486939327     0.826754871694     1.007825032230
         H            3.453709349895    -0.893513060673     0.209754871694     1.007825032230
         H            3.565162349895     0.880726939327     0.128274871694     1.007825032230
         H            3.367878349895     0.015966939327     1.719624871694     1.007825032230

  Running in c1 symmetry.

  Rotational constants: A =      0.61027  B =      0.04382  C =      0.04219 [cm^-1]
  Rotational constants: A =  18295.58359  B =   1313.71175  C =   1264.86379 [MHz]
  Nuclear repulsion =  121.128668845346567

  Charge       = 0
  Multiplicity = 1
  Electrons    = 36
  Nalpha       = 18
  Nbeta        = 18

  ==> Algorithm <==

  SCF Algorithm Type is PK.
  DIIS enabled.
  MOM disabled.
  Fractional occupation disabled.
  Guess Type is SAD.
  Energy threshold   = 1.00e-06
  Density threshold  = 1.00e-10
  Integral threshold = 0.00e+00

  ==> Primary Basis <==

  Basis Set: CC-PVDZ
    Blend: CC-PVDZ
    Number of shells: 60
    Number of basis function: 116
    Number of Cartesian functions: 120
    Spherical Harmonics?: true
    Max angular momentum: 2

  ==> Pre-Iterations <==

   -------------------------------------------------------
    Irrep   Nso     Nmo     Nalpha   Nbeta   Ndocc  Nsocc
   -------------------------------------------------------
     A        116     116       0       0       0       0
   -------------------------------------------------------
    Total     116     116      18      18      18       0
   -------------------------------------------------------

  ==> Integral Setup <==

  Using integral reordering PK algorithm.
  Sizing the integral batches needed.
  Building batch lookup table.
   Calculation information:
      Number of atoms:                  16
      Number of AO shells:              60
      Number of primitives:            148
      Number of atomic orbitals:       120
      Number of basis functions:       116

      Integral cutoff                 1.00e-12
      Number of threads:                 1

	Batch   1 pq = [       0,    6786] index = [             0,23028291] size =     23028291
  Task number: 3
  Buffer size: 11059200
  Buffer per thread: 2
  We computed 1382710 shell quartets total.
  Whereas there are 1675365 unique shell quartets.

  ==> DiskJK: Disk-Based J/K Matrices <==

    J tasked:                  Yes
    K tasked:                  Yes
    wK tasked:                  No
    Memory [MiB]:              375
    Schwarz Cutoff:          1E-12

    OpenMP threads:              1

  Minimum eigenvalue in the overlap matrix is 6.2651705208E-03.
  Using Symmetric Orthogonalization.

  SCF Guess: Superposition of Atomic Densities via on-the-fly atomic UHF.

  ==> Iterations <==

                        Total Energy        Delta E     RMS |[F,P]|

   @RHF iter SAD:  -157.39762413030789   -1.57398e+02   0.00000e+00
   @RHF iter   1:  -158.30278200647106   -9.05158e-01   4.26770e-03 DIIS
   @RHF iter   2:  -158.43847546348664   -1.35693e-01   1.83666e-03 DIIS
   @RHF iter   3:  -158.46285339553245   -2.43779e-02   3.52256e-04 DIIS
   @RHF iter   4:  -158.46471510887255   -1.86171e-03   3.90056e-05 DIIS
   @RHF iter   5:  -158.46473919656040   -2.40877e-05   6.41164e-06 DIIS
   @RHF iter   6:  -158.46473981691585   -6.20355e-07   9.88406e-07 DIIS
   @RHF iter   7:  -158.46473982710779   -1.01919e-08   2.99034e-07 DIIS
   @RHF iter   8:  -158.46473982788757   -7.79778e-10   4.41447e-08 DIIS
   @RHF iter   9:  -158.46473982791963   -3.20597e-11   9.49179e-09 DIIS
   @RHF iter  10:  -158.46473982792111   -1.47793e-12   2.19968e-09 DIIS
   @RHF iter  11:  -158.46473982792131   -1.98952e-13   3.56147e-10 DIIS
   @RHF iter  12:  -158.46473982792068    6.25278e-13   7.25832e-11 DIIS
  Energy and wave function converged.

  ==> Post-Iterations <==

    Orbital Energies [Eh]
    ---------------------

    Doubly Occupied:

       1A    -11.218346     2A    -11.217359     3A    -11.215997
       4A    -11.214265     5A     -1.024056     6A     -1.020015
       7A     -0.837261     8A     -0.832409     9A     -0.602362
      10A     -0.601359    11A     -0.597609    12A     -0.596650
      13A     -0.508134    14A     -0.502012    15A     -0.488254
      16A     -0.482997    17A     -0.480549    18A     -0.477793

    Virtual:

      19A      0.173232    20A      0.193842    21A      0.227743
      22A      0.232821    23A      0.238893    24A      0.258587
      25A      0.265276    26A      0.273477    27A      0.281201
      28A      0.293423    29A      0.309339    30A      0.324363
      31A      0.395770    32A      0.416502    33A      0.574345
      34A      0.594655    35A      0.602396    36A      0.604490
      37A      0.607235    38A      0.637471    39A      0.673306
      40A      0.691191    41A      0.702176    42A      0.755861
      43A      0.848832    44A      0.868362    45A      0.877697
      46A      0.892043    47A      0.893150    48A      0.896865
      49A      0.897948    50A      0.911227    51A      0.914771
      52A      0.921482    53A      0.930938    54A      0.948288
      55A      0.972262    56A      1.000541    57A      1.121044
      58A      1.123774    59A      1.130229    60A      1.148165
      61A      1.231753    62A      1.259353    63A      1.473460
      64A      1.479991    65A      1.483313    66A      1.493114
      67A      1.571791    68A      1.581508    69A      1.677521
      70A      1.683244    71A      1.693156    72A      1.700016
      73A      1.844614    74A      1.857490    75A      1.861396
      76A      1.880224    77A      1.896342    78A      1.922422
      79A      1.936200    80A      1.940860    81A      1.946430
      82A      1.948065    83A      1.958403    84A      1.960333
      85A      1.967428    86A      1.972955    87A      1.979557
      88A      2.028295    89A      2.098662    90A      2.119835
      91A      2.127008    92A      2.144195    93A      2.299010
      94A      2.308139    95A      2.317502    96A      2.330359
      97A      2.437454    98A      2.446209    99A      2.456424
     100A      2.474872   101A      2.558223   102A      2.571698
     103A      2.581683   104A      2.594370   105A      2.757415
     106A      2.760279   107A      2.782654   108A      2.790517
     109A      2.844158   110A      2.851623   111A      2.857991
     112A      2.863111   113A      2.941997   114A      2.953454
     115A      2.956237   116A      2.972933

    Final Occupation by Irrep:
              A
    DOCC [    18 ]

  @RHF Final Energy:  -158.46473982792068

   => Energetics <=

    Nuclear Repulsion Energy =            121.1286688453465672
    One-Electron Energy =                -451.3519672961139122
    Two-Electron Energy =                 171.7585586228466639
    Total Energy =                       -158.4647398279206811

Computation Completed

Properties will be evaluated at   0.000000,   0.000000,   0.000000 [a0]

Properties computed using the SCF density matrix

  Nuclear Dipole Moment: [e a0]
     X:     0.0576      Y:    -0.1445      Z:     0.0333

  Electronic Dipole Moment: [e a0]
     X:    -0.0297      Y:     0.1248      Z:    -0.0288

  Dipole Moment: [e a0]
     X:     0.0279      Y:    -0.0197      Z:     0.0045     Total:     0.0345

  Dipole Moment: [D]
     X:     0.0710      Y:    -0.0501      Z:     0.0114     Total:     0.0877

*** tstop() called on ds3 at Tue Apr 28 02:05:07 2020
Module time:
	user time   =       6.75 seconds =       0.11 minutes
	system time =       2.56 seconds =       0.04 minutes
	total time  =          9 seconds =       0.15 minutes
Total time:
	user time   =       6.75 seconds =       0.11 minutes
	system time =       2.56 seconds =       0.04 minutes
	total time  =          9 seconds =       0.15 minutes
                                     G D M A

                                 by Anthony Stone

                           version 2.2.06, 22 June 2011

               Distributed Multipoles from Gaussian wavefunctions

Starting at 2:5:7 on 28 Apr 2020

Using SCF density matrix from file ./SSI/SSI-154ILE-160VAL-1-dimer.test.10434.fchk

                         Distributed Multipole Analysis

Standard DMA

Positions and radii in angstrom
Multipole moments in atomic units, ea_0^k for rank k

C          x = -1.864291  y = -0.026513  z = -1.155245 angstrom
           Maximum rank =  0   Radius =  0.650 angstrom
                   Q00  =  -0.227370

C          x = -2.833291  y = -0.050513  z =  0.007755 angstrom
           Maximum rank =  0   Radius =  0.650 angstrom
                   Q00  =  -0.238679

H          x = -2.290291  y =  0.497487  z = -2.014245 angstrom
           Maximum rank =  0   Radius =  0.325 angstrom
                   Q00  =   0.076431

H          x = -0.949291  y =  0.486487  z = -0.855245 angstrom
           Maximum rank =  0   Radius =  0.325 angstrom
                   Q00  =   0.082002

H          x = -1.589291  y = -1.043513  z = -1.438245 angstrom
           Maximum rank =  0   Radius =  0.325 angstrom
                   Q00  =   0.075975

H          x = -2.457291  y = -0.772513  z =  0.734755 angstrom
           Maximum rank =  0   Radius =  0.325 angstrom
                   Q00  =   0.073714

H          x = -3.825345  y = -0.389023  z = -0.325775 angstrom
           Maximum rank =  0   Radius =  0.325 angstrom
                   Q00  =   0.077975

H          x = -2.877901  y =  0.922267  z =  0.519325 angstrom
           Maximum rank =  0   Radius =  0.325 angstrom
                   Q00  =   0.078581

C          x =  1.595709  y =  0.054487  z =  0.490755 angstrom
           Maximum rank =  0   Radius =  0.650 angstrom
                   Q00  =  -0.237373

C          x =  3.096709  y =  0.035487  z =  0.653755 angstrom
           Maximum rank =  0   Radius =  0.650 angstrom
                   Q00  =  -0.225342

H          x =  1.322709  y = -0.121513  z = -0.550245 angstrom
           Maximum rank =  0   Radius =  0.325 angstrom
                   Q00  =   0.077353

H          x =  1.151709  y = -0.746513  z =  1.080755 angstrom
           Maximum rank =  0   Radius =  0.325 angstrom
                   Q00  =   0.078300

H          x =  1.189709  y =  1.009487  z =  0.826755 angstrom
           Maximum rank =  0   Radius =  0.325 angstrom
                   Q00  =   0.074962

H          x =  3.453709  y = -0.893513  z =  0.209755 angstrom
           Maximum rank =  0   Radius =  0.325 angstrom
                   Q00  =   0.075157

H          x =  3.565162  y =  0.880727  z =  0.128275 angstrom
           Maximum rank =  0   Radius =  0.325 angstrom
                   Q00  =   0.079700

H          x =  3.367878  y =  0.015967  z =  1.719625 angstrom
           Maximum rank =  0   Radius =  0.325 angstrom
                   Q00  =   0.078614

Total multipoles referred to origin at
           x =   0.000000,  y =    0.000000,  z =    0.000000 angstrom
                   Q00  =  -0.000000

Finished at 2:5:7 on 28 Apr 2020

  DMA results are available in the Python driver through the
	  variable('DMA DISTRIBUTED MULTIPOLES')
  and
	  variable('DMA TOTAL MULTIPOLES')
  commands.

    Psi4 stopped on: Tuesday, 28 April 2020 02:05AM
    Psi4 wall time for execution: 0:00:09.16

*** Psi4 exiting successfully. Buy a developer a beer!
