                               Psi4 1.3.2 release

  ==> Input File <==

--------------------------------------------------------------------------
import numpy as np
set {scf_type pk
basis cc-pvdz
d_convergence 10
gdma_switch   0
gdma_limit    0
gdma_origin   [ 0.0,  0.0,  0.0 ]
}
molecule test {
    units Angstrom
    0 1
    --
    0 1
    C               -0.882271192592177     1.600931692847322    -0.725658283891405
    C               -0.375271192592177     2.471931692847322    -1.873658283891404
    H               -1.812271192592177     2.010931692847322    -0.328658283891405
    H               -1.051271192592177     0.588931692847322    -1.095658283891404
    H               -0.140271192592177     1.523931692847322     0.067341716108595
    H                0.567728807407823     2.061931692847322    -2.211658283891405
    H               -0.213661192592177     3.513748692847322    -1.559814383891404
    H               -1.073881192592177     2.441682692847322    -2.722793283891404
    C                0.315728807407823    -1.391068307152678     1.032341716108595
    C                0.943728807407823    -2.676068307152678     1.571341716108595
    H                1.060728807407823    -0.803068307152678     0.493341716108595
    H               -0.494271192592177    -1.645068307152678     0.346341716108595
    H               -0.110271192592177    -0.795068307152678     1.840341716108596
    H                0.195728807407823    -3.193068307152678     2.160341716108595
    H                1.804598807407823    -2.433277307152678     2.211621716108596
    H                1.244308807407823    -3.339795307152678     0.747256716108595

}
e, wfn = energy('scf', return_wfn=True)
gdma(wfn)
dmavals = variable('DMA DISTRIBUTED MULTIPOLES')
charges = np.array(dmavals)
print(charges)
np.save('SSI-013LEU-082VAL-1-dimer.npy', np.array(charges))--------------------------------------------------------------------------

*** tstart() called on ds3
*** at Sun Apr 26 23:24:55 2020

   => Loading Basis Set <=

    Name: CC-PVDZ
    Role: ORBITAL
    Keyword: BASIS
    atoms 1-2, 9-10  entry C          line   138 file /theoryfs2/ds/metcalf/miniconda2/envs/tf2gpu/share/psi4/basis/cc-pvdz.gbs
    atoms 3-8, 11-16 entry H          line    22 file /theoryfs2/ds/metcalf/miniconda2/envs/tf2gpu/share/psi4/basis/cc-pvdz.gbs

         ---------------------------------------------------------
                                   SCF
               by Justin Turney, Rob Parrish, Andy Simmonett
                          and Daniel G. A. Smith
                              RHF Reference
                        1 Threads,    500 MiB Core
         ---------------------------------------------------------

  ==> Geometry <==

    Molecular point group: c1
    Full point group: C1

    Geometry (in Angstrom), charge = 0, multiplicity = 1:

       Center              X                  Y                   Z               Mass
    ------------   -----------------  -----------------  -----------------  -----------------
         C           -0.882271192592     1.600931692847    -0.725658283891    12.000000000000
         C           -0.375271192592     2.471931692847    -1.873658283891    12.000000000000
         H           -1.812271192592     2.010931692847    -0.328658283891     1.007825032230
         H           -1.051271192592     0.588931692847    -1.095658283891     1.007825032230
         H           -0.140271192592     1.523931692847     0.067341716109     1.007825032230
         H            0.567728807408     2.061931692847    -2.211658283891     1.007825032230
         H           -0.213661192592     3.513748692847    -1.559814383891     1.007825032230
         H           -1.073881192592     2.441682692847    -2.722793283891     1.007825032230
         C            0.315728807408    -1.391068307153     1.032341716109    12.000000000000
         C            0.943728807408    -2.676068307153     1.571341716109    12.000000000000
         H            1.060728807408    -0.803068307153     0.493341716109     1.007825032230
         H           -0.494271192592    -1.645068307153     0.346341716109     1.007825032230
         H           -0.110271192592    -0.795068307153     1.840341716109     1.007825032230
         H            0.195728807408    -3.193068307153     2.160341716109     1.007825032230
         H            1.804598807408    -2.433277307153     2.211621716109     1.007825032230
         H            1.244308807408    -3.339795307153     0.747256716109     1.007825032230

  Running in c1 symmetry.

  Rotational constants: A =      0.79747  B =      0.04055  C =      0.03976 [cm^-1]
  Rotational constants: A =  23907.61596  B =   1215.72979  C =   1191.93007 [MHz]
  Nuclear repulsion =  120.185358810185789

  Charge       = 0
  Multiplicity = 1
  Electrons    = 36
  Nalpha       = 18
  Nbeta        = 18

  ==> Algorithm <==

  SCF Algorithm Type is PK.
  DIIS enabled.
  MOM disabled.
  Fractional occupation disabled.
  Guess Type is SAD.
  Energy threshold   = 1.00e-06
  Density threshold  = 1.00e-10
  Integral threshold = 0.00e+00

  ==> Primary Basis <==

  Basis Set: CC-PVDZ
    Blend: CC-PVDZ
    Number of shells: 60
    Number of basis function: 116
    Number of Cartesian functions: 120
    Spherical Harmonics?: true
    Max angular momentum: 2

  ==> Pre-Iterations <==

   -------------------------------------------------------
    Irrep   Nso     Nmo     Nalpha   Nbeta   Ndocc  Nsocc
   -------------------------------------------------------
     A        116     116       0       0       0       0
   -------------------------------------------------------
    Total     116     116      18      18      18       0
   -------------------------------------------------------

  ==> Integral Setup <==

  Using integral reordering PK algorithm.
  Sizing the integral batches needed.
  Building batch lookup table.
   Calculation information:
      Number of atoms:                  16
      Number of AO shells:              60
      Number of primitives:            148
      Number of atomic orbitals:       120
      Number of basis functions:       116

      Integral cutoff                 1.00e-12
      Number of threads:                 1

	Batch   1 pq = [       0,    6786] index = [             0,23028291] size =     23028291
  Task number: 3
  Buffer size: 11059200
  Buffer per thread: 2
  We computed 1343316 shell quartets total.
  Whereas there are 1675365 unique shell quartets.

  ==> DiskJK: Disk-Based J/K Matrices <==

    J tasked:                  Yes
    K tasked:                  Yes
    wK tasked:                  No
    Memory [MiB]:              375
    Schwarz Cutoff:          1E-12

    OpenMP threads:              1

  Minimum eigenvalue in the overlap matrix is 6.3838531992E-03.
  Using Symmetric Orthogonalization.

  SCF Guess: Superposition of Atomic Densities via on-the-fly atomic UHF.

  ==> Iterations <==

                        Total Energy        Delta E     RMS |[F,P]|

   @RHF iter SAD:  -157.34981141980833   -1.57350e+02   0.00000e+00
   @RHF iter   1:  -158.30746155596816   -9.57650e-01   4.21871e-03 DIIS
   @RHF iter   2:  -158.44120638792035   -1.33745e-01   1.79915e-03 DIIS
   @RHF iter   3:  -158.46468277567968   -2.34764e-02   3.50371e-04 DIIS
   @RHF iter   4:  -158.46652047676019   -1.83770e-03   3.90206e-05 DIIS
   @RHF iter   5:  -158.46654424735124   -2.37706e-05   6.71041e-06 DIIS
   @RHF iter   6:  -158.46654490236966   -6.55018e-07   1.09470e-06 DIIS
   @RHF iter   7:  -158.46654491378965   -1.14200e-08   3.12657e-07 DIIS
   @RHF iter   8:  -158.46654491462692   -8.37275e-10   3.42111e-08 DIIS
   @RHF iter   9:  -158.46654491464383   -1.69109e-11   5.38653e-09 DIIS
   @RHF iter  10:  -158.46654491464486   -1.02318e-12   1.26164e-09 DIIS
   @RHF iter  11:  -158.46654491464525   -3.97904e-13   3.02936e-10 DIIS
   @RHF iter  12:  -158.46654491464434    9.09495e-13   8.76107e-11 DIIS
  Energy and wave function converged.

  ==> Post-Iterations <==

    Orbital Energies [Eh]
    ---------------------

    Doubly Occupied:

       1A    -11.218551     2A    -11.217467     3A    -11.216899
       4A    -11.215336     5A     -1.019005     6A     -1.016770
       7A     -0.839872     8A     -0.833378     9A     -0.600378
      10A     -0.598896    11A     -0.596710    12A     -0.593434
      13A     -0.506904    14A     -0.495395    15A     -0.488285
      16A     -0.487301    17A     -0.482374    18A     -0.480426

    Virtual:

      19A      0.175717    20A      0.194430    21A      0.221698
      22A      0.233142    23A      0.244351    24A      0.258508
      25A      0.267064    26A      0.276374    27A      0.281987
      28A      0.296604    29A      0.300758    30A      0.324802
      31A      0.380421    32A      0.413666    33A      0.568703
      34A      0.592567    35A      0.596460    36A      0.601598
      37A      0.607319    38A      0.636172    39A      0.681329
      40A      0.684308    41A      0.704591    42A      0.758197
      43A      0.836280    44A      0.884693    45A      0.892018
      46A      0.892571    47A      0.895090    48A      0.897130
      49A      0.899744    50A      0.912034    51A      0.913603
      52A      0.922271    53A      0.930870    54A      0.939683
      55A      0.960893    56A      0.991307    57A      1.122199
      58A      1.131349    59A      1.136736    60A      1.147375
      61A      1.215437    62A      1.261768    63A      1.468230
      64A      1.472805    65A      1.476938    66A      1.485838
      67A      1.575100    68A      1.583161    69A      1.680315
      70A      1.684873    71A      1.694141    72A      1.696514
      73A      1.851508    74A      1.860628    75A      1.875517
      76A      1.884234    77A      1.890319    78A      1.920706
      79A      1.932978    80A      1.941277    81A      1.945991
      82A      1.948308    83A      1.950519    84A      1.955637
      85A      1.967622    86A      1.970733    87A      1.979862
      88A      2.052849    89A      2.095382    90A      2.097254
      91A      2.115187    92A      2.119960    93A      2.296986
      94A      2.305316    95A      2.319104    96A      2.338760
      97A      2.448957    98A      2.453168    99A      2.472153
     100A      2.479664   101A      2.551704   102A      2.558240
     103A      2.578097   104A      2.583620   105A      2.759435
     106A      2.765621   107A      2.783982   108A      2.794236
     109A      2.846817   110A      2.851461   111A      2.859344
     112A      2.870391   113A      2.941468   114A      2.948667
     115A      2.959051   116A      2.969075

    Final Occupation by Irrep:
              A
    DOCC [    18 ]

  @RHF Final Energy:  -158.46654491464434

   => Energetics <=

    Nuclear Repulsion Energy =            120.1853588101857895
    One-Electron Energy =                -449.4890475397317005
    Two-Electron Energy =                 170.8371438149015660
    Total Energy =                       -158.4665449146443450

Computation Completed

Properties will be evaluated at   0.000000,   0.000000,   0.000000 [a0]

Properties computed using the SCF density matrix

  Nuclear Dipole Moment: [e a0]
     X:    -0.0214      Y:    -0.0639      Z:    -0.0487

  Electronic Dipole Moment: [e a0]
     X:     0.0166      Y:     0.0423      Z:     0.0562

  Dipole Moment: [e a0]
     X:    -0.0048      Y:    -0.0216      Z:     0.0075     Total:     0.0234

  Dipole Moment: [D]
     X:    -0.0122      Y:    -0.0550      Z:     0.0190     Total:     0.0594

*** tstop() called on ds3 at Sun Apr 26 23:25:04 2020
Module time:
	user time   =       6.93 seconds =       0.12 minutes
	system time =       2.68 seconds =       0.04 minutes
	total time  =          9 seconds =       0.15 minutes
Total time:
	user time   =       6.93 seconds =       0.12 minutes
	system time =       2.68 seconds =       0.04 minutes
	total time  =          9 seconds =       0.15 minutes
                                     G D M A

                                 by Anthony Stone

                           version 2.2.06, 22 June 2011

               Distributed Multipoles from Gaussian wavefunctions

Starting at 23:25:5 on 26 Apr 2020

Using SCF density matrix from file ./SSI/SSI-013LEU-082VAL-1-dimer.test.31046.fchk

                         Distributed Multipole Analysis

Standard DMA

Positions and radii in angstrom
Multipole moments in atomic units, ea_0^k for rank k

C          x = -0.882271  y =  1.600932  z = -0.725658 angstrom
           Maximum rank =  0   Radius =  0.650 angstrom
                   Q00  =  -0.244182

C          x = -0.375271  y =  2.471932  z = -1.873658 angstrom
           Maximum rank =  0   Radius =  0.650 angstrom
                   Q00  =  -0.228492

H          x = -1.812271  y =  2.010932  z = -0.328658 angstrom
           Maximum rank =  0   Radius =  0.325 angstrom
                   Q00  =   0.078581

H          x = -1.051271  y =  0.588932  z = -1.095658 angstrom
           Maximum rank =  0   Radius =  0.325 angstrom
                   Q00  =   0.078413

H          x = -0.140271  y =  1.523932  z =  0.067342 angstrom
           Maximum rank =  0   Radius =  0.325 angstrom
                   Q00  =   0.081133

H          x =  0.567729  y =  2.061932  z = -2.211658 angstrom
           Maximum rank =  0   Radius =  0.325 angstrom
                   Q00  =   0.077145

H          x = -0.213661  y =  3.513749  z = -1.559814 angstrom
           Maximum rank =  0   Radius =  0.325 angstrom
                   Q00  =   0.079330

H          x = -1.073881  y =  2.441683  z = -2.722793 angstrom
           Maximum rank =  0   Radius =  0.325 angstrom
                   Q00  =   0.078234

C          x =  0.315729  y = -1.391068  z =  1.032342 angstrom
           Maximum rank =  0   Radius =  0.650 angstrom
                   Q00  =  -0.238601

C          x =  0.943729  y = -2.676068  z =  1.571342 angstrom
           Maximum rank =  0   Radius =  0.650 angstrom
                   Q00  =  -0.235429

H          x =  1.060729  y = -0.803068  z =  0.493342 angstrom
           Maximum rank =  0   Radius =  0.325 angstrom
                   Q00  =   0.076909

H          x = -0.494271  y = -1.645068  z =  0.346342 angstrom
           Maximum rank =  0   Radius =  0.325 angstrom
                   Q00  =   0.077837

H          x = -0.110271  y = -0.795068  z =  1.840342 angstrom
           Maximum rank =  0   Radius =  0.325 angstrom
                   Q00  =   0.080341

H          x =  0.195729  y = -3.193068  z =  2.160342 angstrom
           Maximum rank =  0   Radius =  0.325 angstrom
                   Q00  =   0.079564

H          x =  1.804599  y = -2.433277  z =  2.211622 angstrom
           Maximum rank =  0   Radius =  0.325 angstrom
                   Q00  =   0.079149

H          x =  1.244309  y = -3.339795  z =  0.747257 angstrom
           Maximum rank =  0   Radius =  0.325 angstrom
                   Q00  =   0.080067

Total multipoles referred to origin at
           x =   0.000000,  y =    0.000000,  z =    0.000000 angstrom
                   Q00  =  -0.000000

Finished at 23:25:5 on 26 Apr 2020

  DMA results are available in the Python driver through the
	  variable('DMA DISTRIBUTED MULTIPOLES')
  and
	  variable('DMA TOTAL MULTIPOLES')
  commands.

    Psi4 stopped on: Sunday, 26 April 2020 11:25PM
    Psi4 wall time for execution: 0:00:09.34

*** Psi4 exiting successfully. Buy a developer a beer!
