                               Psi4 1.3.2 release

  ==> Input File <==

--------------------------------------------------------------------------
import numpy as np
set {scf_type pk
basis cc-pvdz
d_convergence 10
gdma_switch   0
gdma_limit    0
gdma_origin   [ 0.0,  0.0,  0.0 ]
}
molecule test {
    units Angstrom
    0 1
    --
    0 1
    C               -1.573338830088060    -0.832881472346601    -0.284879735804077
    C               -3.050338830088060    -1.059881472346601    -0.435879735804077
    C               -0.932338830088059    -2.095881472346601    -0.841879735804077
    H               -1.325338830088060    -0.727881472346601     0.772120264195923
    H               -1.261338830088059     0.053118527653399    -0.838879735804077
    H               -3.590338830088059    -0.529881472346601     0.349120264195923
    H               -3.376338830088059    -0.736881472346601    -1.425879735804076
    H                0.081661169911941    -2.237881472346601    -0.463879735804077
    H               -0.925338830088059    -2.047881472346601    -1.931879735804076
    H               -3.159788830088059    -2.151409472346601    -0.354722735804077
    H               -1.623218830088059    -2.886899472346601    -0.514809735804077
    C                1.370661169911941     0.910118527653399     0.357120264195923
    C                1.133661169911941     2.112118527653399     1.262120264195923
    O                2.742661169911941     0.899118527653399    -0.015879735804077
    H                1.108661169911941    -0.013881472346601     0.875120264195923
    H                0.763661169911941     1.012118527653399    -0.543879735804077
    H                1.506661169911941     2.990118527653399     0.730120264195923
    H                2.871661169911941     0.240118527653399    -0.713879735804077
    H                1.680021169911941     2.007508527653399     2.211094264195924
    H                0.057351169911941     2.266798527653399     1.428316264195924

}
e, wfn = energy('scf', return_wfn=True)
gdma(wfn)
dmavals = variable('DMA DISTRIBUTED MULTIPOLES')
charges = np.array(dmavals)
print(charges)
np.save('SSI-135PRO-140SER-1-dimer.npy', np.array(charges))--------------------------------------------------------------------------

*** tstart() called on ds3
*** at Tue Apr 28 16:39:36 2020

   => Loading Basis Set <=

    Name: CC-PVDZ
    Role: ORBITAL
    Keyword: BASIS
    atoms 1-3, 12-13  entry C          line   138 file /theoryfs2/ds/metcalf/miniconda2/envs/tf2gpu/share/psi4/basis/cc-pvdz.gbs
    atoms 4-11, 15-20 entry H          line    22 file /theoryfs2/ds/metcalf/miniconda2/envs/tf2gpu/share/psi4/basis/cc-pvdz.gbs
    atoms 14          entry O          line   198 file /theoryfs2/ds/metcalf/miniconda2/envs/tf2gpu/share/psi4/basis/cc-pvdz.gbs

         ---------------------------------------------------------
                                   SCF
               by Justin Turney, Rob Parrish, Andy Simmonett
                          and Daniel G. A. Smith
                              RHF Reference
                        1 Threads,    500 MiB Core
         ---------------------------------------------------------

  ==> Geometry <==

    Molecular point group: c1
    Full point group: C1

    Geometry (in Angstrom), charge = 0, multiplicity = 1:

       Center              X                  Y                   Z               Mass
    ------------   -----------------  -----------------  -----------------  -----------------
         C           -1.573338830088    -0.832881472347    -0.284879735804    12.000000000000
         C           -3.050338830088    -1.059881472347    -0.435879735804    12.000000000000
         C           -0.932338830088    -2.095881472347    -0.841879735804    12.000000000000
         H           -1.325338830088    -0.727881472347     0.772120264196     1.007825032230
         H           -1.261338830088     0.053118527653    -0.838879735804     1.007825032230
         H           -3.590338830088    -0.529881472347     0.349120264196     1.007825032230
         H           -3.376338830088    -0.736881472347    -1.425879735804     1.007825032230
         H            0.081661169912    -2.237881472347    -0.463879735804     1.007825032230
         H           -0.925338830088    -2.047881472347    -1.931879735804     1.007825032230
         H           -3.159788830088    -2.151409472347    -0.354722735804     1.007825032230
         H           -1.623218830088    -2.886899472347    -0.514809735804     1.007825032230
         C            1.370661169912     0.910118527653     0.357120264196    12.000000000000
         C            1.133661169912     2.112118527653     1.262120264196    12.000000000000
         O            2.742661169912     0.899118527653    -0.015879735804    15.994914619570
         H            1.108661169912    -0.013881472347     0.875120264196     1.007825032230
         H            0.763661169912     1.012118527653    -0.543879735804     1.007825032230
         H            1.506661169912     2.990118527653     0.730120264196     1.007825032230
         H            2.871661169912     0.240118527653    -0.713879735804     1.007825032230
         H            1.680021169912     2.007508527653     2.211094264196     1.007825032230
         H            0.057351169912     2.266798527653     1.428316264196     1.007825032230

  Running in c1 symmetry.

  Rotational constants: A =      0.16749  B =      0.03244  C =      0.02810 [cm^-1]
  Rotational constants: A =   5021.07882  B =    972.52931  C =    842.38377 [MHz]
  Nuclear repulsion =  242.629099531340700

  Charge       = 0
  Multiplicity = 1
  Electrons    = 52
  Nalpha       = 26
  Nbeta        = 26

  ==> Algorithm <==

  SCF Algorithm Type is PK.
  DIIS enabled.
  MOM disabled.
  Fractional occupation disabled.
  Guess Type is SAD.
  Energy threshold   = 1.00e-06
  Density threshold  = 1.00e-10
  Integral threshold = 0.00e+00

  ==> Primary Basis <==

  Basis Set: CC-PVDZ
    Blend: CC-PVDZ
    Number of shells: 78
    Number of basis function: 154
    Number of Cartesian functions: 160
    Spherical Harmonics?: true
    Max angular momentum: 2

  ==> Pre-Iterations <==

   -------------------------------------------------------
    Irrep   Nso     Nmo     Nalpha   Nbeta   Ndocc  Nsocc
   -------------------------------------------------------
     A        154     154       0       0       0       0
   -------------------------------------------------------
    Total     154     154      26      26      26       0
   -------------------------------------------------------

  ==> Integral Setup <==

  Using integral reordering PK algorithm.
  Sizing the integral batches needed.
  Building batch lookup table.
   Calculation information:
      Number of atoms:                  20
      Number of AO shells:              78
      Number of primitives:            202
      Number of atomic orbitals:       160
      Number of basis functions:       154

      Integral cutoff                 1.00e-12
      Number of threads:                 1

	Batch   1 pq = [       0,    9405] index = [             0,44231715] size =     44231715
	Batch   2 pq = [    9405,   11935] index = [      44231715,71228080] size =     26996365
  Task number: 7
  Buffer size: 11059200
  Buffer per thread: 2
  We computed 3992905 shell quartets total.
  Whereas there are 4747821 unique shell quartets.

  ==> DiskJK: Disk-Based J/K Matrices <==

    J tasked:                  Yes
    K tasked:                  Yes
    wK tasked:                  No
    Memory [MiB]:              375
    Schwarz Cutoff:          1E-12

    OpenMP threads:              1

  Minimum eigenvalue in the overlap matrix is 4.6167407057E-03.
  Using Symmetric Orthogonalization.

  SCF Guess: Superposition of Atomic Densities via on-the-fly atomic UHF.

  ==> Iterations <==

                        Total Energy        Delta E     RMS |[F,P]|

   @RHF iter SAD:  -271.25350160472794   -2.71254e+02   0.00000e+00
   @RHF iter   1:  -272.12299756538096   -8.69496e-01   3.89301e-03 DIIS
   @RHF iter   2:  -272.30273692034655   -1.79739e-01   1.84440e-03 DIIS
   @RHF iter   3:  -272.33940534340155   -3.66684e-02   3.51238e-04 DIIS
   @RHF iter   4:  -272.34189152427712   -2.48618e-03   1.05049e-04 DIIS
   @RHF iter   5:  -272.34203205216789   -1.40528e-04   2.20848e-05 DIIS
   @RHF iter   6:  -272.34204104149489   -8.98933e-06   4.58071e-06 DIIS
   @RHF iter   7:  -272.34204149392900   -4.52434e-07   1.20967e-06 DIIS
   @RHF iter   8:  -272.34204152288078   -2.89518e-08   3.35451e-07 DIIS
   @RHF iter   9:  -272.34204152577036   -2.88958e-09   7.76948e-08 DIIS
   @RHF iter  10:  -272.34204152596476   -1.94404e-10   1.99994e-08 DIIS
   @RHF iter  11:  -272.34204152597823   -1.34719e-11   5.80046e-09 DIIS
   @RHF iter  12:  -272.34204152597692    1.30740e-12   1.62852e-09 DIIS
   @RHF iter  13:  -272.34204152597738   -4.54747e-13   3.55380e-10 DIIS
   @RHF iter  14:  -272.34204152597817   -7.95808e-13   8.25400e-11 DIIS
  Energy and wave function converged.

  ==> Post-Iterations <==

    Orbital Energies [Eh]
    ---------------------

    Doubly Occupied:

       1A    -20.545231     2A    -11.272789     3A    -11.220032
       4A    -11.219262     5A    -11.219065     6A    -11.215560
       7A     -1.346830     8A     -1.074361     9A     -1.006131
      10A     -0.920647    11A     -0.830098    12A     -0.802205
      13A     -0.687943    14A     -0.645952    15A     -0.639898
      16A     -0.618923    17A     -0.560978    18A     -0.548974
      19A     -0.532020    20A     -0.518198    21A     -0.517302
      22A     -0.490319    23A     -0.475322    24A     -0.471181
      25A     -0.466258    26A     -0.433787

    Virtual:

      27A      0.165187    28A      0.196356    29A      0.198450
      30A      0.208076    31A      0.231102    32A      0.233924
      33A      0.249826    34A      0.268562    35A      0.270657
      36A      0.285898    37A      0.292079    38A      0.315646
      39A      0.328208    40A      0.350540    41A      0.382716
      42A      0.390465    43A      0.405631    44A      0.439859
      45A      0.558583    46A      0.578559    47A      0.610967
      48A      0.617544    49A      0.634327    50A      0.653174
      51A      0.663819    52A      0.694292    53A      0.753146
      54A      0.777188    55A      0.792456    56A      0.800629
      57A      0.820394    58A      0.845839    59A      0.866779
      60A      0.881823    61A      0.887898    62A      0.890631
      63A      0.895692    64A      0.899961    65A      0.906407
      66A      0.912554    67A      0.913494    68A      0.929631
      69A      0.937351    70A      0.955585    71A      0.959011
      72A      0.972016    73A      1.001185    74A      1.087029
      75A      1.115057    76A      1.154793    77A      1.159814
      78A      1.168194    79A      1.217906    80A      1.263876
      81A      1.329913    82A      1.399615    83A      1.457036
      84A      1.463703    85A      1.474768    86A      1.491643
      87A      1.543446    88A      1.568879    89A      1.612565
      90A      1.618516    91A      1.628059    92A      1.642779
      93A      1.684420    94A      1.721218    95A      1.734527
      96A      1.798497    97A      1.816885    98A      1.853033
      99A      1.864259   100A      1.875718   101A      1.884858
     102A      1.905075   103A      1.913719   104A      1.919387
     105A      1.925864   106A      1.930964   107A      1.955687
     108A      1.971641   109A      1.974017   110A      1.984717
     111A      2.004058   112A      2.009629   113A      2.023813
     114A      2.046462   115A      2.066993   116A      2.103003
     117A      2.131656   118A      2.136763   119A      2.194958
     120A      2.214708   121A      2.228206   122A      2.257694
     123A      2.293806   124A      2.299304   125A      2.336709
     126A      2.359759   127A      2.433041   128A      2.456553
     129A      2.487318   130A      2.511002   131A      2.516021
     132A      2.548247   133A      2.552491   134A      2.596384
     135A      2.632886   136A      2.691284   137A      2.750024
     138A      2.756557   139A      2.772776   140A      2.777891
     141A      2.792739   142A      2.803219   143A      2.840457
     144A      2.860282   145A      2.904140   146A      2.923351
     147A      2.940575   148A      2.950321   149A      3.052532
     150A      3.325793   151A      3.414572   152A      3.459223
     153A      3.634354   154A      4.114240

    Final Occupation by Irrep:
              A
    DOCC [    26 ]

  @RHF Final Energy:  -272.34204152597817

   => Energetics <=

    Nuclear Repulsion Energy =            242.6290995313406995
    One-Electron Energy =                -849.3837443883868445
    Two-Electron Energy =                 334.4126033310679986
    Total Energy =                       -272.3420415259781748

Computation Completed

Properties will be evaluated at   0.000000,   0.000000,   0.000000 [a0]

Properties computed using the SCF density matrix

  Nuclear Dipole Moment: [e a0]
     X:    -6.7291      Y:    -2.5857      Z:    -0.3956

  Electronic Dipole Moment: [e a0]
     X:     6.2418      Y:     2.2306      Z:     0.1143

  Dipole Moment: [e a0]
     X:    -0.4873      Y:    -0.3551      Z:    -0.2813     Total:     0.6653

  Dipole Moment: [D]
     X:    -1.2386      Y:    -0.9026      Z:    -0.7150     Total:     1.6911

*** tstop() called on ds3 at Tue Apr 28 16:40:07 2020
Module time:
	user time   =      22.43 seconds =       0.37 minutes
	system time =       9.15 seconds =       0.15 minutes
	total time  =         31 seconds =       0.52 minutes
Total time:
	user time   =      22.43 seconds =       0.37 minutes
	system time =       9.15 seconds =       0.15 minutes
	total time  =         31 seconds =       0.52 minutes
                                     G D M A

                                 by Anthony Stone

                           version 2.2.06, 22 June 2011

               Distributed Multipoles from Gaussian wavefunctions

Starting at 16:40:7 on 28 Apr 2020

Using SCF density matrix from file ./SSI/SSI-135PRO-140SER-1-dimer.test.16872.fchk

                         Distributed Multipole Analysis

Standard DMA

Positions and radii in angstrom
Multipole moments in atomic units, ea_0^k for rank k

C          x = -1.573339  y = -0.832881  z = -0.284880 angstrom
           Maximum rank =  0   Radius =  0.650 angstrom
                   Q00  =  -0.114550

C          x = -3.050339  y = -1.059881  z = -0.435880 angstrom
           Maximum rank =  0   Radius =  0.650 angstrom
                   Q00  =  -0.219663

C          x = -0.932339  y = -2.095881  z = -0.841880 angstrom
           Maximum rank =  0   Radius =  0.650 angstrom
                   Q00  =  -0.208548

H          x = -1.325339  y = -0.727881  z =  0.772120 angstrom
           Maximum rank =  0   Radius =  0.325 angstrom
                   Q00  =   0.051468

H          x = -1.261339  y =  0.053119  z = -0.838880 angstrom
           Maximum rank =  0   Radius =  0.325 angstrom
                   Q00  =   0.048500

H          x = -3.590339  y = -0.529881  z =  0.349120 angstrom
           Maximum rank =  0   Radius =  0.325 angstrom
                   Q00  =   0.087200

H          x = -3.376339  y = -0.736881  z = -1.425880 angstrom
           Maximum rank =  0   Radius =  0.325 angstrom
                   Q00  =   0.078201

H          x =  0.081661  y = -2.237881  z = -0.463880 angstrom
           Maximum rank =  0   Radius =  0.325 angstrom
                   Q00  =   0.079714

H          x = -0.925339  y = -2.047881  z = -1.931880 angstrom
           Maximum rank =  0   Radius =  0.325 angstrom
                   Q00  =   0.077352

H          x = -3.159789  y = -2.151409  z = -0.354723 angstrom
           Maximum rank =  0   Radius =  0.325 angstrom
                   Q00  =   0.060509

H          x = -1.623219  y = -2.886899  z = -0.514810 angstrom
           Maximum rank =  0   Radius =  0.325 angstrom
                   Q00  =   0.056029

C          x =  1.370661  y =  0.910119  z =  0.357120 angstrom
           Maximum rank =  0   Radius =  0.650 angstrom
                   Q00  =   0.081473

C          x =  1.133661  y =  2.112119  z =  1.262120 angstrom
           Maximum rank =  0   Radius =  0.650 angstrom
                   Q00  =  -0.235329

O          x =  2.742661  y =  0.899119  z = -0.015880 angstrom
           Maximum rank =  0   Radius =  0.650 angstrom
                   Q00  =  -0.582860

H          x =  1.108661  y = -0.013881  z =  0.875120 angstrom
           Maximum rank =  0   Radius =  0.325 angstrom
                   Q00  =   0.046319

H          x =  0.763661  y =  1.012119  z = -0.543880 angstrom
           Maximum rank =  0   Radius =  0.325 angstrom
                   Q00  =   0.043403

H          x =  1.506661  y =  2.990119  z =  0.730120 angstrom
           Maximum rank =  0   Radius =  0.325 angstrom
                   Q00  =   0.089265

H          x =  2.871661  y =  0.240119  z = -0.713880 angstrom
           Maximum rank =  0   Radius =  0.325 angstrom
                   Q00  =   0.387494

H          x =  1.680021  y =  2.007509  z =  2.211094 angstrom
           Maximum rank =  0   Radius =  0.325 angstrom
                   Q00  =   0.091523

H          x =  0.057351  y =  2.266799  z =  1.428316 angstrom
           Maximum rank =  0   Radius =  0.325 angstrom
                   Q00  =   0.082502

Total multipoles referred to origin at
           x =   0.000000,  y =    0.000000,  z =    0.000000 angstrom
                   Q00  =  -0.000000

Finished at 16:40:7 on 28 Apr 2020

  DMA results are available in the Python driver through the
	  variable('DMA DISTRIBUTED MULTIPOLES')
  and
	  variable('DMA TOTAL MULTIPOLES')
  commands.

    Psi4 stopped on: Tuesday, 28 April 2020 04:40PM
    Psi4 wall time for execution: 0:00:31.08

*** Psi4 exiting successfully. Buy a developer a beer!
