                               Psi4 1.3.2 release

  ==> Input File <==

--------------------------------------------------------------------------
import numpy as np
set {scf_type pk
basis cc-pvdz
d_convergence 10
gdma_switch   0
gdma_limit    0
gdma_origin   [ 0.0,  0.0,  0.0 ]
}
molecule test {
    units Angstrom
    0 1
    --
    0 1
    C               -0.350253064522528    -0.086563855001449     2.178539862535680
    C               -1.471253064522528    -0.483563855001449     3.146539862535680
    C               -0.749253064522528    -0.018563855001449     0.720539862535680
    C               -1.219253064522527     1.170436144998551     0.164539862535680
    C               -0.634253064522528    -1.141563855001449    -0.097460137464320
    C               -1.580253064522528     1.234436144998551    -1.178460137464320
    C               -0.990253064522528    -1.085563855001449    -1.441460137464321
    C               -1.466253064522528     0.103436144998551    -1.980460137464320
    O               -1.819253064522528     0.157436144998551    -3.294460137464320
    H                0.056746935477472     0.878436144998551     2.480539862535680
    H                0.456746935477472    -0.807563855001449     2.286539862535680
    H               -1.032253064522527    -0.650563855001449     4.130539862535679
    H               -1.305253064522528     2.054436144998551     0.781539862535680
    H               -0.269253064522528    -2.068563855001449     0.321539862535680
    H               -1.950253064522528     2.160436144998551    -1.595460137464320
    H               -0.894253064522528    -1.951563855001449    -2.076460137464320
    H               -2.129253064522528     1.034436144998551    -3.542460137464321
    H               -1.965684064522528    -1.408163855001449     2.813895862535680
    H               -2.205787064522528     0.327186144998551     3.261219862535680
    C                2.912746935477472     0.291436144998551     1.052539862535679
    C                2.939746935477472    -1.161563855001449     0.687539862535680
    C                3.792746935477473     0.993436144998551     0.045539862535680
    H                3.230746935477473     0.479436144998551     2.071539862535680
    H                1.898746935477472     0.647436144998551     0.907539862535680
    H                3.778746935477472    -1.658563855001449     1.177539862535680
    H                2.000746935477472    -1.628563855001449     0.973539862535680
    H                4.790746935477472     1.114436144998551     0.471539862535680
    H                3.382746935477472     1.971436144998551    -0.206460137464320
    H                3.106414935477472    -1.140543855001449    -0.399557137464320
    H                3.822204935477473     0.341056144998551    -0.839632137464321

}
e, wfn = energy('scf', return_wfn=True)
gdma(wfn)
dmavals = variable('DMA DISTRIBUTED MULTIPOLES')
charges = np.array(dmavals)
print(charges)
np.save('SSI-197TYR-252PRO-1-dimer.npy', np.array(charges))--------------------------------------------------------------------------

*** tstart() called on ds3
*** at Sun Apr 26 22:44:36 2020

   => Loading Basis Set <=

    Name: CC-PVDZ
    Role: ORBITAL
    Keyword: BASIS
    atoms 1-8, 20-22   entry C          line   138 file /theoryfs2/ds/metcalf/miniconda2/envs/tf2gpu/share/psi4/basis/cc-pvdz.gbs
    atoms 9            entry O          line   198 file /theoryfs2/ds/metcalf/miniconda2/envs/tf2gpu/share/psi4/basis/cc-pvdz.gbs
    atoms 10-19, 23-30 entry H          line    22 file /theoryfs2/ds/metcalf/miniconda2/envs/tf2gpu/share/psi4/basis/cc-pvdz.gbs

         ---------------------------------------------------------
                                   SCF
               by Justin Turney, Rob Parrish, Andy Simmonett
                          and Daniel G. A. Smith
                              RHF Reference
                        1 Threads,    500 MiB Core
         ---------------------------------------------------------

  ==> Geometry <==

    Molecular point group: c1
    Full point group: C1

    Geometry (in Angstrom), charge = 0, multiplicity = 1:

       Center              X                  Y                   Z               Mass
    ------------   -----------------  -----------------  -----------------  -----------------
         C           -0.350253064523    -0.086563855001     2.178539862536    12.000000000000
         C           -1.471253064523    -0.483563855001     3.146539862536    12.000000000000
         C           -0.749253064523    -0.018563855001     0.720539862536    12.000000000000
         C           -1.219253064523     1.170436144999     0.164539862536    12.000000000000
         C           -0.634253064523    -1.141563855001    -0.097460137464    12.000000000000
         C           -1.580253064523     1.234436144999    -1.178460137464    12.000000000000
         C           -0.990253064523    -1.085563855001    -1.441460137464    12.000000000000
         C           -1.466253064523     0.103436144999    -1.980460137464    12.000000000000
         O           -1.819253064523     0.157436144999    -3.294460137464    15.994914619570
         H            0.056746935477     0.878436144999     2.480539862536     1.007825032230
         H            0.456746935477    -0.807563855001     2.286539862536     1.007825032230
         H           -1.032253064523    -0.650563855001     4.130539862536     1.007825032230
         H           -1.305253064523     2.054436144999     0.781539862536     1.007825032230
         H           -0.269253064523    -2.068563855001     0.321539862536     1.007825032230
         H           -1.950253064523     2.160436144999    -1.595460137464     1.007825032230
         H           -0.894253064523    -1.951563855001    -2.076460137464     1.007825032230
         H           -2.129253064523     1.034436144999    -3.542460137464     1.007825032230
         H           -1.965684064523    -1.408163855001     2.813895862536     1.007825032230
         H           -2.205787064523     0.327186144999     3.261219862536     1.007825032230
         C            2.912746935477     0.291436144999     1.052539862536    12.000000000000
         C            2.939746935477    -1.161563855001     0.687539862536    12.000000000000
         C            3.792746935477     0.993436144999     0.045539862536    12.000000000000
         H            3.230746935477     0.479436144999     2.071539862536     1.007825032230
         H            1.898746935477     0.647436144999     0.907539862536     1.007825032230
         H            3.778746935477    -1.658563855001     1.177539862536     1.007825032230
         H            2.000746935477    -1.628563855001     0.973539862536     1.007825032230
         H            4.790746935477     1.114436144999     0.471539862536     1.007825032230
         H            3.382746935477     1.971436144999    -0.206460137464     1.007825032230
         H            3.106414935477    -1.140543855001    -0.399557137464     1.007825032230
         H            3.822204935477     0.341056144999    -0.839632137464     1.007825032230

  Running in c1 symmetry.

  Rotational constants: A =      0.03037  B =      0.01848  C =      0.01390 [cm^-1]
  Rotational constants: A =    910.51115  B =    553.91518  C =    416.75691 [MHz]
  Nuclear repulsion =  689.090485346653281

  Charge       = 0
  Multiplicity = 1
  Electrons    = 92
  Nalpha       = 46
  Nbeta        = 46

  ==> Algorithm <==

  SCF Algorithm Type is PK.
  DIIS enabled.
  MOM disabled.
  Fractional occupation disabled.
  Guess Type is SAD.
  Energy threshold   = 1.00e-06
  Density threshold  = 1.00e-10
  Integral threshold = 0.00e+00

  ==> Primary Basis <==

  Basis Set: CC-PVDZ
    Blend: CC-PVDZ
    Number of shells: 126
    Number of basis function: 258
    Number of Cartesian functions: 270
    Spherical Harmonics?: true
    Max angular momentum: 2

  ==> Pre-Iterations <==

   -------------------------------------------------------
    Irrep   Nso     Nmo     Nalpha   Nbeta   Ndocc  Nsocc
   -------------------------------------------------------
     A        258     258       0       0       0       0
   -------------------------------------------------------
    Total     258     258      46      46      46       0
   -------------------------------------------------------

  ==> Integral Setup <==

  Using integral reordering PK algorithm.
  Sizing the integral batches needed.
  Building batch lookup table.
   Calculation information:
      Number of atoms:                  30
      Number of AO shells:             126
      Number of primitives:            354
      Number of atomic orbitals:       270
      Number of basis functions:       258

      Integral cutoff                 1.00e-12
      Number of threads:                 1

	Batch   1 pq = [       0,    9405] index = [             0,44231715] size =     44231715
	Batch   2 pq = [    9405,   13301] index = [      44231715,88464951] size =     44233236
	Batch   3 pq = [   13301,   16290] index = [      88464951,132690195] size =     44225244
	Batch   4 pq = [   16290,   18810] index = [     132690195,176917455] size =     44227260
	Batch   5 pq = [   18810,   21030] index = [     176917455,221140965] size =     44223510
	Batch   6 pq = [   21030,   23037] index = [     221140965,265363203] size =     44222238
	Batch   7 pq = [   23037,   24883] index = [     265363203,309594286] size =     44231083
	Batch   8 pq = [   24883,   26601] index = [     309594286,353819901] size =     44225615
	Batch   9 pq = [   26601,   28214] index = [     353819901,398029005] size =     44209104
	Batch  10 pq = [   28214,   29740] index = [     398029005,442248670] size =     44219665
	Batch  11 pq = [   29740,   31191] index = [     442248670,486454836] size =     44206166
	Batch  12 pq = [   31191,   32578] index = [     486454836,530679331] size =     44224495
	Batch  13 pq = [   32578,   33411] index = [     530679331,558164166] size =     27484835
  Task number: 51
  Buffer size: 11059200
  Buffer per thread: 2
  We computed 33149116 shell quartets total.
  Whereas there are 32012001 unique shell quartets.
     3.55 percent of shell quartets recomputed by reordering.

  ==> DiskJK: Disk-Based J/K Matrices <==

    J tasked:                  Yes
    K tasked:                  Yes
    wK tasked:                  No
    Memory [MiB]:              375
    Schwarz Cutoff:          1E-12

    OpenMP threads:              1

  Minimum eigenvalue in the overlap matrix is 3.1777234613E-04.
  Using Symmetric Orthogonalization.

  SCF Guess: Superposition of Atomic Densities via on-the-fly atomic UHF.

  ==> Iterations <==

                        Total Energy        Delta E     RMS |[F,P]|

   @RHF iter SAD:  -500.94491999744344   -5.00945e+02   0.00000e+00
   @RHF iter   1:  -501.58712585568486   -6.42206e-01   2.71036e-03 DIIS
   @RHF iter   2:  -501.85752009181840   -2.70394e-01   1.17183e-03 DIIS
   @RHF iter   3:  -501.90400839961211   -4.64883e-02   2.63735e-04 DIIS
   @RHF iter   4:  -501.90774146570783   -3.73307e-03   1.06080e-04 DIIS
   @RHF iter   5:  -501.90817604240300   -4.34577e-04   1.95982e-05 DIIS
   @RHF iter   6:  -501.90819864907883   -2.26067e-05   5.70279e-06 DIIS
   @RHF iter   7:  -501.90820061670217   -1.96762e-06   1.75280e-06 DIIS
   @RHF iter   8:  -501.90820084154836   -2.24846e-07   6.32089e-07 DIIS
   @RHF iter   9:  -501.90820087219311   -3.06447e-08   2.22134e-07 DIIS
   @RHF iter  10:  -501.90820087618005   -3.98694e-09   7.69512e-08 DIIS
   @RHF iter  11:  -501.90820087707721   -8.97160e-10   3.35923e-08 DIIS
   @RHF iter  12:  -501.90820087729122   -2.14015e-10   1.74312e-08 DIIS
   @RHF iter  13:  -501.90820087734528   -5.40581e-11   7.77049e-09 DIIS
   @RHF iter  14:  -501.90820087735443   -9.15179e-12   1.75350e-09 DIIS
   @RHF iter  15:  -501.90820087736176   -7.33280e-12   6.21295e-10 DIIS
   @RHF iter  16:  -501.90820087736245   -6.82121e-13   2.21284e-10 DIIS
   @RHF iter  17:  -501.90820087735739    5.05906e-12   9.95192e-11 DIIS
  Energy and wave function converged.

  ==> Post-Iterations <==

    Orbital Energies [Eh]
    ---------------------

    Doubly Occupied:

       1A    -20.584094     2A    -11.300059     3A    -11.240242
       4A    -11.239055     5A    -11.233918     6A    -11.231344
       7A    -11.230300     8A    -11.228190     9A    -11.222629
      10A    -11.206764    11A    -11.206476    12A    -11.203851
      13A     -1.401467    14A     -1.153327    15A     -1.066068
      16A     -1.056729    17A     -1.019273    18A     -0.977742
      19A     -0.913560    20A     -0.862460    21A     -0.844468
      22A     -0.794895    23A     -0.790331    24A     -0.733396
      25A     -0.671609    26A     -0.647369    27A     -0.633271
      28A     -0.617777    29A     -0.610227    30A     -0.595047
      31A     -0.587605    32A     -0.585182    33A     -0.568891
      34A     -0.548761    35A     -0.539037    36A     -0.520571
      37A     -0.512701    38A     -0.497565    39A     -0.479905
      40A     -0.477834    41A     -0.474003    42A     -0.465321
      43A     -0.456672    44A     -0.453948    45A     -0.339723
      46A     -0.302643

    Virtual:

      47A      0.128927    48A      0.151614    49A      0.178751
      50A      0.181336    51A      0.198188    52A      0.207526
      53A      0.214683    54A      0.231250    55A      0.234616
      56A      0.243094    57A      0.250069    58A      0.254521
      59A      0.272831    60A      0.277638    61A      0.292978
      62A      0.295122    63A      0.306946    64A      0.317893
      65A      0.338158    66A      0.351899    67A      0.378946
      68A      0.382470    69A      0.397711    70A      0.419627
      71A      0.428852    72A      0.452593    73A      0.473985
      74A      0.485505    75A      0.498451    76A      0.511726
      77A      0.569835    78A      0.585447    79A      0.603765
      80A      0.606780    81A      0.613510    82A      0.633448
      83A      0.654008    84A      0.665065    85A      0.672383
      86A      0.685436    87A      0.697629    88A      0.709089
      89A      0.721547    90A      0.734229    91A      0.735980
      92A      0.744107    93A      0.753799    94A      0.780813
      95A      0.787080    96A      0.797163    97A      0.804500
      98A      0.812470    99A      0.838405   100A      0.843061
     101A      0.855932   102A      0.864241   103A      0.873924
     104A      0.876290   105A      0.884378   106A      0.889711
     107A      0.891984   108A      0.897718   109A      0.905401
     110A      0.910060   111A      0.913889   112A      0.925990
     113A      0.927441   114A      0.943322   115A      0.948525
     116A      0.956173   117A      0.965824   118A      0.967850
     119A      0.979392   120A      0.997492   121A      1.014059
     122A      1.019806   123A      1.027159   124A      1.044899
     125A      1.053610   126A      1.087948   127A      1.114611
     128A      1.127925   129A      1.134565   130A      1.149012
     131A      1.156996   132A      1.170910   133A      1.194603
     134A      1.232988   135A      1.239528   136A      1.263270
     137A      1.275771   138A      1.286941   139A      1.288443
     140A      1.304427   141A      1.311865   142A      1.349704
     143A      1.361667   144A      1.377049   145A      1.421260
     146A      1.437875   147A      1.447585   148A      1.479449
     149A      1.492847   150A      1.510320   151A      1.514512
     152A      1.552067   153A      1.606030   154A      1.616247
     155A      1.628195   156A      1.630901   157A      1.639601
     158A      1.649243   159A      1.682563   160A      1.692043
     161A      1.708661   162A      1.722328   163A      1.738590
     164A      1.758292   165A      1.784758   166A      1.800428
     167A      1.813969   168A      1.852463   169A      1.860806
     170A      1.869362   171A      1.878692   172A      1.885322
     173A      1.888367   174A      1.895826   175A      1.905055
     176A      1.915216   177A      1.916488   178A      1.924049
     179A      1.936323   180A      1.939686   181A      1.949955
     182A      1.952088   183A      1.961921   184A      1.971236
     185A      1.981846   186A      1.984986   187A      1.987513
     188A      2.006686   189A      2.022941   190A      2.031013
     191A      2.038556   192A      2.053402   193A      2.059349
     194A      2.069187   195A      2.078506   196A      2.081030
     197A      2.095808   198A      2.108021   199A      2.124706
     200A      2.146320   201A      2.153910   202A      2.160496
     203A      2.172005   204A      2.197708   205A      2.228345
     206A      2.253519   207A      2.260609   208A      2.269110
     209A      2.278195   210A      2.317341   211A      2.327878
     212A      2.331290   213A      2.366564   214A      2.373796
     215A      2.394872   216A      2.448392   217A      2.451765
     218A      2.463703   219A      2.466439   220A      2.477596
     221A      2.489281   222A      2.500336   223A      2.520260
     224A      2.531525   225A      2.541391   226A      2.569077
     227A      2.578222   228A      2.628914   229A      2.647324
     230A      2.663511   231A      2.721611   232A      2.762621
     233A      2.766880   234A      2.778609   235A      2.794068
     236A      2.804657   237A      2.809733   238A      2.816520
     239A      2.853621   240A      2.870071   241A      2.877353
     242A      2.888888   243A      2.917200   244A      2.932888
     245A      2.971166   246A      2.984281   247A      3.006939
     248A      3.020196   249A      3.092707   250A      3.096556
     251A      3.172712   252A      3.251538   253A      3.291296
     254A      3.345868   255A      3.575917   256A      3.678907
     257A      3.973648   258A      4.193971

    Final Occupation by Irrep:
              A
    DOCC [    46 ]

  @RHF Final Energy:  -501.90820087735739

   => Energetics <=

    Nuclear Repulsion Energy =            689.0904853466532813
    One-Electron Energy =               -2047.3447730459447484
    Two-Electron Energy =                 856.3460868219342501
    Total Energy =                       -501.9082008773573307

Computation Completed

Properties will be evaluated at   0.000000,   0.000000,   0.000000 [a0]

Properties computed using the SCF density matrix

  Nuclear Dipole Moment: [e a0]
     X:    13.8401      Y:    -0.2855      Z:    12.1877

  Electronic Dipole Moment: [e a0]
     X:   -13.9972      Y:     0.8249      Z:   -11.9582

  Dipole Moment: [e a0]
     X:    -0.1570      Y:     0.5394      Z:     0.2295     Total:     0.6068

  Dipole Moment: [D]
     X:    -0.3991      Y:     1.3709      Z:     0.5833     Total:     1.5424

*** tstop() called on ds3 at Sun Apr 26 22:57:05 2020
Module time:
	user time   =     233.65 seconds =       3.89 minutes
	system time =      74.51 seconds =       1.24 minutes
	total time  =        749 seconds =      12.48 minutes
Total time:
	user time   =     233.65 seconds =       3.89 minutes
	system time =      74.51 seconds =       1.24 minutes
	total time  =        749 seconds =      12.48 minutes
                                     G D M A

                                 by Anthony Stone

                           version 2.2.06, 22 June 2011

               Distributed Multipoles from Gaussian wavefunctions

Starting at 22:57:6 on 26 Apr 2020

Using SCF density matrix from file ./SSI/SSI-197TYR-252PRO-1-dimer.test.18735.fchk

                         Distributed Multipole Analysis

Standard DMA

Positions and radii in angstrom
Multipole moments in atomic units, ea_0^k for rank k

C          x = -0.350253  y = -0.086564  z =  2.178540 angstrom
           Maximum rank =  0   Radius =  0.650 angstrom
                   Q00  =  -0.022625

C          x = -1.471253  y = -0.483564  z =  3.146540 angstrom
           Maximum rank =  0   Radius =  0.650 angstrom
                   Q00  =  -0.232524

C          x = -0.749253  y = -0.018564  z =  0.720540 angstrom
           Maximum rank =  0   Radius =  0.650 angstrom
                   Q00  =  -0.162444

C          x = -1.219253  y =  1.170436  z =  0.164540 angstrom
           Maximum rank =  0   Radius =  0.650 angstrom
                   Q00  =  -0.012808

C          x = -0.634253  y = -1.141564  z = -0.097460 angstrom
           Maximum rank =  0   Radius =  0.650 angstrom
                   Q00  =   0.030458

C          x = -1.580253  y =  1.234436  z = -1.178460 angstrom
           Maximum rank =  0   Radius =  0.650 angstrom
                   Q00  =  -0.201080

C          x = -0.990253  y = -1.085564  z = -1.441460 angstrom
           Maximum rank =  0   Radius =  0.650 angstrom
                   Q00  =  -0.113153

C          x = -1.466253  y =  0.103436  z = -1.980460 angstrom
           Maximum rank =  0   Radius =  0.650 angstrom
                   Q00  =   0.329550

O          x = -1.819253  y =  0.157436  z = -3.294460 angstrom
           Maximum rank =  0   Radius =  0.650 angstrom
                   Q00  =  -0.674613

H          x =  0.056747  y =  0.878436  z =  2.480540 angstrom
           Maximum rank =  0   Radius =  0.325 angstrom
                   Q00  =   0.066571

H          x =  0.456747  y = -0.807564  z =  2.286540 angstrom
           Maximum rank =  0   Radius =  0.325 angstrom
                   Q00  =   0.060104

H          x = -1.032253  y = -0.650564  z =  4.130540 angstrom
           Maximum rank =  0   Radius =  0.325 angstrom
                   Q00  =   0.081346

H          x = -1.305253  y =  2.054436  z =  0.781540 angstrom
           Maximum rank =  0   Radius =  0.325 angstrom
                   Q00  =   0.067933

H          x = -0.269253  y = -2.068564  z =  0.321540 angstrom
           Maximum rank =  0   Radius =  0.325 angstrom
                   Q00  =   0.064140

H          x = -1.950253  y =  2.160436  z = -1.595460 angstrom
           Maximum rank =  0   Radius =  0.325 angstrom
                   Q00  =   0.071419

H          x = -0.894253  y = -1.951564  z = -2.076460 angstrom
           Maximum rank =  0   Radius =  0.325 angstrom
                   Q00  =   0.081171

H          x = -2.129253  y =  1.034436  z = -3.542460 angstrom
           Maximum rank =  0   Radius =  0.325 angstrom
                   Q00  =   0.405998

H          x = -1.965684  y = -1.408164  z =  2.813896 angstrom
           Maximum rank =  0   Radius =  0.325 angstrom
                   Q00  =   0.085704

H          x = -2.205787  y =  0.327186  z =  3.261220 angstrom
           Maximum rank =  0   Radius =  0.325 angstrom
                   Q00  =   0.081066

C          x =  2.912747  y =  0.291436  z =  1.052540 angstrom
           Maximum rank =  0   Radius =  0.650 angstrom
                   Q00  =  -0.111557

C          x =  2.939747  y = -1.161564  z =  0.687540 angstrom
           Maximum rank =  0   Radius =  0.650 angstrom
                   Q00  =  -0.220409

C          x =  3.792747  y =  0.993436  z =  0.045540 angstrom
           Maximum rank =  0   Radius =  0.650 angstrom
                   Q00  =  -0.220179

H          x =  3.230747  y =  0.479436  z =  2.071540 angstrom
           Maximum rank =  0   Radius =  0.325 angstrom
                   Q00  =   0.047395

H          x =  1.898747  y =  0.647436  z =  0.907540 angstrom
           Maximum rank =  0   Radius =  0.325 angstrom
                   Q00  =   0.061413

H          x =  3.778747  y = -1.658564  z =  1.177540 angstrom
           Maximum rank =  0   Radius =  0.325 angstrom
                   Q00  =   0.071741

H          x =  2.000747  y = -1.628564  z =  0.973540 angstrom
           Maximum rank =  0   Radius =  0.325 angstrom
                   Q00  =   0.080370

H          x =  4.790747  y =  1.114436  z =  0.471540 angstrom
           Maximum rank =  0   Radius =  0.325 angstrom
                   Q00  =   0.078240

H          x =  3.382747  y =  1.971436  z = -0.206460 angstrom
           Maximum rank =  0   Radius =  0.325 angstrom
                   Q00  =   0.085465

H          x =  3.106415  y = -1.140544  z = -0.399557 angstrom
           Maximum rank =  0   Radius =  0.325 angstrom
                   Q00  =   0.065475

H          x =  3.822205  y =  0.341056  z = -0.839632 angstrom
           Maximum rank =  0   Radius =  0.325 angstrom
                   Q00  =   0.055835

Total multipoles referred to origin at
           x =   0.000000,  y =    0.000000,  z =    0.000000 angstrom
                   Q00  =  -0.000000

Finished at 22:57:6 on 26 Apr 2020

  DMA results are available in the Python driver through the
	  variable('DMA DISTRIBUTED MULTIPOLES')
  and
	  variable('DMA TOTAL MULTIPOLES')
  commands.

    Psi4 stopped on: Sunday, 26 April 2020 10:57PM
    Psi4 wall time for execution: 0:12:29.17

*** Psi4 exiting successfully. Buy a developer a beer!
