                               Psi4 1.3.2 release

  ==> Input File <==

--------------------------------------------------------------------------
import numpy as np
set {scf_type pk
basis cc-pvdz
d_convergence 10
gdma_switch   0
gdma_limit    0
gdma_origin   [ 0.0,  0.0,  0.0 ]
}
molecule test {
    units Angstrom
    0 1
    --
    0 1
    C               -1.375557463779757    -0.294431330342626     1.891027322671754
    O               -1.352557463779757     0.396568669657374     0.643027322671754
    H               -0.454557463779757     0.348568669657374     0.277027322671754
    H               -0.803557463779757     0.285568669657374     2.617027322671754
    H               -2.411637463779757    -0.411921330342626     2.241367322671754
    H               -0.898707463779757    -1.278201330342627     1.769307322671754
    C                1.288442536220243    -0.407431330342626    -1.879972677328246
    O                1.333442536220243     0.305568669657374    -0.658972677328246
    H                2.122442536220243     0.029568669657374    -0.172972677328246
    H                0.455442536220243    -0.019431330342626    -2.467972677328246
    H                1.112442536220243    -1.467431330342627    -1.690972677328246
    H                2.218762536220243    -0.273191330342626    -2.451372677328246

}
e, wfn = energy('scf', return_wfn=True)
gdma(wfn)
dmavals = variable('DMA DISTRIBUTED MULTIPOLES')
charges = np.array(dmavals)
print(charges)
np.save('SSI-171THR-180SER-1-dimer.npy', np.array(charges))--------------------------------------------------------------------------

*** tstart() called on ds3
*** at Mon Apr 27 22:08:12 2020

   => Loading Basis Set <=

    Name: CC-PVDZ
    Role: ORBITAL
    Keyword: BASIS
    atoms 1, 7      entry C          line   138 file /theoryfs2/ds/metcalf/miniconda2/envs/tf2gpu/share/psi4/basis/cc-pvdz.gbs
    atoms 2, 8      entry O          line   198 file /theoryfs2/ds/metcalf/miniconda2/envs/tf2gpu/share/psi4/basis/cc-pvdz.gbs
    atoms 3-6, 9-12 entry H          line    22 file /theoryfs2/ds/metcalf/miniconda2/envs/tf2gpu/share/psi4/basis/cc-pvdz.gbs

         ---------------------------------------------------------
                                   SCF
               by Justin Turney, Rob Parrish, Andy Simmonett
                          and Daniel G. A. Smith
                              RHF Reference
                        1 Threads,    500 MiB Core
         ---------------------------------------------------------

  ==> Geometry <==

    Molecular point group: c1
    Full point group: C1

    Geometry (in Angstrom), charge = 0, multiplicity = 1:

       Center              X                  Y                   Z               Mass
    ------------   -----------------  -----------------  -----------------  -----------------
         C           -1.375557463780    -0.294431330343     1.891027322672    12.000000000000
         O           -1.352557463780     0.396568669657     0.643027322672    15.994914619570
         H           -0.454557463780     0.348568669657     0.277027322672     1.007825032230
         H           -0.803557463780     0.285568669657     2.617027322672     1.007825032230
         H           -2.411637463780    -0.411921330343     2.241367322672     1.007825032230
         H           -0.898707463780    -1.278201330343     1.769307322672     1.007825032230
         C            1.288442536220    -0.407431330343    -1.879972677328    12.000000000000
         O            1.333442536220     0.305568669657    -0.658972677328    15.994914619570
         H            2.122442536220     0.029568669657    -0.172972677328     1.007825032230
         H            0.455442536220    -0.019431330343    -2.467972677328     1.007825032230
         H            1.112442536220    -1.467431330343    -1.690972677328     1.007825032230
         H            2.218762536220    -0.273191330343    -2.451372677328     1.007825032230

  Running in c1 symmetry.

  Rotational constants: A =      0.58919  B =      0.06970  C =      0.06793 [cm^-1]
  Rotational constants: A =  17663.44199  B =   2089.52055  C =   2036.50141 [MHz]
  Nuclear repulsion =  126.779950042427089

  Charge       = 0
  Multiplicity = 1
  Electrons    = 36
  Nalpha       = 18
  Nbeta        = 18

  ==> Algorithm <==

  SCF Algorithm Type is PK.
  DIIS enabled.
  MOM disabled.
  Fractional occupation disabled.
  Guess Type is SAD.
  Energy threshold   = 1.00e-06
  Density threshold  = 1.00e-10
  Integral threshold = 0.00e+00

  ==> Primary Basis <==

  Basis Set: CC-PVDZ
    Blend: CC-PVDZ
    Number of shells: 48
    Number of basis function: 96
    Number of Cartesian functions: 100
    Spherical Harmonics?: true
    Max angular momentum: 2

  ==> Pre-Iterations <==

   -------------------------------------------------------
    Irrep   Nso     Nmo     Nalpha   Nbeta   Ndocc  Nsocc
   -------------------------------------------------------
     A         96      96       0       0       0       0
   -------------------------------------------------------
    Total      96      96      18      18      18       0
   -------------------------------------------------------

  ==> Integral Setup <==

  Using in-core PK algorithm.
   Calculation information:
      Number of atoms:                  12
      Number of AO shells:              48
      Number of primitives:            128
      Number of atomic orbitals:       100
      Number of basis functions:        96

      Integral cutoff                 1.00e-12
      Number of threads:                 1

  Performing in-core PK
  Using 21682992 doubles for integral storage.
  We computed 591520 shell quartets total.
  Whereas there are 692076 unique shell quartets.

  ==> DiskJK: Disk-Based J/K Matrices <==

    J tasked:                  Yes
    K tasked:                  Yes
    wK tasked:                  No
    Memory [MiB]:              375
    Schwarz Cutoff:          1E-12

    OpenMP threads:              1

  Minimum eigenvalue in the overlap matrix is 1.5769211738E-02.
  Using Symmetric Orthogonalization.

  SCF Guess: Superposition of Atomic Densities via on-the-fly atomic UHF.

  ==> Iterations <==

                        Total Energy        Delta E     RMS |[F,P]|

   @RHF iter SAD:  -228.82771248615350   -2.28828e+02   0.00000e+00
   @RHF iter   1:  -229.98161103432776   -1.15390e+00   5.10842e-03 DIIS
   @RHF iter   2:  -230.08012576324433   -9.85147e-02   2.60469e-03 DIIS
   @RHF iter   3:  -230.10297246868049   -2.28467e-02   4.64390e-04 DIIS
   @RHF iter   4:  -230.10440101477707   -1.42855e-03   1.12328e-04 DIIS
   @RHF iter   5:  -230.10448239295405   -8.13782e-05   2.83495e-05 DIIS
   @RHF iter   6:  -230.10448807765241   -5.68470e-06   6.68118e-06 DIIS
   @RHF iter   7:  -230.10448858336989   -5.05717e-07   1.56010e-06 DIIS
   @RHF iter   8:  -230.10448861119221   -2.78223e-08   6.17834e-07 DIIS
   @RHF iter   9:  -230.10448861354814   -2.35593e-09   1.37893e-07 DIIS
   @RHF iter  10:  -230.10448861373521   -1.87072e-10   2.72229e-08 DIIS
   @RHF iter  11:  -230.10448861374417   -8.95284e-12   7.31399e-09 DIIS
   @RHF iter  12:  -230.10448861374454   -3.69482e-13   2.00389e-09 DIIS
   @RHF iter  13:  -230.10448861374459   -5.68434e-14   5.12888e-10 DIIS
   @RHF iter  14:  -230.10448861374419    3.97904e-13   1.56766e-10 DIIS
   @RHF iter  15:  -230.10448861374454   -3.41061e-13   6.46445e-11 DIIS
  Energy and wave function converged.

  ==> Post-Iterations <==

    Orbital Energies [Eh]
    ---------------------

    Doubly Occupied:

       1A    -20.576086     2A    -20.517190     3A    -11.288775
       4A    -11.261131     5A     -1.375460     6A     -1.316483
       7A     -0.935972     8A     -0.900444     9A     -0.705016
      10A     -0.659375    11A     -0.631814    12A     -0.606359
      13A     -0.594714    14A     -0.566295    15A     -0.514437
      16A     -0.474416    17A     -0.459316    18A     -0.415988

    Virtual:

      19A      0.162282    20A      0.206192    21A      0.217421
      22A      0.251572    23A      0.255343    24A      0.276591
      25A      0.281829    26A      0.308487    27A      0.354985
      28A      0.427844    29A      0.617475    30A      0.633838
      31A      0.649389    32A      0.653707    33A      0.716911
      34A      0.751040    35A      0.798297    36A      0.832634
      37A      0.851885    38A      0.873634    39A      0.880401
      40A      0.896907    41A      0.908396    42A      0.935799
      43A      1.111260    44A      1.126499    45A      1.141316
      46A      1.161423    47A      1.169267    48A      1.209392
      49A      1.259161    50A      1.325431    51A      1.362931
      52A      1.413860    53A      1.487708    54A      1.522059
      55A      1.615354    56A      1.647890    57A      1.662036
      58A      1.672008    59A      1.679405    60A      1.709137
      61A      1.847801    62A      1.870307    63A      1.897164
      64A      1.912593    65A      1.918833    66A      1.931866
      67A      1.948049    68A      1.969373    69A      2.003302
      70A      2.071228    71A      2.123640    72A      2.180842
      73A      2.264580    74A      2.316795    75A      2.359399
      76A      2.376132    77A      2.379795    78A      2.426115
      79A      2.486232    80A      2.646167    81A      2.735113
      82A      2.753023    83A      2.755140    84A      2.766535
      85A      2.780112    86A      2.790527    87A      3.277808
      88A      3.323844    89A      3.369238    90A      3.407787
      91A      3.434956    92A      3.461548    93A      3.576481
      94A      3.620905    95A      4.069032    96A      4.140488

    Final Occupation by Irrep:
              A
    DOCC [    18 ]

  @RHF Final Energy:  -230.10448861374454

   => Energetics <=

    Nuclear Repulsion Energy =            126.7799500424270889
    One-Electron Energy =                -566.1703356727588243
    Two-Electron Energy =                 209.2858970165871710
    Total Energy =                       -230.1044886137445360

Computation Completed

Properties will be evaluated at   0.000000,   0.000000,   0.000000 [a0]

Properties computed using the SCF density matrix

  Nuclear Dipole Moment: [e a0]
     X:     1.2567      Y:    -2.6089      Z:     0.1138

  Electronic Dipole Moment: [e a0]
     X:    -0.0387      Y:     1.8043      Z:    -0.2273

  Dipole Moment: [e a0]
     X:     1.2180      Y:    -0.8046      Z:    -0.1135     Total:     1.4642

  Dipole Moment: [D]
     X:     3.0960      Y:    -2.0450      Z:    -0.2885     Total:     3.7216

*** tstop() called on ds3 at Mon Apr 27 22:08:17 2020
Module time:
	user time   =       4.76 seconds =       0.08 minutes
	system time =       0.07 seconds =       0.00 minutes
	total time  =          5 seconds =       0.08 minutes
Total time:
	user time   =       4.76 seconds =       0.08 minutes
	system time =       0.07 seconds =       0.00 minutes
	total time  =          5 seconds =       0.08 minutes
                                     G D M A

                                 by Anthony Stone

                           version 2.2.06, 22 June 2011

               Distributed Multipoles from Gaussian wavefunctions

Starting at 22:8:17 on 27 Apr 2020

Using SCF density matrix from file ./SSI/SSI-171THR-180SER-1-dimer.test.32752.fchk

                         Distributed Multipole Analysis

Standard DMA

Positions and radii in angstrom
Multipole moments in atomic units, ea_0^k for rank k

C          x = -1.375557  y = -0.294431  z =  1.891027 angstrom
           Maximum rank =  0   Radius =  0.650 angstrom
                   Q00  =  -0.035164

O          x = -1.352557  y =  0.396569  z =  0.643027 angstrom
           Maximum rank =  0   Radius =  0.650 angstrom
                   Q00  =  -0.641066

H          x = -0.454557  y =  0.348569  z =  0.277027 angstrom
           Maximum rank =  0   Radius =  0.325 angstrom
                   Q00  =   0.445930

H          x = -0.803557  y =  0.285569  z =  2.617027 angstrom
           Maximum rank =  0   Radius =  0.325 angstrom
                   Q00  =   0.062328

H          x = -2.411637  y = -0.411921  z =  2.241367 angstrom
           Maximum rank =  0   Radius =  0.325 angstrom
                   Q00  =   0.107302

H          x = -0.898707  y = -1.278201  z =  1.769307 angstrom
           Maximum rank =  0   Radius =  0.325 angstrom
                   Q00  =   0.054713

C          x =  1.288443  y = -0.407431  z = -1.879973 angstrom
           Maximum rank =  0   Radius =  0.650 angstrom
                   Q00  =  -0.060952

O          x =  1.333443  y =  0.305569  z = -0.658973 angstrom
           Maximum rank =  0   Radius =  0.650 angstrom
                   Q00  =  -0.606461

H          x =  2.122443  y =  0.029569  z = -0.172973 angstrom
           Maximum rank =  0   Radius =  0.325 angstrom
                   Q00  =   0.392409

H          x =  0.455443  y = -0.019431  z = -2.467973 angstrom
           Maximum rank =  0   Radius =  0.325 angstrom
                   Q00  =   0.124201

H          x =  1.112443  y = -1.467431  z = -1.690973 angstrom
           Maximum rank =  0   Radius =  0.325 angstrom
                   Q00  =   0.074893

H          x =  2.218763  y = -0.273191  z = -2.451373 angstrom
           Maximum rank =  0   Radius =  0.325 angstrom
                   Q00  =   0.081867

Total multipoles referred to origin at
           x =   0.000000,  y =    0.000000,  z =    0.000000 angstrom
                   Q00  =  -0.000000

Finished at 22:8:17 on 27 Apr 2020

  DMA results are available in the Python driver through the
	  variable('DMA DISTRIBUTED MULTIPOLES')
  and
	  variable('DMA TOTAL MULTIPOLES')
  commands.

    Psi4 stopped on: Monday, 27 April 2020 10:08PM
    Psi4 wall time for execution: 0:00:05.16

*** Psi4 exiting successfully. Buy a developer a beer!
