                               Psi4 1.3.2 release

  ==> Input File <==

--------------------------------------------------------------------------
import numpy as np
set {scf_type pk
basis cc-pvdz
d_convergence 10
gdma_switch   0
gdma_limit    0
gdma_origin   [ 0.0,  0.0,  0.0 ]
}
molecule test {
    units Angstrom
    0 1
    --
    0 1
    C                0.080579934116523    -1.810925983472590     2.070129766721900
    C               -0.278420065883477    -2.719925983472590     3.240129766721900
    H                1.119579934116523    -1.486925983472590     2.128129766721900
    H               -0.071420065883477    -2.340925983472589     1.132129766721900
    H               -0.561420065883477    -0.930925983472589     2.068129766721901
    H               -1.342420065883477    -2.955925983472590     3.184129766721900
    H               -0.068770065883477    -2.219065983472590     4.196779766721900
    H                0.299869934116523    -3.653545983472589     3.177419766721900
    C                1.789579934116523    -0.415925983472590    -0.720870233278100
    C                2.442579934116524    -0.173925983472590    -2.085870233278100
    C                0.473579934116523     0.302074016527410    -0.584870233278100
    C               -0.684420065883477    -0.346925983472590    -0.955870233278100
    C                0.408579934116523     1.629074016527410    -0.141870233278100
    C               -1.911420065883477     0.335074016527410    -0.846870233278100
    C               -0.808420065883477     2.317074016527410    -0.035870233278100
    C               -1.963420065883477     1.663074016527410    -0.430870233278100
    H                1.656579934116523    -1.486925983472590    -0.558870233278100
    H                2.441579934116523    -0.046925983472590     0.071129766721900
    H                2.313579934116524     0.880074016527410    -2.317870233278100
    H               -0.660420065883477    -1.369925983472590    -1.305870233278100
    H                1.321579934116523     2.137074016527410     0.138129766721900
    H               -2.823420065883476    -0.179925983472590    -1.100870233278100
    H               -0.839420065883477     3.342074016527411     0.305129766721900
    H               -2.905420065883477     2.185074016527410    -0.407870233278100
    H                1.974799934116523    -0.773425983472590    -2.880717233278100
    H                3.517509934116523    -0.372175983472590    -1.962517233278100

}
e, wfn = energy('scf', return_wfn=True)
gdma(wfn)
dmavals = variable('DMA DISTRIBUTED MULTIPOLES')
charges = np.array(dmavals)
print(charges)
np.save('SSI-189THR-205PHE-1-dimer.npy', np.array(charges))--------------------------------------------------------------------------

*** tstart() called on ds3
*** at Mon Apr 27 11:46:38 2020

   => Loading Basis Set <=

    Name: CC-PVDZ
    Role: ORBITAL
    Keyword: BASIS
    atoms 1-2, 9-16  entry C          line   138 file /theoryfs2/ds/metcalf/miniconda2/envs/tf2gpu/share/psi4/basis/cc-pvdz.gbs
    atoms 3-8, 17-26 entry H          line    22 file /theoryfs2/ds/metcalf/miniconda2/envs/tf2gpu/share/psi4/basis/cc-pvdz.gbs

         ---------------------------------------------------------
                                   SCF
               by Justin Turney, Rob Parrish, Andy Simmonett
                          and Daniel G. A. Smith
                              RHF Reference
                        1 Threads,    500 MiB Core
         ---------------------------------------------------------

  ==> Geometry <==

    Molecular point group: c1
    Full point group: C1

    Geometry (in Angstrom), charge = 0, multiplicity = 1:

       Center              X                  Y                   Z               Mass
    ------------   -----------------  -----------------  -----------------  -----------------
         C            0.080579934117    -1.810925983473     2.070129766722    12.000000000000
         C           -0.278420065883    -2.719925983473     3.240129766722    12.000000000000
         H            1.119579934117    -1.486925983473     2.128129766722     1.007825032230
         H           -0.071420065883    -2.340925983473     1.132129766722     1.007825032230
         H           -0.561420065883    -0.930925983473     2.068129766722     1.007825032230
         H           -1.342420065883    -2.955925983473     3.184129766722     1.007825032230
         H           -0.068770065883    -2.219065983473     4.196779766722     1.007825032230
         H            0.299869934117    -3.653545983473     3.177419766722     1.007825032230
         C            1.789579934117    -0.415925983473    -0.720870233278    12.000000000000
         C            2.442579934117    -0.173925983473    -2.085870233278    12.000000000000
         C            0.473579934117     0.302074016527    -0.584870233278    12.000000000000
         C           -0.684420065883    -0.346925983473    -0.955870233278    12.000000000000
         C            0.408579934117     1.629074016527    -0.141870233278    12.000000000000
         C           -1.911420065883     0.335074016527    -0.846870233278    12.000000000000
         C           -0.808420065883     2.317074016527    -0.035870233278    12.000000000000
         C           -1.963420065883     1.663074016527    -0.430870233278    12.000000000000
         H            1.656579934117    -1.486925983473    -0.558870233278     1.007825032230
         H            2.441579934117    -0.046925983473     0.071129766722     1.007825032230
         H            2.313579934117     0.880074016527    -2.317870233278     1.007825032230
         H           -0.660420065883    -1.369925983473    -1.305870233278     1.007825032230
         H            1.321579934117     2.137074016527     0.138129766722     1.007825032230
         H           -2.823420065883    -0.179925983473    -1.100870233278     1.007825032230
         H           -0.839420065883     3.342074016527     0.305129766722     1.007825032230
         H           -2.905420065883     2.185074016527    -0.407870233278     1.007825032230
         H            1.974799934117    -0.773425983473    -2.880717233278     1.007825032230
         H            3.517509934117    -0.372175983473    -1.962517233278     1.007825032230

  Running in c1 symmetry.

  Rotational constants: A =      0.04104  B =      0.02779  C =      0.01998 [cm^-1]
  Rotational constants: A =   1230.46636  B =    833.07978  C =    599.12040 [MHz]
  Nuclear repulsion =  500.532949524628350

  Charge       = 0
  Multiplicity = 1
  Electrons    = 76
  Nalpha       = 38
  Nbeta        = 38

  ==> Algorithm <==

  SCF Algorithm Type is PK.
  DIIS enabled.
  MOM disabled.
  Fractional occupation disabled.
  Guess Type is SAD.
  Energy threshold   = 1.00e-06
  Density threshold  = 1.00e-10
  Integral threshold = 0.00e+00

  ==> Primary Basis <==

  Basis Set: CC-PVDZ
    Blend: CC-PVDZ
    Number of shells: 108
    Number of basis function: 220
    Number of Cartesian functions: 230
    Spherical Harmonics?: true
    Max angular momentum: 2

  ==> Pre-Iterations <==

   -------------------------------------------------------
    Irrep   Nso     Nmo     Nalpha   Nbeta   Ndocc  Nsocc
   -------------------------------------------------------
     A        220     220       0       0       0       0
   -------------------------------------------------------
    Total     220     220      38      38      38       0
   -------------------------------------------------------

  ==> Integral Setup <==

  Using integral reordering PK algorithm.
  Sizing the integral batches needed.
  Building batch lookup table.
   Calculation information:
      Number of atoms:                  26
      Number of AO shells:             108
      Number of primitives:            300
      Number of atomic orbitals:       230
      Number of basis functions:       220

      Integral cutoff                 1.00e-12
      Number of threads:                 1

	Batch   1 pq = [       0,    9405] index = [             0,44231715] size =     44231715
	Batch   2 pq = [    9405,   13301] index = [      44231715,88464951] size =     44233236
	Batch   3 pq = [   13301,   16290] index = [      88464951,132690195] size =     44225244
	Batch   4 pq = [   16290,   18810] index = [     132690195,176917455] size =     44227260
	Batch   5 pq = [   18810,   21030] index = [     176917455,221140965] size =     44223510
	Batch   6 pq = [   21030,   23037] index = [     221140965,265363203] size =     44222238
	Batch   7 pq = [   23037,   24310] index = [     265363203,295500205] size =     30137002
  Task number: 27
  Buffer size: 11059200
  Buffer per thread: 2
  We computed 16396294 shell quartets total.
  Whereas there are 17325441 unique shell quartets.

  ==> DiskJK: Disk-Based J/K Matrices <==

    J tasked:                  Yes
    K tasked:                  Yes
    wK tasked:                  No
    Memory [MiB]:              375
    Schwarz Cutoff:          1E-12

    OpenMP threads:              1

  Minimum eigenvalue in the overlap matrix is 3.2032193108E-04.
  Using Symmetric Orthogonalization.

  SCF Guess: Superposition of Atomic Densities via on-the-fly atomic UHF.

  ==> Iterations <==

                        Total Energy        Delta E     RMS |[F,P]|

   @RHF iter SAD:  -386.89686141086531   -3.86897e+02   0.00000e+00
   @RHF iter   1:  -387.77179775740831   -8.74936e-01   2.72568e-03 DIIS
   @RHF iter   2:  -387.98685162436107   -2.15054e-01   1.13122e-03 DIIS
   @RHF iter   3:  -388.02076690372962   -3.39153e-02   2.49278e-04 DIIS
   @RHF iter   4:  -388.02358886489793   -2.82196e-03   6.26356e-05 DIIS
   @RHF iter   5:  -388.02370559726899   -1.16732e-04   2.14820e-05 DIIS
   @RHF iter   6:  -388.02372034910184   -1.47518e-05   4.09369e-06 DIIS
   @RHF iter   7:  -388.02372107541305   -7.26311e-07   1.24099e-06 DIIS
   @RHF iter   8:  -388.02372114689086   -7.14778e-08   3.91778e-07 DIIS
   @RHF iter   9:  -388.02372116224012   -1.53493e-08   1.81748e-07 DIIS
   @RHF iter  10:  -388.02372116687570   -4.63558e-09   8.76657e-08 DIIS
   @RHF iter  11:  -388.02372116807618   -1.20048e-09   2.71164e-08 DIIS
   @RHF iter  12:  -388.02372116816684   -9.06653e-11   1.03898e-08 DIIS
   @RHF iter  13:  -388.02372116817332   -6.48015e-12   4.35984e-09 DIIS
   @RHF iter  14:  -388.02372116817719   -3.86535e-12   1.25631e-09 DIIS
   @RHF iter  15:  -388.02372116817457    2.61480e-12   5.52818e-10 DIIS
   @RHF iter  16:  -388.02372116817349    1.08002e-12   2.54146e-10 DIIS
   @RHF iter  17:  -388.02372116817730   -3.80851e-12   9.85856e-11 DIIS
  Energy and wave function converged.

  ==> Post-Iterations <==

    Orbital Energies [Eh]
    ---------------------

    Doubly Occupied:

       1A    -11.236373     2A    -11.235160     3A    -11.234686
       4A    -11.231490     5A    -11.229971     6A    -11.229423
       7A    -11.226995     8A    -11.222412     9A    -11.214175
      10A    -11.208261    11A     -1.152805    12A     -1.063632
      13A     -1.013363    14A     -1.008000    15A     -0.981094
      16A     -0.859488    17A     -0.831375    18A     -0.825940
      19A     -0.783646    20A     -0.690086    21A     -0.639273
      22A     -0.635126    23A     -0.594193    24A     -0.592534
      25A     -0.591412    26A     -0.585473    27A     -0.574679
      28A     -0.540486    29A     -0.518626    30A     -0.500890
      31A     -0.493380    32A     -0.485967    33A     -0.482605
      34A     -0.475476    35A     -0.472357    36A     -0.462743
      37A     -0.329351    38A     -0.321002

    Virtual:

      39A      0.133212    40A      0.140961    41A      0.178530
      42A      0.195417    43A      0.201860    44A      0.207791
      45A      0.226991    46A      0.237360    47A      0.245725
      48A      0.260932    49A      0.262239    50A      0.266725
      51A      0.272572    52A      0.286152    53A      0.289508
      54A      0.297899    55A      0.320924    56A      0.326461
      57A      0.347888    58A      0.388098    59A      0.395722
      60A      0.425990    61A      0.451269    62A      0.466793
      63A      0.489126    64A      0.497052    65A      0.564035
      66A      0.566353    67A      0.601013    68A      0.603126
      69A      0.607410    70A      0.618986    71A      0.634947
      72A      0.651540    73A      0.670860    74A      0.681524
      75A      0.706884    76A      0.722890    77A      0.730215
      78A      0.737442    79A      0.743544    80A      0.751042
      81A      0.769953    82A      0.771272    83A      0.791073
      84A      0.816724    85A      0.830804    86A      0.848937
      87A      0.860261    88A      0.867125    89A      0.884389
      90A      0.886752    91A      0.889011    92A      0.896105
      93A      0.899916    94A      0.902629    95A      0.910993
      96A      0.918010    97A      0.921399    98A      0.927209
      99A      0.932847   100A      0.951606   101A      0.964643
     102A      0.971506   103A      0.972704   104A      0.994260
     105A      0.996473   106A      1.030067   107A      1.057103
     108A      1.078250   109A      1.117371   110A      1.132691
     111A      1.138501   112A      1.152206   113A      1.158366
     114A      1.160992   115A      1.184797   116A      1.226353
     117A      1.244057   118A      1.246671   119A      1.254177
     120A      1.292738   121A      1.300101   122A      1.303865
     123A      1.316598   124A      1.346249   125A      1.397372
     126A      1.421976   127A      1.450986   128A      1.476886
     129A      1.485462   130A      1.518290   131A      1.545416
     132A      1.589763   133A      1.620174   134A      1.630488
     135A      1.669790   136A      1.684946   137A      1.696186
     138A      1.707674   139A      1.730592   140A      1.745483
     141A      1.757731   142A      1.768733   143A      1.841621
     144A      1.849781   145A      1.863238   146A      1.875580
     147A      1.876344   148A      1.885906   149A      1.892423
     150A      1.900609   151A      1.913506   152A      1.923036
     153A      1.928884   154A      1.937166   155A      1.939523
     156A      1.944944   157A      1.953793   158A      1.959851
     159A      1.962613   160A      1.971692   161A      1.978294
     162A      1.983848   163A      2.000987   164A      2.011934
     165A      2.014277   166A      2.029283   167A      2.043730
     168A      2.079776   169A      2.091991   170A      2.106190
     171A      2.109325   172A      2.121072   173A      2.132254
     174A      2.144083   175A      2.163157   176A      2.168065
     177A      2.179386   178A      2.218121   179A      2.249890
     180A      2.255319   181A      2.272796   182A      2.296880
     183A      2.311208   184A      2.324125   185A      2.337163
     186A      2.391871   187A      2.398507   188A      2.438335
     189A      2.466572   190A      2.471944   191A      2.480924
     192A      2.503290   193A      2.513645   194A      2.547000
     195A      2.574933   196A      2.577316   197A      2.585519
     198A      2.645999   199A      2.746946   200A      2.766322
     201A      2.773590   202A      2.779838   203A      2.786734
     204A      2.801646   205A      2.808377   206A      2.845134
     207A      2.851793   208A      2.861157   209A      2.868390
     210A      2.899084   211A      2.959906   212A      2.964035
     213A      2.972884   214A      2.991211   215A      3.026570
     216A      3.056822   217A      3.173177   218A      3.207716
     219A      3.302708   220A      3.962615

    Final Occupation by Irrep:
              A
    DOCC [    38 ]

  @RHF Final Energy:  -388.02372116817730

   => Energetics <=

    Nuclear Repulsion Energy =            500.5329495246283500
    One-Electron Energy =               -1515.5654509952355511
    Two-Electron Energy =                 627.0087803024299546
    Total Energy =                       -388.0237211681773033

Computation Completed

Properties will be evaluated at   0.000000,   0.000000,   0.000000 [a0]

Properties computed using the SCF density matrix

  Nuclear Dipole Moment: [e a0]
     X:     5.0364      Y:    -8.6925      Z:     5.4997

  Electronic Dipole Moment: [e a0]
     X:    -4.9511      Y:     8.6918      Z:    -5.5491

  Dipole Moment: [e a0]
     X:     0.0853      Y:    -0.0007      Z:    -0.0494     Total:     0.0986

  Dipole Moment: [D]
     X:     0.2168      Y:    -0.0018      Z:    -0.1255     Total:     0.2505

*** tstop() called on ds3 at Mon Apr 27 11:58:08 2020
Module time:
	user time   =     112.83 seconds =       1.88 minutes
	system time =      40.46 seconds =       0.67 minutes
	total time  =        690 seconds =      11.50 minutes
Total time:
	user time   =     112.83 seconds =       1.88 minutes
	system time =      40.46 seconds =       0.67 minutes
	total time  =        690 seconds =      11.50 minutes
                                     G D M A

                                 by Anthony Stone

                           version 2.2.06, 22 June 2011

               Distributed Multipoles from Gaussian wavefunctions

Starting at 11:58:8 on 27 Apr 2020

Using SCF density matrix from file ./SSI/SSI-189THR-205PHE-1-dimer.test.3117.fchk

                         Distributed Multipole Analysis

Standard DMA

Positions and radii in angstrom
Multipole moments in atomic units, ea_0^k for rank k

C          x =  0.080580  y = -1.810926  z =  2.070130 angstrom
           Maximum rank =  0   Radius =  0.650 angstrom
                   Q00  =  -0.234871

C          x = -0.278420  y = -2.719926  z =  3.240130 angstrom
           Maximum rank =  0   Radius =  0.650 angstrom
                   Q00  =  -0.230151

H          x =  1.119580  y = -1.486926  z =  2.128130 angstrom
           Maximum rank =  0   Radius =  0.325 angstrom
                   Q00  =   0.074655

H          x = -0.071420  y = -2.340926  z =  1.132130 angstrom
           Maximum rank =  0   Radius =  0.325 angstrom
                   Q00  =   0.070161

H          x = -0.561420  y = -0.930926  z =  2.068130 angstrom
           Maximum rank =  0   Radius =  0.325 angstrom
                   Q00  =   0.089039

H          x = -1.342420  y = -2.955926  z =  3.184130 angstrom
           Maximum rank =  0   Radius =  0.325 angstrom
                   Q00  =   0.077974

H          x = -0.068770  y = -2.219066  z =  4.196780 angstrom
           Maximum rank =  0   Radius =  0.325 angstrom
                   Q00  =   0.078375

H          x =  0.299870  y = -3.653546  z =  3.177420 angstrom
           Maximum rank =  0   Radius =  0.325 angstrom
                   Q00  =   0.074042

C          x =  1.789580  y = -0.415926  z = -0.720870 angstrom
           Maximum rank =  0   Radius =  0.650 angstrom
                   Q00  =  -0.045548

C          x =  2.442580  y = -0.173926  z = -2.085870 angstrom
           Maximum rank =  0   Radius =  0.650 angstrom
                   Q00  =  -0.234325

C          x =  0.473580  y =  0.302074  z = -0.584870 angstrom
           Maximum rank =  0   Radius =  0.650 angstrom
                   Q00  =  -0.102053

C          x = -0.684420  y = -0.346926  z = -0.955870 angstrom
           Maximum rank =  0   Radius =  0.650 angstrom
                   Q00  =  -0.084162

C          x =  0.408580  y =  1.629074  z = -0.141870 angstrom
           Maximum rank =  0   Radius =  0.650 angstrom
                   Q00  =  -0.001740

C          x = -1.911420  y =  0.335074  z = -0.846870 angstrom
           Maximum rank =  0   Radius =  0.650 angstrom
                   Q00  =  -0.052921

C          x = -0.808420  y =  2.317074  z = -0.035870 angstrom
           Maximum rank =  0   Radius =  0.650 angstrom
                   Q00  =  -0.073567

C          x = -1.963420  y =  1.663074  z = -0.430870 angstrom
           Maximum rank =  0   Radius =  0.650 angstrom
                   Q00  =  -0.097437

H          x =  1.656580  y = -1.486926  z = -0.558870 angstrom
           Maximum rank =  0   Radius =  0.325 angstrom
                   Q00  =   0.066892

H          x =  2.441580  y = -0.046926  z =  0.071130 angstrom
           Maximum rank =  0   Radius =  0.325 angstrom
                   Q00  =   0.065779

H          x =  2.313580  y =  0.880074  z = -2.317870 angstrom
           Maximum rank =  0   Radius =  0.325 angstrom
                   Q00  =   0.084457

H          x = -0.660420  y = -1.369926  z = -1.305870 angstrom
           Maximum rank =  0   Radius =  0.325 angstrom
                   Q00  =   0.057926

H          x =  1.321580  y =  2.137074  z =  0.138130 angstrom
           Maximum rank =  0   Radius =  0.325 angstrom
                   Q00  =   0.054949

H          x = -2.823420  y = -0.179926  z = -1.100870 angstrom
           Maximum rank =  0   Radius =  0.325 angstrom
                   Q00  =   0.063352

H          x = -0.839420  y =  3.342074  z =  0.305130 angstrom
           Maximum rank =  0   Radius =  0.325 angstrom
                   Q00  =   0.068196

H          x = -2.905420  y =  2.185074  z = -0.407870 angstrom
           Maximum rank =  0   Radius =  0.325 angstrom
                   Q00  =   0.059690

H          x =  1.974800  y = -0.773426  z = -2.880717 angstrom
           Maximum rank =  0   Radius =  0.325 angstrom
                   Q00  =   0.086907

H          x =  3.517510  y = -0.372176  z = -1.962517 angstrom
           Maximum rank =  0   Radius =  0.325 angstrom
                   Q00  =   0.084382

Total multipoles referred to origin at
           x =   0.000000,  y =    0.000000,  z =    0.000000 angstrom
                   Q00  =  -0.000000

Finished at 11:58:8 on 27 Apr 2020

  DMA results are available in the Python driver through the
	  variable('DMA DISTRIBUTED MULTIPOLES')
  and
	  variable('DMA TOTAL MULTIPOLES')
  commands.

    Psi4 stopped on: Monday, 27 April 2020 11:58AM
    Psi4 wall time for execution: 0:11:30.06

*** Psi4 exiting successfully. Buy a developer a beer!
