                               Psi4 1.3.2 release

  ==> Input File <==

--------------------------------------------------------------------------
import numpy as np
set {scf_type pk
basis cc-pvdz
d_convergence 10
gdma_switch   0
gdma_limit    0
gdma_origin   [ 0.0,  0.0,  0.0 ]
}
molecule test {
    units Angstrom
    1 1
    --
    1 1
    C                1.411551828505292     1.890740605918722     0.023996328269927
    C               -0.787448171494708     0.886740605918722     0.644996328269927
    N               -1.520448171494708    -0.213259394081278     0.684996328269927
    N                0.461551828505292     0.796740605918722     0.209996328269927
    N               -1.314448171494708     2.040740605918723     1.002996328269927
    H               -1.144448171494708    -1.072259394081278     0.307996328269927
    H               -2.488448171494708    -0.166259394081278     0.959996328269927
    H                0.732551828505292    -0.105259394081278    -0.166003671730073
    H               -0.782448171494708     2.887740605918722     0.907996328269927
    H               -2.269448171494708     2.086740605918723     1.321996328269927
    H                0.974551828505292     2.625740605918723    -0.653003671730073
    H                2.307551828505292     1.502740605918722    -0.439003671730073
    H                1.710016528505292     2.415860605918722     0.943326328269927
    C                1.351551828505292    -3.006259394081277    -1.043003671730073
    O                0.367551828505292    -2.005259394081278    -1.271003671730073
    H               -0.213448171494708    -2.332259394081278    -1.974003671730073
    H                1.337551828505292    -3.714259394081278    -1.870003671730073
    H                2.341601728505292    -2.529809394081278    -0.990143671730073
    H                1.113389628505292    -3.511629394081278    -0.095437671730073

}
e, wfn = energy('scf', return_wfn=True)
gdma(wfn)
dmavals = variable('DMA DISTRIBUTED MULTIPOLES')
charges = np.array(dmavals)
print(charges)
np.save('SSI-004ARG-024THR-1-dimer.npy', np.array(charges))--------------------------------------------------------------------------

*** tstart() called on ds3
*** at Mon Apr 27 17:02:57 2020

   => Loading Basis Set <=

    Name: CC-PVDZ
    Role: ORBITAL
    Keyword: BASIS
    atoms 1-2, 14     entry C          line   138 file /theoryfs2/ds/metcalf/miniconda2/envs/tf2gpu/share/psi4/basis/cc-pvdz.gbs
    atoms 3-5         entry N          line   168 file /theoryfs2/ds/metcalf/miniconda2/envs/tf2gpu/share/psi4/basis/cc-pvdz.gbs
    atoms 6-13, 16-19 entry H          line    22 file /theoryfs2/ds/metcalf/miniconda2/envs/tf2gpu/share/psi4/basis/cc-pvdz.gbs
    atoms 15          entry O          line   198 file /theoryfs2/ds/metcalf/miniconda2/envs/tf2gpu/share/psi4/basis/cc-pvdz.gbs

         ---------------------------------------------------------
                                   SCF
               by Justin Turney, Rob Parrish, Andy Simmonett
                          and Daniel G. A. Smith
                              RHF Reference
                        1 Threads,    500 MiB Core
         ---------------------------------------------------------

  ==> Geometry <==

    Molecular point group: c1
    Full point group: C1

    Geometry (in Angstrom), charge = 1, multiplicity = 1:

       Center              X                  Y                   Z               Mass
    ------------   -----------------  -----------------  -----------------  -----------------
         C            1.411551828505     1.890740605919     0.023996328270    12.000000000000
         C           -0.787448171495     0.886740605919     0.644996328270    12.000000000000
         N           -1.520448171495    -0.213259394081     0.684996328270    14.003074004430
         N            0.461551828505     0.796740605919     0.209996328270    14.003074004430
         N           -1.314448171495     2.040740605919     1.002996328270    14.003074004430
         H           -1.144448171495    -1.072259394081     0.307996328270     1.007825032230
         H           -2.488448171495    -0.166259394081     0.959996328270     1.007825032230
         H            0.732551828505    -0.105259394081    -0.166003671730     1.007825032230
         H           -0.782448171495     2.887740605919     0.907996328270     1.007825032230
         H           -2.269448171495     2.086740605919     1.321996328270     1.007825032230
         H            0.974551828505     2.625740605919    -0.653003671730     1.007825032230
         H            2.307551828505     1.502740605919    -0.439003671730     1.007825032230
         H            1.710016528505     2.415860605919     0.943326328270     1.007825032230
         C            1.351551828505    -3.006259394081    -1.043003671730    12.000000000000
         O            0.367551828505    -2.005259394081    -1.271003671730    15.994914619570
         H           -0.213448171495    -2.332259394081    -1.974003671730     1.007825032230
         H            1.337551828505    -3.714259394081    -1.870003671730     1.007825032230
         H            2.341601728505    -2.529809394081    -0.990143671730     1.007825032230
         H            1.113389628505    -3.511629394081    -0.095437671730     1.007825032230

  Running in c1 symmetry.

  Rotational constants: A =      0.11998  B =      0.03695  C =      0.02932 [cm^-1]
  Rotational constants: A =   3596.83616  B =   1107.67701  C =    878.93762 [MHz]
  Nuclear repulsion =  325.642323121756533

  Charge       = 1
  Multiplicity = 1
  Electrons    = 58
  Nalpha       = 29
  Nbeta        = 29

  ==> Algorithm <==

  SCF Algorithm Type is PK.
  DIIS enabled.
  MOM disabled.
  Fractional occupation disabled.
  Guess Type is SAD.
  Energy threshold   = 1.00e-06
  Density threshold  = 1.00e-10
  Integral threshold = 0.00e+00

  ==> Primary Basis <==

  Basis Set: CC-PVDZ
    Blend: CC-PVDZ
    Number of shells: 78
    Number of basis function: 158
    Number of Cartesian functions: 165
    Spherical Harmonics?: true
    Max angular momentum: 2

  ==> Pre-Iterations <==

   -------------------------------------------------------
    Irrep   Nso     Nmo     Nalpha   Nbeta   Ndocc  Nsocc
   -------------------------------------------------------
     A        158     158       0       0       0       0
   -------------------------------------------------------
    Total     158     158      29      29      29       0
   -------------------------------------------------------

  ==> Integral Setup <==

  Using integral reordering PK algorithm.
  Sizing the integral batches needed.
  Building batch lookup table.
   Calculation information:
      Number of atoms:                  19
      Number of AO shells:              78
      Number of primitives:            214
      Number of atomic orbitals:       165
      Number of basis functions:       158

      Integral cutoff                 1.00e-12
      Number of threads:                 1

	Batch   1 pq = [       0,    9405] index = [             0,44231715] size =     44231715
	Batch   2 pq = [    9405,   12561] index = [      44231715,78895641] size =     34663926
  Task number: 8
  Buffer size: 11059200
  Buffer per thread: 2
  We computed 4178479 shell quartets total.
  Whereas there are 4747821 unique shell quartets.

  ==> DiskJK: Disk-Based J/K Matrices <==

    J tasked:                  Yes
    K tasked:                  Yes
    wK tasked:                  No
    Memory [MiB]:              375
    Schwarz Cutoff:          1E-12

    OpenMP threads:              1

  Minimum eigenvalue in the overlap matrix is 3.8965613438E-03.
  Using Symmetric Orthogonalization.

  SCF Guess: Superposition of Atomic Densities via on-the-fly atomic UHF.

  ==> Iterations <==

                        Total Energy        Delta E     RMS |[F,P]|

   @RHF iter SAD:  -357.86372360610460   -3.57864e+02   0.00000e+00
   @RHF iter   1:  -358.47996895686288   -6.16245e-01   3.56526e-03 DIIS
   @RHF iter   2:  -358.62802991346803   -1.48061e-01   1.50237e-03 DIIS
   @RHF iter   3:  -358.65136497259886   -2.33351e-02   3.76917e-04 DIIS
   @RHF iter   4:  -358.65365455408158   -2.28958e-03   9.30478e-05 DIIS
   @RHF iter   5:  -358.65377668393324   -1.22130e-04   2.44143e-05 DIIS
   @RHF iter   6:  -358.65378930247368   -1.26185e-05   6.94093e-06 DIIS
   @RHF iter   7:  -358.65379042025091   -1.11778e-06   1.88862e-06 DIIS
   @RHF iter   8:  -358.65379051722698   -9.69761e-08   5.71462e-07 DIIS
   @RHF iter   9:  -358.65379052411743   -6.89045e-09   8.73495e-08 DIIS
   @RHF iter  10:  -358.65379052432775   -2.10321e-10   3.04055e-08 DIIS
   @RHF iter  11:  -358.65379052434633   -1.85878e-11   7.30172e-09 DIIS
   @RHF iter  12:  -358.65379052434770   -1.36424e-12   2.32264e-09 DIIS
   @RHF iter  13:  -358.65379052434696    7.38964e-13   6.93905e-10 DIIS
   @RHF iter  14:  -358.65379052434793   -9.66338e-13   3.00701e-10 DIIS
   @RHF iter  15:  -358.65379052434764    2.84217e-13   6.75612e-11 DIIS
  Energy and wave function converged.

  ==> Post-Iterations <==

    Orbital Energies [Eh]
    ---------------------

    Doubly Occupied:

       1A    -20.700915     2A    -15.777303     3A    -15.766231
       4A    -15.763642     5A    -11.572595     6A    -11.426382
       7A    -11.401387     8A     -1.528078     9A     -1.497153
      10A     -1.385154    11A     -1.374790    12A     -1.128004
      13A     -1.047818    14A     -1.021775    15A     -0.959062
      16A     -0.923318    17A     -0.849090    18A     -0.840997
      19A     -0.823127    20A     -0.807339    21A     -0.779636
      22A     -0.749406    23A     -0.727074    24A     -0.726042
      25A     -0.707628    26A     -0.634111    27A     -0.603404
      28A     -0.583147    29A     -0.565589

    Virtual:

      30A      0.007097    31A      0.038332    32A      0.040995
      33A      0.043491    34A      0.074973    35A      0.090074
      36A      0.106152    37A      0.114150    38A      0.128264
      39A      0.135877    40A      0.151154    41A      0.171564
      42A      0.189737    43A      0.220601    44A      0.253156
      45A      0.296595    46A      0.344432    47A      0.352198
      48A      0.470550    49A      0.476736    50A      0.500010
      51A      0.515325    52A      0.529422    53A      0.537114
      54A      0.545054    55A      0.546924    56A      0.569247
      57A      0.581264    58A      0.610373    59A      0.697645
      60A      0.702405    61A      0.704109    62A      0.719017
      63A      0.722233    64A      0.740827    65A      0.755371
      66A      0.766948    67A      0.771262    68A      0.806727
      69A      0.815545    70A      0.830424    71A      0.844916
      72A      0.903008    73A      0.927737    74A      0.935397
      75A      0.954071    76A      0.991784    77A      1.013099
      78A      1.048281    79A      1.064651    80A      1.087637
      81A      1.122828    82A      1.131957    83A      1.143903
      84A      1.169243    85A      1.215242    86A      1.224666
      87A      1.231293    88A      1.259332    89A      1.308987
      90A      1.371288    91A      1.434374    92A      1.470756
      93A      1.490570    94A      1.524978    95A      1.527230
      96A      1.537484    97A      1.543719    98A      1.561990
      99A      1.578244   100A      1.660677   101A      1.678701
     102A      1.712794   103A      1.728235   104A      1.734609
     105A      1.750192   106A      1.762026   107A      1.783761
     108A      1.791023   109A      1.801602   110A      1.810878
     111A      1.821691   112A      1.831550   113A      1.865267
     114A      1.867436   115A      1.904603   116A      1.921979
     117A      1.962927   118A      2.026479   119A      2.051278
     120A      2.083635   121A      2.134160   122A      2.156052
     123A      2.167645   124A      2.214661   125A      2.252885
     126A      2.264135   127A      2.270877   128A      2.274579
     129A      2.314151   130A      2.326609   131A      2.338642
     132A      2.356018   133A      2.413954   134A      2.452231
     135A      2.481549   136A      2.555001   137A      2.605213
     138A      2.609214   139A      2.617252   140A      2.640621
     141A      2.671038   142A      2.681161   143A      2.724811
     144A      2.791333   145A      2.822200   146A      2.823776
     147A      2.859113   148A      2.908609   149A      3.083650
     150A      3.121546   151A      3.145845   152A      3.166894
     153A      3.228679   154A      3.317663   155A      3.441817
     156A      3.590026   157A      3.657624   158A      3.959498

    Final Occupation by Irrep:
              A
    DOCC [    29 ]

  @RHF Final Energy:  -358.65379052434764

   => Energetics <=

    Nuclear Repulsion Energy =            325.6423231217565331
    One-Electron Energy =               -1123.2518361777724749
    Two-Electron Energy =                 438.9557225316682434
    Total Energy =                       -358.6537905243476416

Computation Completed

Properties will be evaluated at   0.000000,   0.000000,   0.000000 [a0]

Properties computed using the SCF density matrix

  Nuclear Dipole Moment: [e a0]
     X:     3.4013      Y:    -1.8106      Z:    -1.6487

  Electronic Dipole Moment: [e a0]
     X:    -4.4184      Y:     2.5407      Z:     1.9336

  Dipole Moment: [e a0]
     X:    -1.0170      Y:     0.7302      Z:     0.2849     Total:     1.2840

  Dipole Moment: [D]
     X:    -2.5850      Y:     1.8559      Z:     0.7241     Total:     3.2636

*** tstop() called on ds3 at Mon Apr 27 17:03:36 2020
Module time:
	user time   =      28.53 seconds =       0.48 minutes
	system time =      10.87 seconds =       0.18 minutes
	total time  =         39 seconds =       0.65 minutes
Total time:
	user time   =      28.53 seconds =       0.48 minutes
	system time =      10.87 seconds =       0.18 minutes
	total time  =         39 seconds =       0.65 minutes
                                     G D M A

                                 by Anthony Stone

                           version 2.2.06, 22 June 2011

               Distributed Multipoles from Gaussian wavefunctions

Starting at 17:3:36 on 27 Apr 2020

Using SCF density matrix from file ./SSI/SSI-004ARG-024THR-1-dimer.test.3120.fchk

                         Distributed Multipole Analysis

Standard DMA

Positions and radii in angstrom
Multipole moments in atomic units, ea_0^k for rank k

C          x =  1.411552  y =  1.890741  z =  0.023996 angstrom
           Maximum rank =  0   Radius =  0.650 angstrom
                   Q00  =  -0.130027

C          x = -0.787448  y =  0.886741  z =  0.644996 angstrom
           Maximum rank =  0   Radius =  0.650 angstrom
                   Q00  =   1.082539

N          x = -1.520448  y = -0.213259  z =  0.684996 angstrom
           Maximum rank =  0   Radius =  0.650 angstrom
                   Q00  =  -0.589904

N          x =  0.461552  y =  0.796741  z =  0.209996 angstrom
           Maximum rank =  0   Radius =  0.650 angstrom
                   Q00  =  -0.497641

N          x = -1.314448  y =  2.040741  z =  1.002996 angstrom
           Maximum rank =  0   Radius =  0.650 angstrom
                   Q00  =  -0.587161

H          x = -1.144448  y = -1.072259  z =  0.307996 angstrom
           Maximum rank =  0   Radius =  0.325 angstrom
                   Q00  =   0.273184

H          x = -2.488448  y = -0.166259  z =  0.959996 angstrom
           Maximum rank =  0   Radius =  0.325 angstrom
                   Q00  =   0.255020

H          x =  0.732552  y = -0.105259  z = -0.166004 angstrom
           Maximum rank =  0   Radius =  0.325 angstrom
                   Q00  =   0.248495

H          x = -0.782448  y =  2.887741  z =  0.907996 angstrom
           Maximum rank =  0   Radius =  0.325 angstrom
                   Q00  =   0.268921

H          x = -2.269448  y =  2.086741  z =  1.321996 angstrom
           Maximum rank =  0   Radius =  0.325 angstrom
                   Q00  =   0.264622

H          x =  0.974552  y =  2.625741  z = -0.653004 angstrom
           Maximum rank =  0   Radius =  0.325 angstrom
                   Q00  =   0.104001

H          x =  2.307552  y =  1.502741  z = -0.439004 angstrom
           Maximum rank =  0   Radius =  0.325 angstrom
                   Q00  =   0.164644

H          x =  1.710017  y =  2.415861  z =  0.943326 angstrom
           Maximum rank =  0   Radius =  0.325 angstrom
                   Q00  =   0.120866

C          x =  1.351552  y = -3.006259  z = -1.043004 angstrom
           Maximum rank =  0   Radius =  0.650 angstrom
                   Q00  =  -0.071835

O          x =  0.367552  y = -2.005259  z = -1.271004 angstrom
           Maximum rank =  0   Radius =  0.650 angstrom
                   Q00  =  -0.653302

H          x = -0.213448  y = -2.332259  z = -1.974004 angstrom
           Maximum rank =  0   Radius =  0.325 angstrom
                   Q00  =   0.427119

H          x =  1.337552  y = -3.714259  z = -1.870004 angstrom
           Maximum rank =  0   Radius =  0.325 angstrom
                   Q00  =   0.112473

H          x =  2.341602  y = -2.529809  z = -0.990144 angstrom
           Maximum rank =  0   Radius =  0.325 angstrom
                   Q00  =   0.109038

H          x =  1.113390  y = -3.511629  z = -0.095438 angstrom
           Maximum rank =  0   Radius =  0.325 angstrom
                   Q00  =   0.098949

Total multipoles referred to origin at
           x =   0.000000,  y =    0.000000,  z =    0.000000 angstrom
                   Q00  =   1.000000

Finished at 17:3:36 on 27 Apr 2020

  DMA results are available in the Python driver through the
	  variable('DMA DISTRIBUTED MULTIPOLES')
  and
	  variable('DMA TOTAL MULTIPOLES')
  commands.

    Psi4 stopped on: Monday, 27 April 2020 05:03PM
    Psi4 wall time for execution: 0:00:39.35

*** Psi4 exiting successfully. Buy a developer a beer!
