                               Psi4 1.3.2 release

  ==> Input File <==

--------------------------------------------------------------------------
import numpy as np
set {scf_type pk
basis cc-pvdz
d_convergence 10
gdma_switch   0
gdma_limit    0
gdma_origin   [ 0.0,  0.0,  0.0 ]
}
molecule test {
    units Angstrom
    0 1
    --
    0 1
    C                0.229153943176908    -1.249614869376507    -1.083485458129362
    C                1.180153943176908    -1.172614869376507    -2.262485458129362
    S                0.505153943176908    -2.708614869376507    -0.070485458129362
    H                0.513153943176908    -0.404614869376507    -0.472485458129362
    H               -0.814846056823092    -1.178614869376507    -1.396485458129362
    H                2.208153943176908    -1.205614869376507    -1.896485458129362
    H               -0.293846056823092    -2.359614869376507     0.948514541870638
    H                0.982643943176908    -0.244300869376507    -2.818565458129362
    H                0.993783943176908    -2.009440869376506    -2.951675458129362
    C               -0.624846056823092     1.755385130623493     0.767514541870638
    C               -2.036846056823091     2.149385130623493     1.104514541870638
    C               -0.136846056823092     2.702385130623493    -0.349485458129362
    C                0.283153943176908     1.808385130623493     1.991514541870638
    H               -0.704846056823092     0.743385130623493     0.420514541870638
    H               -2.664846056823092     1.931385130623493     0.239514541870638
    H               -2.007846056823091     3.239385130623493     1.163514541870638
    H                0.004153943176908     3.709385130623494     0.041514541870638
    H                0.819153943176908     2.344385130623493    -0.734485458129362
    H               -0.850846056823092     2.731385130623493    -1.170485458129362
    H                0.000153943176908     1.034385130623493     2.705514541870639
    H                1.314153943176908     1.627385130623493     1.685514541870638
    H                0.221153943176908     2.788385130623493     2.465514541870638
    H               -2.574986056823092     1.819051130623493     2.005234541870638

}
e, wfn = energy('scf', return_wfn=True)
gdma(wfn)
dmavals = variable('DMA DISTRIBUTED MULTIPOLES')
charges = np.array(dmavals)
print(charges)
np.save('SSI-087CYS-121LEU-1-dimer.npy', np.array(charges))--------------------------------------------------------------------------

*** tstart() called on ds3
*** at Tue Apr 28 12:09:50 2020

   => Loading Basis Set <=

    Name: CC-PVDZ
    Role: ORBITAL
    Keyword: BASIS
    atoms 1-2, 10-13 entry C          line   138 file /theoryfs2/ds/metcalf/miniconda2/envs/tf2gpu/share/psi4/basis/cc-pvdz.gbs
    atoms 3          entry S          line   598 file /theoryfs2/ds/metcalf/miniconda2/envs/tf2gpu/share/psi4/basis/cc-pvdz.gbs
    atoms 4-9, 14-23 entry H          line    22 file /theoryfs2/ds/metcalf/miniconda2/envs/tf2gpu/share/psi4/basis/cc-pvdz.gbs

         ---------------------------------------------------------
                                   SCF
               by Justin Turney, Rob Parrish, Andy Simmonett
                          and Daniel G. A. Smith
                              RHF Reference
                        1 Threads,    500 MiB Core
         ---------------------------------------------------------

  ==> Geometry <==

    Molecular point group: c1
    Full point group: C1

    Geometry (in Angstrom), charge = 0, multiplicity = 1:

       Center              X                  Y                   Z               Mass
    ------------   -----------------  -----------------  -----------------  -----------------
         C            0.229153943177    -1.249614869377    -1.083485458129    12.000000000000
         C            1.180153943177    -1.172614869377    -2.262485458129    12.000000000000
         S            0.505153943177    -2.708614869377    -0.070485458129    31.972071174400
         H            0.513153943177    -0.404614869377    -0.472485458129     1.007825032230
         H           -0.814846056823    -1.178614869377    -1.396485458129     1.007825032230
         H            2.208153943177    -1.205614869377    -1.896485458129     1.007825032230
         H           -0.293846056823    -2.359614869377     0.948514541871     1.007825032230
         H            0.982643943177    -0.244300869377    -2.818565458129     1.007825032230
         H            0.993783943177    -2.009440869377    -2.951675458129     1.007825032230
         C           -0.624846056823     1.755385130623     0.767514541871    12.000000000000
         C           -2.036846056823     2.149385130623     1.104514541871    12.000000000000
         C           -0.136846056823     2.702385130623    -0.349485458129    12.000000000000
         C            0.283153943177     1.808385130623     1.991514541871    12.000000000000
         H           -0.704846056823     0.743385130623     0.420514541871     1.007825032230
         H           -2.664846056823     1.931385130623     0.239514541871     1.007825032230
         H           -2.007846056823     3.239385130623     1.163514541871     1.007825032230
         H            0.004153943177     3.709385130623     0.041514541871     1.007825032230
         H            0.819153943177     2.344385130623    -0.734485458129     1.007825032230
         H           -0.850846056823     2.731385130623    -1.170485458129     1.007825032230
         H            0.000153943177     1.034385130623     2.705514541871     1.007825032230
         H            1.314153943177     1.627385130623     1.685514541871     1.007825032230
         H            0.221153943177     2.788385130623     2.465514541871     1.007825032230
         H           -2.574986056823     1.819051130623     2.005234541871     1.007825032230

  Running in c1 symmetry.

  Rotational constants: A =      0.08463  B =      0.02337  C =      0.02092 [cm^-1]
  Rotational constants: A =   2537.19927  B =    700.66047  C =    627.14347 [MHz]
  Nuclear repulsion =  370.190773205190567

  Charge       = 0
  Multiplicity = 1
  Electrons    = 68
  Nalpha       = 34
  Nbeta        = 34

  ==> Algorithm <==

  SCF Algorithm Type is PK.
  DIIS enabled.
  MOM disabled.
  Fractional occupation disabled.
  Guess Type is SAD.
  Energy threshold   = 1.00e-06
  Density threshold  = 1.00e-10
  Integral threshold = 0.00e+00

  ==> Primary Basis <==

  Basis Set: CC-PVDZ
    Blend: CC-PVDZ
    Number of shells: 92
    Number of basis function: 182
    Number of Cartesian functions: 189
    Spherical Harmonics?: true
    Max angular momentum: 2

  ==> Pre-Iterations <==

   -------------------------------------------------------
    Irrep   Nso     Nmo     Nalpha   Nbeta   Ndocc  Nsocc
   -------------------------------------------------------
     A        182     182       0       0       0       0
   -------------------------------------------------------
    Total     182     182      34      34      34       0
   -------------------------------------------------------

  ==> Integral Setup <==

  Using integral reordering PK algorithm.
  Sizing the integral batches needed.
  Building batch lookup table.
   Calculation information:
      Number of atoms:                  23
      Number of AO shells:              92
      Number of primitives:            262
      Number of atomic orbitals:       189
      Number of basis functions:       182

      Integral cutoff                 1.00e-12
      Number of threads:                 1

	Batch   1 pq = [       0,    9405] index = [             0,44231715] size =     44231715
	Batch   2 pq = [    9405,   13301] index = [      44231715,88464951] size =     44233236
	Batch   3 pq = [   13301,   16290] index = [      88464951,132690195] size =     44225244
	Batch   4 pq = [   16290,   16653] index = [     132690195,138669531] size =      5979336
  Task number: 13
  Buffer size: 11059200
  Buffer per thread: 2
  We computed 8261954 shell quartets total.
  Whereas there are 9152781 unique shell quartets.

  ==> DiskJK: Disk-Based J/K Matrices <==

    J tasked:                  Yes
    K tasked:                  Yes
    wK tasked:                  No
    Memory [MiB]:              375
    Schwarz Cutoff:          1E-12

    OpenMP threads:              1

  Minimum eigenvalue in the overlap matrix is 4.3000604346E-03.
  Using Symmetric Orthogonalization.

  SCF Guess: Superposition of Atomic Densities via on-the-fly atomic UHF.

  ==> Iterations <==

                        Total Energy        Delta E     RMS |[F,P]|

   @RHF iter SAD:  -633.19060897236398   -6.33191e+02   0.00000e+00
   @RHF iter   1:  -633.82734194085344   -6.36733e-01   3.13989e-03 DIIS
   @RHF iter   2:  -634.02023663224554   -1.92895e-01   1.35061e-03 DIIS
   @RHF iter   3:  -634.05312557806860   -3.28889e-02   3.01139e-04 DIIS
   @RHF iter   4:  -634.05602461613648   -2.89904e-03   6.81963e-05 DIIS
   @RHF iter   5:  -634.05613395290084   -1.09337e-04   1.55772e-05 DIIS
   @RHF iter   6:  -634.05614114588900   -7.19299e-06   3.08778e-06 DIIS
   @RHF iter   7:  -634.05614149291580   -3.47027e-07   7.90479e-07 DIIS
   @RHF iter   8:  -634.05614152044882   -2.75330e-08   2.27222e-07 DIIS
   @RHF iter   9:  -634.05614152249120   -2.04238e-09   7.44151e-08 DIIS
   @RHF iter  10:  -634.05614152272824   -2.37037e-10   2.06481e-08 DIIS
   @RHF iter  11:  -634.05614152275314   -2.48974e-11   6.85111e-09 DIIS
   @RHF iter  12:  -634.05614152275643   -3.29692e-12   2.50708e-09 DIIS
   @RHF iter  13:  -634.05614152275461    1.81899e-12   8.71254e-10 DIIS
   @RHF iter  14:  -634.05614152275496   -3.41061e-13   2.50401e-10 DIIS
   @RHF iter  15:  -634.05614152275677   -1.81899e-12   6.33715e-11 DIIS
  Energy and wave function converged.

  ==> Post-Iterations <==

    Orbital Energies [Eh]
    ---------------------

    Doubly Occupied:

       1A    -91.942341     2A    -11.258535     3A    -11.234906
       4A    -11.226122     5A    -11.222225     6A    -11.218255
       7A    -11.214419     8A     -8.945996     9A     -6.628119
      10A     -6.626675    11A     -6.624284    12A     -1.091863
      13A     -1.076040    14A     -0.945237    15A     -0.935623
      16A     -0.927942    17A     -0.812274    18A     -0.774621
      19A     -0.645613    20A     -0.634575    21A     -0.613270
      22A     -0.599259    23A     -0.588062    24A     -0.543211
      25A     -0.536456    26A     -0.531459    27A     -0.514931
      28A     -0.512916    29A     -0.501266    30A     -0.467344
      31A     -0.464606    32A     -0.458964    33A     -0.437678
      34A     -0.350136

    Virtual:

      35A      0.144232    36A      0.180533    37A      0.192559
      38A      0.201376    39A      0.225583    40A      0.231566
      41A      0.237082    42A      0.246017    43A      0.257331
      44A      0.257616    45A      0.269403    46A      0.279477
      47A      0.286998    48A      0.298708    49A      0.305051
      50A      0.320370    51A      0.329427    52A      0.357939
      53A      0.384585    54A      0.406232    55A      0.418334
      56A      0.515457    57A      0.555851    58A      0.566730
      59A      0.589060    60A      0.594972    61A      0.599657
      62A      0.617476    63A      0.631672    64A      0.651344
      65A      0.675904    66A      0.692081    67A      0.718620
      68A      0.729376    69A      0.752482    70A      0.776049
      71A      0.787829    72A      0.797408    73A      0.810612
      74A      0.835586    75A      0.856768    76A      0.858572
      77A      0.869647    78A      0.873464    79A      0.882395
      80A      0.888444    81A      0.892359    82A      0.899926
      83A      0.902375    84A      0.905463    85A      0.912837
      86A      0.918277    87A      0.924937    88A      0.945003
      89A      0.946880    90A      0.952553    91A      0.964524
      92A      0.970468    93A      0.981291    94A      0.997132
      95A      1.043440    96A      1.074282    97A      1.119191
      98A      1.135762    99A      1.210122   100A      1.227915
     101A      1.246691   102A      1.288536   103A      1.318253
     104A      1.351466   105A      1.379662   106A      1.412187
     107A      1.425382   108A      1.483848   109A      1.525164
     110A      1.571528   111A      1.600540   112A      1.627706
     113A      1.637499   114A      1.666467   115A      1.667406
     116A      1.679279   117A      1.688497   118A      1.698692
     119A      1.715508   120A      1.722587   121A      1.747672
     122A      1.760946   123A      1.825951   124A      1.832807
     125A      1.855411   126A      1.865491   127A      1.874435
     128A      1.885481   129A      1.909250   130A      1.926513
     131A      1.934457   132A      1.943823   133A      1.960313
     134A      1.964900   135A      1.973214   136A      1.989116
     137A      2.003126   138A      2.017255   139A      2.021966
     140A      2.044810   141A      2.065998   142A      2.071954
     143A      2.084976   144A      2.103779   145A      2.123469
     146A      2.141320   147A      2.178496   148A      2.207440
     149A      2.233360   150A      2.267570   151A      2.285773
     152A      2.307149   153A      2.316387   154A      2.325211
     155A      2.344073   156A      2.363949   157A      2.402043
     158A      2.412691   159A      2.466106   160A      2.466809
     161A      2.537613   162A      2.555691   163A      2.583734
     164A      2.619031   165A      2.642378   166A      2.674225
     167A      2.727182   168A      2.748985   169A      2.754921
     170A      2.785172   171A      2.796466   172A      2.802335
     173A      2.809583   174A      2.823731   175A      2.838376
     176A      2.853310   177A      2.875263   178A      2.905515
     179A      2.966951   180A      3.014020   181A      3.042176
     182A      3.174228

    Final Occupation by Irrep:
              A
    DOCC [    34 ]

  @RHF Final Energy:  -634.05614152275677

   => Energetics <=

    Nuclear Repulsion Energy =            370.1907732051905668
    One-Electron Energy =               -1602.2833793729782883
    Two-Electron Energy =                 598.0364646450310602
    Total Energy =                       -634.0561415227567750

Computation Completed

Properties will be evaluated at   0.000000,   0.000000,   0.000000 [a0]

Properties computed using the SCF density matrix

  Nuclear Dipole Moment: [e a0]
     X:    -2.6637      Y:    13.5840      Z:     0.2181

  Electronic Dipole Moment: [e a0]
     X:     2.4091      Y:   -12.9686      Z:    -0.3346

  Dipole Moment: [e a0]
     X:    -0.2545      Y:     0.6154      Z:    -0.1164     Total:     0.6761

  Dipole Moment: [D]
     X:    -0.6470      Y:     1.5642      Z:    -0.2960     Total:     1.7184

*** tstop() called on ds3 at Tue Apr 28 12:11:05 2020
Module time:
	user time   =      57.99 seconds =       0.97 minutes
	system time =      21.10 seconds =       0.35 minutes
	total time  =         75 seconds =       1.25 minutes
Total time:
	user time   =      57.99 seconds =       0.97 minutes
	system time =      21.10 seconds =       0.35 minutes
	total time  =         75 seconds =       1.25 minutes
                                     G D M A

                                 by Anthony Stone

                           version 2.2.06, 22 June 2011

               Distributed Multipoles from Gaussian wavefunctions

Starting at 12:11:5 on 28 Apr 2020

Using SCF density matrix from file ./SSI/SSI-087CYS-121LEU-1-dimer.test.8709.fchk

                         Distributed Multipole Analysis

Standard DMA

Positions and radii in angstrom
Multipole moments in atomic units, ea_0^k for rank k

C          x =  0.229154  y = -1.249615  z = -1.083485 angstrom
           Maximum rank =  0   Radius =  0.650 angstrom
                   Q00  =  -0.168349

C          x =  1.180154  y = -1.172615  z = -2.262485 angstrom
           Maximum rank =  0   Radius =  0.650 angstrom
                   Q00  =  -0.217040

S          x =  0.505154  y = -2.708615  z = -0.070485 angstrom
           Maximum rank =  0   Radius =  0.650 angstrom
                   Q00  =  -0.111306

H          x =  0.513154  y = -0.404615  z = -0.472485 angstrom
           Maximum rank =  0   Radius =  0.325 angstrom
                   Q00  =   0.054679

H          x = -0.814846  y = -1.178615  z = -1.396485 angstrom
           Maximum rank =  0   Radius =  0.325 angstrom
                   Q00  =   0.071502

H          x =  2.208154  y = -1.205615  z = -1.896485 angstrom
           Maximum rank =  0   Radius =  0.325 angstrom
                   Q00  =   0.091285

H          x = -0.293846  y = -2.359615  z =  0.948515 angstrom
           Maximum rank =  0   Radius =  0.325 angstrom
                   Q00  =   0.110396

H          x =  0.982644  y = -0.244301  z = -2.818565 angstrom
           Maximum rank =  0   Radius =  0.325 angstrom
                   Q00  =   0.093349

H          x =  0.993784  y = -2.009441  z = -2.951675 angstrom
           Maximum rank =  0   Radius =  0.325 angstrom
                   Q00  =   0.083357

C          x = -0.624846  y =  1.755385  z =  0.767515 angstrom
           Maximum rank =  0   Radius =  0.650 angstrom
                   Q00  =   0.021732

C          x = -2.036846  y =  2.149385  z =  1.104515 angstrom
           Maximum rank =  0   Radius =  0.650 angstrom
                   Q00  =  -0.254727

C          x = -0.136846  y =  2.702385  z = -0.349485 angstrom
           Maximum rank =  0   Radius =  0.650 angstrom
                   Q00  =  -0.248289

C          x =  0.283154  y =  1.808385  z =  1.991515 angstrom
           Maximum rank =  0   Radius =  0.650 angstrom
                   Q00  =  -0.237615

H          x = -0.704846  y =  0.743385  z =  0.420515 angstrom
           Maximum rank =  0   Radius =  0.325 angstrom
                   Q00  =   0.001669

H          x = -2.664846  y =  1.931385  z =  0.239515 angstrom
           Maximum rank =  0   Radius =  0.325 angstrom
                   Q00  =   0.072928

H          x = -2.007846  y =  3.239385  z =  1.163515 angstrom
           Maximum rank =  0   Radius =  0.325 angstrom
                   Q00  =   0.058165

H          x =  0.004154  y =  3.709385  z =  0.041515 angstrom
           Maximum rank =  0   Radius =  0.325 angstrom
                   Q00  =   0.085847

H          x =  0.819154  y =  2.344385  z = -0.734485 angstrom
           Maximum rank =  0   Radius =  0.325 angstrom
                   Q00  =   0.080748

H          x = -0.850846  y =  2.731385  z = -1.170485 angstrom
           Maximum rank =  0   Radius =  0.325 angstrom
                   Q00  =   0.083332

H          x =  0.000154  y =  1.034385  z =  2.705515 angstrom
           Maximum rank =  0   Radius =  0.325 angstrom
                   Q00  =   0.084991

H          x =  1.314154  y =  1.627385  z =  1.685515 angstrom
           Maximum rank =  0   Radius =  0.325 angstrom
                   Q00  =   0.077810

H          x =  0.221154  y =  2.788385  z =  2.465515 angstrom
           Maximum rank =  0   Radius =  0.325 angstrom
                   Q00  =   0.079761

H          x = -2.574986  y =  1.819051  z =  2.005235 angstrom
           Maximum rank =  0   Radius =  0.325 angstrom
                   Q00  =   0.085773

Total multipoles referred to origin at
           x =   0.000000,  y =    0.000000,  z =    0.000000 angstrom
                   Q00  =   0.000000

Finished at 12:11:5 on 28 Apr 2020

  DMA results are available in the Python driver through the
	  variable('DMA DISTRIBUTED MULTIPOLES')
  and
	  variable('DMA TOTAL MULTIPOLES')
  commands.

    Psi4 stopped on: Tuesday, 28 April 2020 12:11PM
    Psi4 wall time for execution: 0:01:15.58

*** Psi4 exiting successfully. Buy a developer a beer!
