                               Psi4 1.3.2 release

  ==> Input File <==

--------------------------------------------------------------------------
import numpy as np
set {scf_type pk
basis cc-pvdz
d_convergence 10
gdma_switch   0
gdma_limit    0
gdma_origin   [ 0.0,  0.0,  0.0 ]
}
molecule test {
    units Angstrom
    1 1
    --
    1 1
    C               -1.338920718314071    -2.138681806759520    -0.717038862000203
    C                0.065079281685929    -0.822681806759520     0.849961137999797
    N               -1.118920718314071    -1.235681806759520     0.420961137999797
    N                1.174079281685929    -1.231681806759521     0.262961137999797
    N                0.135079281685929     0.026318193240480     1.854961137999797
    H               -1.924920718314071    -0.848681806759520     0.908961137999797
    H                1.130079281685929    -1.912681806759521    -0.477038862000203
    H                2.072079281685929    -0.931681806759520     0.606961137999797
    H               -0.752920718314071     0.333318193240480     2.252961137999797
    H                1.016079281685929     0.317318193240479     2.242961137999797
    H               -2.330920718314071    -2.586681806759521    -0.617038862000203
    H               -0.609920718314071    -2.952681806759520    -0.717038862000203
    H               -1.300150718314071    -1.591571806759520    -1.670538862000203
    C                0.756079281685929     2.267318193240480    -0.718038862000203
    C                0.268079281685929     3.055318193240479    -1.928038862000203
    H                1.569079281685929     2.791318193240480    -0.215038862000203
    H               -0.064920718314071     2.165318193240480    -0.005038862000203
    H                1.087079281685929     1.274318193240479    -1.027038862000203
    H                0.096079281685929     4.078318193240480    -1.613038862000203
    H                1.025549281685929     3.022291193240480    -2.724998862000203
    H               -0.682570718314071     2.643250193240479    -2.297458862000203

}
e, wfn = energy('scf', return_wfn=True)
gdma(wfn)
dmavals = variable('DMA DISTRIBUTED MULTIPOLES')
charges = np.array(dmavals)
print(charges)
np.save('SSI-101ARG-142LEU-1-dimer.npy', np.array(charges))--------------------------------------------------------------------------

*** tstart() called on ds3
*** at Tue Apr 28 13:07:41 2020

   => Loading Basis Set <=

    Name: CC-PVDZ
    Role: ORBITAL
    Keyword: BASIS
    atoms 1-2, 14-15  entry C          line   138 file /theoryfs2/ds/metcalf/miniconda2/envs/tf2gpu/share/psi4/basis/cc-pvdz.gbs
    atoms 3-5         entry N          line   168 file /theoryfs2/ds/metcalf/miniconda2/envs/tf2gpu/share/psi4/basis/cc-pvdz.gbs
    atoms 6-13, 16-21 entry H          line    22 file /theoryfs2/ds/metcalf/miniconda2/envs/tf2gpu/share/psi4/basis/cc-pvdz.gbs

         ---------------------------------------------------------
                                   SCF
               by Justin Turney, Rob Parrish, Andy Simmonett
                          and Daniel G. A. Smith
                              RHF Reference
                        1 Threads,    500 MiB Core
         ---------------------------------------------------------

  ==> Geometry <==

    Molecular point group: c1
    Full point group: C1

    Geometry (in Angstrom), charge = 1, multiplicity = 1:

       Center              X                  Y                   Z               Mass
    ------------   -----------------  -----------------  -----------------  -----------------
         C           -1.338920718314    -2.138681806760    -0.717038862000    12.000000000000
         C            0.065079281686    -0.822681806760     0.849961138000    12.000000000000
         N           -1.118920718314    -1.235681806760     0.420961138000    14.003074004430
         N            1.174079281686    -1.231681806760     0.262961138000    14.003074004430
         N            0.135079281686     0.026318193240     1.854961138000    14.003074004430
         H           -1.924920718314    -0.848681806760     0.908961138000     1.007825032230
         H            1.130079281686    -1.912681806760    -0.477038862000     1.007825032230
         H            2.072079281686    -0.931681806760     0.606961138000     1.007825032230
         H           -0.752920718314     0.333318193240     2.252961138000     1.007825032230
         H            1.016079281686     0.317318193240     2.242961138000     1.007825032230
         H           -2.330920718314    -2.586681806760    -0.617038862000     1.007825032230
         H           -0.609920718314    -2.952681806760    -0.717038862000     1.007825032230
         H           -1.300150718314    -1.591571806760    -1.670538862000     1.007825032230
         C            0.756079281686     2.267318193240    -0.718038862000    12.000000000000
         C            0.268079281686     3.055318193240    -1.928038862000    12.000000000000
         H            1.569079281686     2.791318193240    -0.215038862000     1.007825032230
         H           -0.064920718314     2.165318193240    -0.005038862000     1.007825032230
         H            1.087079281686     1.274318193240    -1.027038862000     1.007825032230
         H            0.096079281686     4.078318193240    -1.613038862000     1.007825032230
         H            1.025549281686     3.022291193240    -2.724998862000     1.007825032230
         H           -0.682570718314     2.643250193240    -2.297458862000     1.007825032230

  Running in c1 symmetry.

  Rotational constants: A =      0.09517  B =      0.03616  C =      0.03148 [cm^-1]
  Rotational constants: A =   2853.07729  B =   1084.11405  C =    943.75293 [MHz]
  Nuclear repulsion =  324.633110110861367

  Charge       = 1
  Multiplicity = 1
  Electrons    = 58
  Nalpha       = 29
  Nbeta        = 29

  ==> Algorithm <==

  SCF Algorithm Type is PK.
  DIIS enabled.
  MOM disabled.
  Fractional occupation disabled.
  Guess Type is SAD.
  Energy threshold   = 1.00e-06
  Density threshold  = 1.00e-10
  Integral threshold = 0.00e+00

  ==> Primary Basis <==

  Basis Set: CC-PVDZ
    Blend: CC-PVDZ
    Number of shells: 84
    Number of basis function: 168
    Number of Cartesian functions: 175
    Spherical Harmonics?: true
    Max angular momentum: 2

  ==> Pre-Iterations <==

   -------------------------------------------------------
    Irrep   Nso     Nmo     Nalpha   Nbeta   Ndocc  Nsocc
   -------------------------------------------------------
     A        168     168       0       0       0       0
   -------------------------------------------------------
    Total     168     168      29      29      29       0
   -------------------------------------------------------

  ==> Integral Setup <==

  Using integral reordering PK algorithm.
  Sizing the integral batches needed.
  Building batch lookup table.
   Calculation information:
      Number of atoms:                  21
      Number of AO shells:              84
      Number of primitives:            224
      Number of atomic orbitals:       175
      Number of basis functions:       168

      Integral cutoff                 1.00e-12
      Number of threads:                 1

	Batch   1 pq = [       0,    9405] index = [             0,44231715] size =     44231715
	Batch   2 pq = [    9405,   13301] index = [      44231715,88464951] size =     44233236
	Batch   3 pq = [   13301,   14196] index = [      88464951,100770306] size =     12305355
  Task number: 10
  Buffer size: 11059200
  Buffer per thread: 2
  We computed 5792317 shell quartets total.
  Whereas there are 6374235 unique shell quartets.

  ==> DiskJK: Disk-Based J/K Matrices <==

    J tasked:                  Yes
    K tasked:                  Yes
    wK tasked:                  No
    Memory [MiB]:              375
    Schwarz Cutoff:          1E-12

    OpenMP threads:              1

  Minimum eigenvalue in the overlap matrix is 3.5223052266E-03.
  Using Symmetric Orthogonalization.

  SCF Guess: Superposition of Atomic Densities via on-the-fly atomic UHF.

  ==> Iterations <==

                        Total Energy        Delta E     RMS |[F,P]|

   @RHF iter SAD:  -322.12315296785937   -3.22123e+02   0.00000e+00
   @RHF iter   1:  -322.61452681351932   -4.91374e-01   3.42388e-03 DIIS
   @RHF iter   2:  -322.78708768093225   -1.72561e-01   1.34887e-03 DIIS
   @RHF iter   3:  -322.81257444785911   -2.54868e-02   3.19544e-04 DIIS
   @RHF iter   4:  -322.81498739831835   -2.41295e-03   5.03606e-05 DIIS
   @RHF iter   5:  -322.81505055512281   -6.31568e-05   2.08402e-05 DIIS
   @RHF iter   6:  -322.81505938079829   -8.82568e-06   4.14946e-06 DIIS
   @RHF iter   7:  -322.81505999224100   -6.11443e-07   1.30898e-06 DIIS
   @RHF iter   8:  -322.81506003225024   -4.00092e-08   3.91041e-07 DIIS
   @RHF iter   9:  -322.81506003591437   -3.66413e-09   8.93009e-08 DIIS
   @RHF iter  10:  -322.81506003612537   -2.11003e-10   2.63395e-08 DIIS
   @RHF iter  11:  -322.81506003613998   -1.46088e-11   6.37098e-09 DIIS
   @RHF iter  12:  -322.81506003614169   -1.70530e-12   1.79339e-09 DIIS
   @RHF iter  13:  -322.81506003614260   -9.09495e-13   5.72143e-10 DIIS
   @RHF iter  14:  -322.81506003614459   -1.98952e-12   2.12143e-10 DIIS
   @RHF iter  15:  -322.81506003614305    1.53477e-12   6.10724e-11 DIIS
  Energy and wave function converged.

  ==> Post-Iterations <==

    Orbital Energies [Eh]
    ---------------------

    Doubly Occupied:

       1A    -15.788531     2A    -15.788189     3A    -15.787866
       4A    -11.588391     5A    -11.444990     6A    -11.331571
       7A    -11.317609     8A     -1.546387     9A     -1.401538
      10A     -1.392309    11A     -1.142701    12A     -1.127637
      13A     -1.037387    14A     -0.975285    15A     -0.944581
      16A     -0.943507    17A     -0.859957    18A     -0.854332
      19A     -0.825252    20A     -0.796821    21A     -0.745892
      22A     -0.724567    23A     -0.710185    24A     -0.704409
      25A     -0.620331    26A     -0.608245    27A     -0.592386
      28A     -0.590294    29A     -0.584345

    Virtual:

      30A     -0.014318    31A      0.021908    32A      0.025406
      33A      0.030029    34A      0.062129    35A      0.073315
      36A      0.086304    37A      0.117225    38A      0.122915
      39A      0.130328    40A      0.144899    41A      0.153672
      42A      0.164953    43A      0.189662    44A      0.192486
      45A      0.198871    46A      0.275300    47A      0.283859
      48A      0.331522    49A      0.345441    50A      0.432300
      51A      0.447792    52A      0.480869    53A      0.491149
      54A      0.496569    55A      0.516538    56A      0.519958
      57A      0.532009    58A      0.537863    59A      0.557888
      60A      0.570348    61A      0.590669    62A      0.660891
      63A      0.683319    64A      0.696390    65A      0.706301
      66A      0.717755    67A      0.739891    68A      0.743530
      69A      0.758657    70A      0.767951    71A      0.775395
      72A      0.788849    73A      0.798619    74A      0.803128
      75A      0.814991    76A      0.850880    77A      0.855046
      78A      0.878414    79A      0.900227    80A      0.920367
      81A      0.940509    82A      0.944754    83A      0.984764
      84A      1.011977    85A      1.042075    86A      1.058473
      87A      1.107837    88A      1.120652    89A      1.128448
      90A      1.176782    91A      1.200876    92A      1.212161
      93A      1.228085    94A      1.285415    95A      1.371197
      96A      1.377933    97A      1.400006    98A      1.442608
      99A      1.483329   100A      1.507027   101A      1.520753
     102A      1.547012   103A      1.573385   104A      1.588653
     105A      1.598150   106A      1.612573   107A      1.651108
     108A      1.687758   109A      1.723793   110A      1.734842
     111A      1.736450   112A      1.750919   113A      1.757717
     114A      1.779802   115A      1.800874   116A      1.811153
     117A      1.816941   118A      1.817187   119A      1.837286
     120A      1.842058   121A      1.844498   122A      1.859233
     123A      1.870362   124A      1.885133   125A      1.894665
     126A      1.995525   127A      2.004401   128A      2.015264
     129A      2.026339   130A      2.054231   131A      2.127160
     132A      2.143562   133A      2.163240   134A      2.191406
     135A      2.208504   136A      2.235630   137A      2.266532
     138A      2.272831   139A      2.314016   140A      2.337553
     141A      2.343822   142A      2.354226   143A      2.375342
     144A      2.438297   145A      2.448253   146A      2.459355
     147A      2.478513   148A      2.527875   149A      2.582781
     150A      2.598504   151A      2.627015   152A      2.662133
     153A      2.678661   154A      2.716106   155A      2.737006
     156A      2.752393   157A      2.756091   158A      2.793038
     159A      2.805848   160A      2.826814   161A      2.857344
     162A      2.859224   163A      2.875323   164A      3.066935
     165A      3.115105   166A      3.128036   167A      3.548124
     168A      3.644332

    Final Occupation by Irrep:
              A
    DOCC [    29 ]

  @RHF Final Energy:  -322.81506003614305

   => Energetics <=

    Nuclear Repulsion Energy =            324.6331101108613666
    One-Electron Energy =               -1069.3453468103325577
    Two-Electron Energy =                 421.8971766633281391
    Total Energy =                       -322.8150600361430520

Computation Completed

Properties will be evaluated at   0.000000,   0.000000,   0.000000 [a0]

Properties computed using the SCF density matrix

  Nuclear Dipole Moment: [e a0]
     X:     0.3085      Y:     5.4458      Z:    -5.0251

  Electronic Dipole Moment: [e a0]
     X:    -0.3935      Y:    -7.0500      Z:     6.3196

  Dipole Moment: [e a0]
     X:    -0.0849      Y:    -1.6042      Z:     1.2945     Total:     2.0631

  Dipole Moment: [D]
     X:    -0.2159      Y:    -4.0775      Z:     3.2902     Total:     5.2439

*** tstop() called on ds3 at Tue Apr 28 13:09:23 2020
Module time:
	user time   =      35.51 seconds =       0.59 minutes
	system time =      12.84 seconds =       0.21 minutes
	total time  =        102 seconds =       1.70 minutes
Total time:
	user time   =      35.51 seconds =       0.59 minutes
	system time =      12.84 seconds =       0.21 minutes
	total time  =        102 seconds =       1.70 minutes
                                     G D M A

                                 by Anthony Stone

                           version 2.2.06, 22 June 2011

               Distributed Multipoles from Gaussian wavefunctions

Starting at 13:9:23 on 28 Apr 2020

Using SCF density matrix from file ./SSI/SSI-101ARG-142LEU-1-dimer.test.15738.fchk

                         Distributed Multipole Analysis

Standard DMA

Positions and radii in angstrom
Multipole moments in atomic units, ea_0^k for rank k

C          x = -1.338921  y = -2.138682  z = -0.717039 angstrom
           Maximum rank =  0   Radius =  0.650 angstrom
                   Q00  =  -0.127855

C          x =  0.065079  y = -0.822682  z =  0.849961 angstrom
           Maximum rank =  0   Radius =  0.650 angstrom
                   Q00  =   1.070354

N          x = -1.118921  y = -1.235682  z =  0.420961 angstrom
           Maximum rank =  0   Radius =  0.650 angstrom
                   Q00  =  -0.496427

N          x =  1.174079  y = -1.231682  z =  0.262961 angstrom
           Maximum rank =  0   Radius =  0.650 angstrom
                   Q00  =  -0.577670

N          x =  0.135079  y =  0.026318  z =  1.854961 angstrom
           Maximum rank =  0   Radius =  0.650 angstrom
                   Q00  =  -0.583653

H          x = -1.924921  y = -0.848682  z =  0.908961 angstrom
           Maximum rank =  0   Radius =  0.325 angstrom
                   Q00  =   0.233650

H          x =  1.130079  y = -1.912682  z = -0.477039 angstrom
           Maximum rank =  0   Radius =  0.325 angstrom
                   Q00  =   0.270318

H          x =  2.072079  y = -0.931682  z =  0.606961 angstrom
           Maximum rank =  0   Radius =  0.325 angstrom
                   Q00  =   0.268686

H          x = -0.752921  y =  0.333318  z =  2.252961 angstrom
           Maximum rank =  0   Radius =  0.325 angstrom
                   Q00  =   0.263789

H          x =  1.016079  y =  0.317318  z =  2.242961 angstrom
           Maximum rank =  0   Radius =  0.325 angstrom
                   Q00  =   0.276447

H          x = -2.330921  y = -2.586682  z = -0.617039 angstrom
           Maximum rank =  0   Radius =  0.325 angstrom
                   Q00  =   0.162505

H          x = -0.609921  y = -2.952682  z = -0.717039 angstrom
           Maximum rank =  0   Radius =  0.325 angstrom
                   Q00  =   0.115265

H          x = -1.300151  y = -1.591572  z = -1.670539 angstrom
           Maximum rank =  0   Radius =  0.325 angstrom
                   Q00  =   0.129300

C          x =  0.756079  y =  2.267318  z = -0.718039 angstrom
           Maximum rank =  0   Radius =  0.650 angstrom
                   Q00  =  -0.263982

C          x =  0.268079  y =  3.055318  z = -1.928039 angstrom
           Maximum rank =  0   Radius =  0.650 angstrom
                   Q00  =  -0.213900

H          x =  1.569079  y =  2.791318  z = -0.215039 angstrom
           Maximum rank =  0   Radius =  0.325 angstrom
                   Q00  =   0.096609

H          x = -0.064921  y =  2.165318  z = -0.005039 angstrom
           Maximum rank =  0   Radius =  0.325 angstrom
                   Q00  =   0.054599

H          x =  1.087079  y =  1.274318  z = -1.027039 angstrom
           Maximum rank =  0   Radius =  0.325 angstrom
                   Q00  =   0.054069

H          x =  0.096079  y =  4.078318  z = -1.613039 angstrom
           Maximum rank =  0   Radius =  0.325 angstrom
                   Q00  =   0.098049

H          x =  1.025549  y =  3.022291  z = -2.724999 angstrom
           Maximum rank =  0   Radius =  0.325 angstrom
                   Q00  =   0.093861

H          x = -0.682571  y =  2.643250  z = -2.297459 angstrom
           Maximum rank =  0   Radius =  0.325 angstrom
                   Q00  =   0.075985

Total multipoles referred to origin at
           x =   0.000000,  y =    0.000000,  z =    0.000000 angstrom
                   Q00  =   1.000000

Finished at 13:9:23 on 28 Apr 2020

  DMA results are available in the Python driver through the
	  variable('DMA DISTRIBUTED MULTIPOLES')
  and
	  variable('DMA TOTAL MULTIPOLES')
  commands.

    Psi4 stopped on: Tuesday, 28 April 2020 01:09PM
    Psi4 wall time for execution: 0:01:42.23

*** Psi4 exiting successfully. Buy a developer a beer!
