                               Psi4 1.3.2 release

  ==> Input File <==

--------------------------------------------------------------------------
import numpy as np
set {scf_type pk
basis cc-pvdz
d_convergence 10
gdma_switch   0
gdma_limit    0
gdma_origin   [ 0.0,  0.0,  0.0 ]
}
molecule test {
    units Angstrom
    0 1
    --
    0 1
    C               -0.833272835106561    -1.954603819604472    -1.996950970824455
    C               -1.078272835106560     0.446396180395528    -1.291950970824455
    C               -1.309272835106561    -0.906603819604472    -1.021950970824455
    C               -1.514272835106561     1.429396180395528    -0.421950970824455
    C               -2.008272835106561    -1.255603819604472     0.133049029175545
    C               -2.237272835106561     1.045396180395528     0.694049029175545
    C               -2.468272835106561    -0.268603819604472     1.008049029175545
    H               -0.543272835106561     0.736396180395528    -2.186950970824455
    H               -1.337272835106561     2.474396180395528    -0.635950970824455
    H               -0.259272835106561    -2.703603819604472    -1.447950970824455
    H               -0.173272835106561    -1.502603819604472    -2.737950970824455
    H               -2.197272835106561    -2.297603819604471     0.358049029175545
    H               -2.621272835106561     1.810396180395528     1.354049029175545
    H               -3.015272835106561    -0.535603819604472     1.901049029175545
    H               -1.677199835106561    -2.446655819604472    -2.502591970824455
    C                2.354727164893439     0.589396180395528     0.490049029175545
    C                2.878727164893439    -0.570603819604472    -0.357950970824455
    C                1.530727164893439     0.059396180395528     1.660049029175545
    C                3.504727164893439     1.466396180395528     0.990049029175545
    H                1.693727164893439     1.205396180395528    -0.117950970824455
    H                1.989727164893439    -1.088603819604472    -0.718950970824455
    H                2.150727164893440    -0.536603819604472     2.330049029175545
    H                1.118727164893439     0.894396180395528     2.223049029175545
    H                0.704727164893439    -0.537603819604472     1.272049029175545
    H                4.053727164893439     1.883396180395528     0.151049029175545
    H                3.089727164893439     2.293396180395528     1.567049029175545
    H                4.181727164893439     0.899396180395528     1.630049029175545
    H                3.505367164893439    -1.274357819604472     0.209545029175545
    H                3.385997164893439    -0.230737819604472    -1.272917970824455

}
e, wfn = energy('scf', return_wfn=True)
gdma(wfn)
dmavals = variable('DMA DISTRIBUTED MULTIPOLES')
charges = np.array(dmavals)
print(charges)
np.save('SSI-044PHE-130VAL-1-dimer.npy', np.array(charges))--------------------------------------------------------------------------

*** tstart() called on ds3
*** at Mon Apr 27 22:59:40 2020

   => Loading Basis Set <=

    Name: CC-PVDZ
    Role: ORBITAL
    Keyword: BASIS
    atoms 1-7, 16-19  entry C          line   138 file /theoryfs2/ds/metcalf/miniconda2/envs/tf2gpu/share/psi4/basis/cc-pvdz.gbs
    atoms 8-15, 20-29 entry H          line    22 file /theoryfs2/ds/metcalf/miniconda2/envs/tf2gpu/share/psi4/basis/cc-pvdz.gbs

         ---------------------------------------------------------
                                   SCF
               by Justin Turney, Rob Parrish, Andy Simmonett
                          and Daniel G. A. Smith
                              RHF Reference
                        1 Threads,    500 MiB Core
         ---------------------------------------------------------

  ==> Geometry <==

    Molecular point group: c1
    Full point group: C1

    Geometry (in Angstrom), charge = 0, multiplicity = 1:

       Center              X                  Y                   Z               Mass
    ------------   -----------------  -----------------  -----------------  -----------------
         C           -0.833272835107    -1.954603819604    -1.996950970824    12.000000000000
         C           -1.078272835107     0.446396180396    -1.291950970824    12.000000000000
         C           -1.309272835107    -0.906603819604    -1.021950970824    12.000000000000
         C           -1.514272835107     1.429396180396    -0.421950970824    12.000000000000
         C           -2.008272835107    -1.255603819604     0.133049029176    12.000000000000
         C           -2.237272835107     1.045396180396     0.694049029176    12.000000000000
         C           -2.468272835107    -0.268603819604     1.008049029176    12.000000000000
         H           -0.543272835107     0.736396180396    -2.186950970824     1.007825032230
         H           -1.337272835107     2.474396180396    -0.635950970824     1.007825032230
         H           -0.259272835107    -2.703603819604    -1.447950970824     1.007825032230
         H           -0.173272835107    -1.502603819604    -2.737950970824     1.007825032230
         H           -2.197272835107    -2.297603819604     0.358049029176     1.007825032230
         H           -2.621272835107     1.810396180396     1.354049029176     1.007825032230
         H           -3.015272835107    -0.535603819604     1.901049029176     1.007825032230
         H           -1.677199835107    -2.446655819604    -2.502591970824     1.007825032230
         C            2.354727164893     0.589396180396     0.490049029176    12.000000000000
         C            2.878727164893    -0.570603819604    -0.357950970824    12.000000000000
         C            1.530727164893     0.059396180396     1.660049029176    12.000000000000
         C            3.504727164893     1.466396180396     0.990049029176    12.000000000000
         H            1.693727164893     1.205396180396    -0.117950970824     1.007825032230
         H            1.989727164893    -1.088603819604    -0.718950970824     1.007825032230
         H            2.150727164893    -0.536603819604     2.330049029176     1.007825032230
         H            1.118727164893     0.894396180396     2.223049029176     1.007825032230
         H            0.704727164893    -0.537603819604     1.272049029176     1.007825032230
         H            4.053727164893     1.883396180396     0.151049029176     1.007825032230
         H            3.089727164893     2.293396180396     1.567049029176     1.007825032230
         H            4.181727164893     0.899396180396     1.630049029176     1.007825032230
         H            3.505367164893    -1.274357819604     0.209545029176     1.007825032230
         H            3.385997164893    -0.230737819604    -1.272917970824     1.007825032230

  Running in c1 symmetry.

  Rotational constants: A =      0.04743  B =      0.01997  C =      0.01709 [cm^-1]
  Rotational constants: A =   1421.82195  B =    598.70908  C =    512.39491 [MHz]
  Nuclear repulsion =  594.469404364708907

  Charge       = 0
  Multiplicity = 1
  Electrons    = 84
  Nalpha       = 42
  Nbeta        = 42

  ==> Algorithm <==

  SCF Algorithm Type is PK.
  DIIS enabled.
  MOM disabled.
  Fractional occupation disabled.
  Guess Type is SAD.
  Energy threshold   = 1.00e-06
  Density threshold  = 1.00e-10
  Integral threshold = 0.00e+00

  ==> Primary Basis <==

  Basis Set: CC-PVDZ
    Blend: CC-PVDZ
    Number of shells: 120
    Number of basis function: 244
    Number of Cartesian functions: 255
    Spherical Harmonics?: true
    Max angular momentum: 2

  ==> Pre-Iterations <==

   -------------------------------------------------------
    Irrep   Nso     Nmo     Nalpha   Nbeta   Ndocc  Nsocc
   -------------------------------------------------------
     A        244     244       0       0       0       0
   -------------------------------------------------------
    Total     244     244      42      42      42       0
   -------------------------------------------------------

  ==> Integral Setup <==

  Using integral reordering PK algorithm.
  Sizing the integral batches needed.
  Building batch lookup table.
   Calculation information:
      Number of atoms:                  29
      Number of AO shells:             120
      Number of primitives:            332
      Number of atomic orbitals:       255
      Number of basis functions:       244

      Integral cutoff                 1.00e-12
      Number of threads:                 1

	Batch   1 pq = [       0,    9405] index = [             0,44231715] size =     44231715
	Batch   2 pq = [    9405,   13301] index = [      44231715,88464951] size =     44233236
	Batch   3 pq = [   13301,   16290] index = [      88464951,132690195] size =     44225244
	Batch   4 pq = [   16290,   18810] index = [     132690195,176917455] size =     44227260
	Batch   5 pq = [   18810,   21030] index = [     176917455,221140965] size =     44223510
	Batch   6 pq = [   21030,   23037] index = [     221140965,265363203] size =     44222238
	Batch   7 pq = [   23037,   24883] index = [     265363203,309594286] size =     44231083
	Batch   8 pq = [   24883,   26601] index = [     309594286,353819901] size =     44225615
	Batch   9 pq = [   26601,   28214] index = [     353819901,398029005] size =     44209104
	Batch  10 pq = [   28214,   29740] index = [     398029005,442248670] size =     44219665
	Batch  11 pq = [   29740,   29890] index = [     442248670,446720995] size =      4472325
  Task number: 41
  Buffer size: 11059200
  Buffer per thread: 2
  We computed 28731641 shell quartets total.
  Whereas there are 26357430 unique shell quartets.
     9.01 percent of shell quartets recomputed by reordering.

  ==> DiskJK: Disk-Based J/K Matrices <==

    J tasked:                  Yes
    K tasked:                  Yes
    wK tasked:                  No
    Memory [MiB]:              375
    Schwarz Cutoff:          1E-12

    OpenMP threads:              1

  Minimum eigenvalue in the overlap matrix is 3.0624363278E-04.
  Using Symmetric Orthogonalization.

  SCF Guess: Superposition of Atomic Densities via on-the-fly atomic UHF.

  ==> Iterations <==

                        Total Energy        Delta E     RMS |[F,P]|

   @RHF iter SAD:  -425.99069347206535   -4.25991e+02   0.00000e+00
   @RHF iter   1:  -426.76948810878389   -7.78795e-01   2.67057e-03 DIIS
   @RHF iter   2:  -427.02046177076647   -2.50974e-01   1.14369e-03 DIIS
   @RHF iter   3:  -427.06234236502786   -4.18806e-02   2.47670e-04 DIIS
   @RHF iter   4:  -427.06567756536998   -3.33520e-03   5.85986e-05 DIIS
   @RHF iter   5:  -427.06581011544881   -1.32550e-04   1.33450e-05 DIIS
   @RHF iter   6:  -427.06581790927351   -7.79382e-06   4.12592e-06 DIIS
   @RHF iter   7:  -427.06581863530209   -7.26029e-07   1.28312e-06 DIIS
   @RHF iter   8:  -427.06581872606068   -9.07586e-08   3.68061e-07 DIIS
   @RHF iter   9:  -427.06581874358523   -1.75245e-08   1.80316e-07 DIIS
   @RHF iter  10:  -427.06581874831318   -4.72795e-09   8.42008e-08 DIIS
   @RHF iter  11:  -427.06581874948751   -1.17433e-09   3.30473e-08 DIIS
   @RHF iter  12:  -427.06581874965116   -1.63652e-10   1.28098e-08 DIIS
   @RHF iter  13:  -427.06581874966270   -1.15392e-11   3.63355e-09 DIIS
   @RHF iter  14:  -427.06581874966253    1.70530e-13   1.03960e-09 DIIS
   @RHF iter  15:  -427.06581874966406   -1.53477e-12   2.84247e-10 DIIS
   @RHF iter  16:  -427.06581874966139    2.67164e-12   9.72452e-11 DIIS
  Energy and wave function converged.

  ==> Post-Iterations <==

    Orbital Energies [Eh]
    ---------------------

    Doubly Occupied:

       1A    -11.242510     2A    -11.235476     3A    -11.235148
       4A    -11.233329     5A    -11.232088     6A    -11.231027
       7A    -11.228876     8A    -11.214830     9A    -11.209656
      10A    -11.206109    11A    -11.201299    12A     -1.157278
      13A     -1.074169    14A     -1.046954    15A     -1.015972
      16A     -0.932189    17A     -0.921407    18A     -0.916386
      19A     -0.828097    20A     -0.796778    21A     -0.755413
      22A     -0.693130    23A     -0.634488    24A     -0.631570
      25A     -0.624717    26A     -0.588065    27A     -0.584915
      28A     -0.579075    29A     -0.573609    30A     -0.559555
      31A     -0.538134    32A     -0.533589    33A     -0.527423
      34A     -0.499448    35A     -0.489264    36A     -0.488258
      37A     -0.479425    38A     -0.455590    39A     -0.449247
      40A     -0.443464    41A     -0.335292    42A     -0.324001

    Virtual:

      43A      0.131590    44A      0.142079    45A      0.168448
      46A      0.192746    47A      0.200268    48A      0.209014
      49A      0.233146    50A      0.236054    51A      0.243839
      52A      0.253291    53A      0.255090    54A      0.263186
      55A      0.265620    56A      0.273842    57A      0.286819
      58A      0.302160    59A      0.303428    60A      0.314768
      61A      0.319129    62A      0.347638    63A      0.364946
      64A      0.367054    65A      0.378787    66A      0.411574
      67A      0.413679    68A      0.455750    69A      0.461066
      70A      0.479219    71A      0.499509    72A      0.555818
      73A      0.567822    74A      0.578609    75A      0.595430
      76A      0.605698    77A      0.619222    78A      0.630786
      79A      0.669967    80A      0.678586    81A      0.698913
      82A      0.707881    83A      0.714232    84A      0.734573
      85A      0.739703    86A      0.752463    87A      0.755703
      88A      0.768476    89A      0.776286    90A      0.787950
      91A      0.792820    92A      0.814308    93A      0.828437
      94A      0.835771    95A      0.848540    96A      0.853976
      97A      0.858686    98A      0.875948    99A      0.880811
     100A      0.882016   101A      0.891905   102A      0.893617
     103A      0.900327   104A      0.906517   105A      0.911562
     106A      0.916804   107A      0.924952   108A      0.926464
     109A      0.939705   110A      0.946681   111A      0.950663
     112A      0.956829   113A      0.962245   114A      0.982560
     115A      0.993589   116A      0.999846   117A      1.012481
     118A      1.045665   119A      1.087632   120A      1.111071
     121A      1.132195   122A      1.136172   123A      1.144719
     124A      1.150770   125A      1.161024   126A      1.163328
     127A      1.195664   128A      1.222131   129A      1.228261
     130A      1.246118   131A      1.259468   132A      1.282792
     133A      1.296847   134A      1.314437   135A      1.322550
     136A      1.325032   137A      1.385411   138A      1.408628
     139A      1.420436   140A      1.427052   141A      1.500469
     142A      1.521140   143A      1.550279   144A      1.562971
     145A      1.577116   146A      1.604628   147A      1.672305
     148A      1.677987   149A      1.681675   150A      1.684312
     151A      1.693683   152A      1.703100   153A      1.707501
     154A      1.718865   155A      1.729811   156A      1.740700
     157A      1.752265   158A      1.771646   159A      1.797423
     160A      1.824311   161A      1.846845   162A      1.856395
     163A      1.860600   164A      1.866340   165A      1.892712
     166A      1.904690   167A      1.915039   168A      1.918524
     169A      1.924210   170A      1.932649   171A      1.940982
     172A      1.950354   173A      1.957369   174A      1.965263
     175A      1.967333   176A      1.977754   177A      1.983301
     178A      1.995604   179A      2.001678   180A      2.010851
     181A      2.012446   182A      2.034753   183A      2.040946
     184A      2.068945   185A      2.070192   186A      2.083903
     187A      2.095915   188A      2.118257   189A      2.132042
     190A      2.140654   191A      2.150795   192A      2.160226
     193A      2.169461   194A      2.174720   195A      2.193273
     196A      2.200901   197A      2.243547   198A      2.261536
     199A      2.263930   200A      2.273000   201A      2.286840
     202A      2.293932   203A      2.316067   204A      2.331523
     205A      2.332481   206A      2.343445   207A      2.371960
     208A      2.387117   209A      2.392859   210A      2.450962
     211A      2.472522   212A      2.489166   213A      2.521034
     214A      2.536431   215A      2.585579   216A      2.607733
     217A      2.624230   218A      2.632228   219A      2.720444
     220A      2.730259   221A      2.736503   222A      2.758488
     223A      2.772303   224A      2.783125   225A      2.794404
     226A      2.799091   227A      2.799280   228A      2.807606
     229A      2.819281   230A      2.845121   231A      2.858441
     232A      2.872156   233A      2.876729   234A      2.906162
     235A      2.983963   236A      3.014286   237A      3.028046
     238A      3.048848   239A      3.054897   240A      3.111198
     241A      3.161501   242A      3.205901   243A      3.309734
     244A      3.975530

    Final Occupation by Irrep:
              A
    DOCC [    42 ]

  @RHF Final Energy:  -427.06581874966139

   => Energetics <=

    Nuclear Repulsion Energy =            594.4694043647089075
    One-Electron Energy =               -1755.1759475377025410
    Two-Electron Energy =                 733.6407244233322444
    Total Energy =                       -427.0658187496613891

Computation Completed

Properties will be evaluated at   0.000000,   0.000000,   0.000000 [a0]

Properties computed using the SCF density matrix

  Nuclear Dipole Moment: [e a0]
     X:    13.1715      Y:    -0.8970      Z:     1.2888

  Electronic Dipole Moment: [e a0]
     X:   -13.3401      Y:     0.8235      Z:    -1.4149

  Dipole Moment: [e a0]
     X:    -0.1686      Y:    -0.0735      Z:    -0.1261     Total:     0.2230

  Dipole Moment: [D]
     X:    -0.4286      Y:    -0.1868      Z:    -0.3205     Total:     0.5668

*** tstop() called on ds3 at Mon Apr 27 23:04:09 2020
Module time:
	user time   =     204.80 seconds =       3.41 minutes
	system time =      76.34 seconds =       1.27 minutes
	total time  =        269 seconds =       4.48 minutes
Total time:
	user time   =     204.80 seconds =       3.41 minutes
	system time =      76.34 seconds =       1.27 minutes
	total time  =        269 seconds =       4.48 minutes
                                     G D M A

                                 by Anthony Stone

                           version 2.2.06, 22 June 2011

               Distributed Multipoles from Gaussian wavefunctions

Starting at 23:4:9 on 27 Apr 2020

Using SCF density matrix from file ./SSI/SSI-044PHE-130VAL-1-dimer.test.20931.fchk

                         Distributed Multipole Analysis

Standard DMA

Positions and radii in angstrom
Multipole moments in atomic units, ea_0^k for rank k

C          x = -0.833273  y = -1.954604  z = -1.996951 angstrom
           Maximum rank =  0   Radius =  0.650 angstrom
                   Q00  =  -0.203489

C          x = -1.078273  y =  0.446396  z = -1.291951 angstrom
           Maximum rank =  0   Radius =  0.650 angstrom
                   Q00  =  -0.044447

C          x = -1.309273  y = -0.906604  z = -1.021951 angstrom
           Maximum rank =  0   Radius =  0.650 angstrom
                   Q00  =  -0.106932

C          x = -1.514273  y =  1.429396  z = -0.421951 angstrom
           Maximum rank =  0   Radius =  0.650 angstrom
                   Q00  =  -0.073514

C          x = -2.008273  y = -1.255604  z =  0.133049 angstrom
           Maximum rank =  0   Radius =  0.650 angstrom
                   Q00  =  -0.095901

C          x = -2.237273  y =  1.045396  z =  0.694049 angstrom
           Maximum rank =  0   Radius =  0.650 angstrom
                   Q00  =  -0.006617

C          x = -2.468273  y = -0.268604  z =  1.008049 angstrom
           Maximum rank =  0   Radius =  0.650 angstrom
                   Q00  =  -0.071548

H          x = -0.543273  y =  0.736396  z = -2.186951 angstrom
           Maximum rank =  0   Radius =  0.325 angstrom
                   Q00  =   0.057600

H          x = -1.337273  y =  2.474396  z = -0.635951 angstrom
           Maximum rank =  0   Radius =  0.325 angstrom
                   Q00  =   0.066322

H          x = -0.259273  y = -2.703604  z = -1.447951 angstrom
           Maximum rank =  0   Radius =  0.325 angstrom
                   Q00  =   0.099572

H          x = -0.173273  y = -1.502604  z = -2.737951 angstrom
           Maximum rank =  0   Radius =  0.325 angstrom
                   Q00  =   0.099053

H          x = -2.197273  y = -2.297604  z =  0.358049 angstrom
           Maximum rank =  0   Radius =  0.325 angstrom
                   Q00  =   0.056852

H          x = -2.621273  y =  1.810396  z =  1.354049 angstrom
           Maximum rank =  0   Radius =  0.325 angstrom
                   Q00  =   0.054750

H          x = -3.015273  y = -0.535604  z =  1.901049 angstrom
           Maximum rank =  0   Radius =  0.325 angstrom
                   Q00  =   0.066258

H          x = -1.677200  y = -2.446656  z = -2.502592 angstrom
           Maximum rank =  0   Radius =  0.325 angstrom
                   Q00  =   0.105133

C          x =  2.354727  y =  0.589396  z =  0.490049 angstrom
           Maximum rank =  0   Radius =  0.650 angstrom
                   Q00  =   0.032808

C          x =  2.878727  y = -0.570604  z = -0.357951 angstrom
           Maximum rank =  0   Radius =  0.650 angstrom
                   Q00  =  -0.265201

C          x =  1.530727  y =  0.059396  z =  1.660049 angstrom
           Maximum rank =  0   Radius =  0.650 angstrom
                   Q00  =  -0.239742

C          x =  3.504727  y =  1.466396  z =  0.990049 angstrom
           Maximum rank =  0   Radius =  0.650 angstrom
                   Q00  =  -0.249122

H          x =  1.693727  y =  1.205396  z = -0.117951 angstrom
           Maximum rank =  0   Radius =  0.325 angstrom
                   Q00  =   0.017879

H          x =  1.989727  y = -1.088604  z = -0.718951 angstrom
           Maximum rank =  0   Radius =  0.325 angstrom
                   Q00  =   0.073917

H          x =  2.150727  y = -0.536604  z =  2.330049 angstrom
           Maximum rank =  0   Radius =  0.325 angstrom
                   Q00  =   0.068141

H          x =  1.118727  y =  0.894396  z =  2.223049 angstrom
           Maximum rank =  0   Radius =  0.325 angstrom
                   Q00  =   0.078908

H          x =  0.704727  y = -0.537604  z =  1.272049 angstrom
           Maximum rank =  0   Radius =  0.325 angstrom
                   Q00  =   0.094494

H          x =  4.053727  y =  1.883396  z =  0.151049 angstrom
           Maximum rank =  0   Radius =  0.325 angstrom
                   Q00  =   0.078547

H          x =  3.089727  y =  2.293396  z =  1.567049 angstrom
           Maximum rank =  0   Radius =  0.325 angstrom
                   Q00  =   0.075540

H          x =  4.181727  y =  0.899396  z =  1.630049 angstrom
           Maximum rank =  0   Radius =  0.325 angstrom
                   Q00  =   0.074833

H          x =  3.505367  y = -1.274358  z =  0.209545 angstrom
           Maximum rank =  0   Radius =  0.325 angstrom
                   Q00  =   0.078868

H          x =  3.385997  y = -0.230738  z = -1.272918 angstrom
           Maximum rank =  0   Radius =  0.325 angstrom
                   Q00  =   0.077040

Total multipoles referred to origin at
           x =   0.000000,  y =    0.000000,  z =    0.000000 angstrom
                   Q00  =  -0.000000

Finished at 23:4:9 on 27 Apr 2020

  DMA results are available in the Python driver through the
	  variable('DMA DISTRIBUTED MULTIPOLES')
  and
	  variable('DMA TOTAL MULTIPOLES')
  commands.

    Psi4 stopped on: Monday, 27 April 2020 11:04PM
    Psi4 wall time for execution: 0:04:29.84

*** Psi4 exiting successfully. Buy a developer a beer!
