                               Psi4 1.3.2 release

  ==> Input File <==

--------------------------------------------------------------------------
import numpy as np
set {scf_type pk
basis cc-pvdz
d_convergence 10
gdma_switch   0
gdma_limit    0
gdma_origin   [ 0.0,  0.0,  0.0 ]
}
molecule test {
    units Angstrom
    0 1
    --
    0 1
    C                1.656701798450219    -1.533728459043123     2.642532277281138
    C                1.195701798450219     0.371271540956877     1.066532277281138
    C                1.922701798450219    -0.779728459043123     1.361532277281138
    C                1.421701798450219     1.073271540956877    -0.115467722718862
    C                2.382701798450219     0.618271540956877    -1.017467722718862
    C                2.886701798450219    -1.222728459043123     0.455532277281138
    C                3.115701798450219    -0.529728459043123    -0.736467722718862
    O                2.597701798450220     1.310271540956877    -2.171467722718862
    H                0.441701798450219     0.725271540956877     1.756532277281138
    H                0.844701798450219     1.958271540956877    -0.328467722718862
    H                1.878701798450219    -2.589728459043123     2.491532277281137
    H                0.593701798450219    -1.449728459043123     2.875532277281138
    H                3.456701798450219    -2.116728459043123     0.668532277281138
    H                2.011701798450219     2.085271540956877    -2.201467722718862
    H                3.857701798450219    -0.876728459043123    -1.439467722718862
    H                2.244655798450219    -1.160034459043123     3.493802277281138
    C               -1.288298201549781     0.708271540956877    -2.885467722718862
    C               -2.548298201549781    -0.258728459043123     1.121532277281138
    C               -2.707298201549781     1.029271540956877     0.628532277281138
    C               -1.975298201549781    -1.234728459043123     0.319532277281138
    C               -2.299298201549781     1.342271540956877    -0.665467722718862
    C               -1.584298201549781    -0.922728459043123    -0.978467722718862
    C               -1.731298201549781     0.369271540956877    -1.481467722718862
    O               -2.933298201549781    -0.546728459043123     2.398532277281138
    H               -3.148298201549781     1.796271540956877     1.249532277281138
    H               -3.308298201549781     0.223271540956877     2.835532277281138
    H               -1.846298201549781    -2.229728459043123     0.713532277281138
    H               -2.426298201549781     2.350271540956877    -1.037467722718862
    H               -1.150298201549781    -1.689728459043123    -1.603467722718862
    H               -0.482298201549781     0.034271540956877    -3.173467722718862
    H               -0.879298201549781     1.719271540956877    -2.884467722718862
    H               -2.094500201549781     0.654236540956877    -3.631867722718862

}
e, wfn = energy('scf', return_wfn=True)
gdma(wfn)
dmavals = variable('DMA DISTRIBUTED MULTIPOLES')
charges = np.array(dmavals)
print(charges)
np.save('SSI-142TYR-148TYR-1-dimer.npy', np.array(charges))--------------------------------------------------------------------------

*** tstart() called on ds3
*** at Mon Apr 27 15:01:29 2020

   => Loading Basis Set <=

    Name: CC-PVDZ
    Role: ORBITAL
    Keyword: BASIS
    atoms 1-7, 17-23  entry C          line   138 file /theoryfs2/ds/metcalf/miniconda2/envs/tf2gpu/share/psi4/basis/cc-pvdz.gbs
    atoms 8, 24       entry O          line   198 file /theoryfs2/ds/metcalf/miniconda2/envs/tf2gpu/share/psi4/basis/cc-pvdz.gbs
    atoms 9-16, 25-32 entry H          line    22 file /theoryfs2/ds/metcalf/miniconda2/envs/tf2gpu/share/psi4/basis/cc-pvdz.gbs

         ---------------------------------------------------------
                                   SCF
               by Justin Turney, Rob Parrish, Andy Simmonett
                          and Daniel G. A. Smith
                              RHF Reference
                        1 Threads,    500 MiB Core
         ---------------------------------------------------------

  ==> Geometry <==

    Molecular point group: c1
    Full point group: C1

    Geometry (in Angstrom), charge = 0, multiplicity = 1:

       Center              X                  Y                   Z               Mass
    ------------   -----------------  -----------------  -----------------  -----------------
         C            1.656701798450    -1.533728459043     2.642532277281    12.000000000000
         C            1.195701798450     0.371271540957     1.066532277281    12.000000000000
         C            1.922701798450    -0.779728459043     1.361532277281    12.000000000000
         C            1.421701798450     1.073271540957    -0.115467722719    12.000000000000
         C            2.382701798450     0.618271540957    -1.017467722719    12.000000000000
         C            2.886701798450    -1.222728459043     0.455532277281    12.000000000000
         C            3.115701798450    -0.529728459043    -0.736467722719    12.000000000000
         O            2.597701798450     1.310271540957    -2.171467722719    15.994914619570
         H            0.441701798450     0.725271540957     1.756532277281     1.007825032230
         H            0.844701798450     1.958271540957    -0.328467722719     1.007825032230
         H            1.878701798450    -2.589728459043     2.491532277281     1.007825032230
         H            0.593701798450    -1.449728459043     2.875532277281     1.007825032230
         H            3.456701798450    -2.116728459043     0.668532277281     1.007825032230
         H            2.011701798450     2.085271540957    -2.201467722719     1.007825032230
         H            3.857701798450    -0.876728459043    -1.439467722719     1.007825032230
         H            2.244655798450    -1.160034459043     3.493802277281     1.007825032230
         C           -1.288298201550     0.708271540957    -2.885467722719    12.000000000000
         C           -2.548298201550    -0.258728459043     1.121532277281    12.000000000000
         C           -2.707298201550     1.029271540957     0.628532277281    12.000000000000
         C           -1.975298201550    -1.234728459043     0.319532277281    12.000000000000
         C           -2.299298201550     1.342271540957    -0.665467722719    12.000000000000
         C           -1.584298201550    -0.922728459043    -0.978467722719    12.000000000000
         C           -1.731298201550     0.369271540957    -1.481467722719    12.000000000000
         O           -2.933298201550    -0.546728459043     2.398532277281    15.994914619570
         H           -3.148298201550     1.796271540957     1.249532277281     1.007825032230
         H           -3.308298201550     0.223271540957     2.835532277281     1.007825032230
         H           -1.846298201550    -2.229728459043     0.713532277281     1.007825032230
         H           -2.426298201550     2.350271540957    -1.037467722719     1.007825032230
         H           -1.150298201550    -1.689728459043    -1.603467722719     1.007825032230
         H           -0.482298201550     0.034271540957    -3.173467722719     1.007825032230
         H           -0.879298201550     1.719271540957    -2.884467722719     1.007825032230
         H           -2.094500201550     0.654236540957    -3.631867722719     1.007825032230

  Running in c1 symmetry.

  Rotational constants: A =      0.02199  B =      0.01365  C =      0.00970 [cm^-1]
  Rotational constants: A =    659.22812  B =    409.11322  C =    290.71177 [MHz]
  Nuclear repulsion = 1048.918243044731298

  Charge       = 0
  Multiplicity = 1
  Electrons    = 116
  Nalpha       = 58
  Nbeta        = 58

  ==> Algorithm <==

  SCF Algorithm Type is PK.
  DIIS enabled.
  MOM disabled.
  Fractional occupation disabled.
  Guess Type is SAD.
  Energy threshold   = 1.00e-06
  Density threshold  = 1.00e-10
  Integral threshold = 0.00e+00

  ==> Primary Basis <==

  Basis Set: CC-PVDZ
    Blend: CC-PVDZ
    Number of shells: 144
    Number of basis function: 304
    Number of Cartesian functions: 320
    Spherical Harmonics?: true
    Max angular momentum: 2

  ==> Pre-Iterations <==

   -------------------------------------------------------
    Irrep   Nso     Nmo     Nalpha   Nbeta   Ndocc  Nsocc
   -------------------------------------------------------
     A        304     304       0       0       0       0
   -------------------------------------------------------
    Total     304     304      58      58      58       0
   -------------------------------------------------------

  ==> Integral Setup <==

  Using integral reordering PK algorithm.
  Sizing the integral batches needed.
  Building batch lookup table.
   Calculation information:
      Number of atoms:                  32
      Number of AO shells:             144
      Number of primitives:            432
      Number of atomic orbitals:       320
      Number of basis functions:       304

      Integral cutoff                 1.00e-12
      Number of threads:                 1

	Batch   1 pq = [       0,    9405] index = [             0,44231715] size =     44231715
	Batch   2 pq = [    9405,   13301] index = [      44231715,88464951] size =     44233236
	Batch   3 pq = [   13301,   16290] index = [      88464951,132690195] size =     44225244
	Batch   4 pq = [   16290,   18810] index = [     132690195,176917455] size =     44227260
	Batch   5 pq = [   18810,   21030] index = [     176917455,221140965] size =     44223510
	Batch   6 pq = [   21030,   23037] index = [     221140965,265363203] size =     44222238
	Batch   7 pq = [   23037,   24883] index = [     265363203,309594286] size =     44231083
	Batch   8 pq = [   24883,   26601] index = [     309594286,353819901] size =     44225615
	Batch   9 pq = [   26601,   28214] index = [     353819901,398029005] size =     44209104
	Batch  10 pq = [   28214,   29740] index = [     398029005,442248670] size =     44219665
	Batch  11 pq = [   29740,   31191] index = [     442248670,486454836] size =     44206166
	Batch  12 pq = [   31191,   32578] index = [     486454836,530679331] size =     44224495
	Batch  13 pq = [   32578,   33908] index = [     530679331,574893186] size =     44213855
	Batch  14 pq = [   33908,   35188] index = [     574893186,619115266] size =     44222080
	Batch  15 pq = [   35188,   36423] index = [     619115266,663335676] size =     44220410
	Batch  16 pq = [   36423,   37617] index = [     663335676,707538153] size =     44202477
	Batch  17 pq = [   37617,   38775] index = [     707538153,751769700] size =     44231547
	Batch  18 pq = [   38775,   39899] index = [     751769700,795985050] size =     44215350
	Batch  19 pq = [   39899,   40992] index = [     795985050,840192528] size =     44207478
	Batch  20 pq = [   40992,   42057] index = [     840192528,884416653] size =     44224125
	Batch  21 pq = [   42057,   43095] index = [     884416653,928611060] size =     44194407
	Batch  22 pq = [   43095,   44109] index = [     928611060,972823995] size =     44212935
	Batch  23 pq = [   44109,   45100] index = [     972823995,1017027550] size =     44203555
	Batch  24 pq = [   45100,   46070] index = [    1017027550,1061245485] size =     44217935
	Batch  25 pq = [   46070,   46360] index = [    1061245485,1074647980] size =     13402495
  Task number: 98
  Buffer size: 11059200
  Buffer per thread: 2
  We computed 66154907 shell quartets total.
  Whereas there are 54502020 unique shell quartets.
    21.38 percent of shell quartets recomputed by reordering.

  ==> DiskJK: Disk-Based J/K Matrices <==

    J tasked:                  Yes
    K tasked:                  Yes
    wK tasked:                  No
    Memory [MiB]:              375
    Schwarz Cutoff:          1E-12

    OpenMP threads:              1

  Minimum eigenvalue in the overlap matrix is 3.1544219206E-04.
  Using Symmetric Orthogonalization.

  SCF Guess: Superposition of Atomic Densities via on-the-fly atomic UHF.

  ==> Iterations <==

                        Total Energy        Delta E     RMS |[F,P]|

   @RHF iter SAD:  -688.03337836064463   -6.88033e+02   0.00000e+00
   @RHF iter   1:  -688.89259906283723   -8.59221e-01   2.43734e-03 DIIS
   @RHF iter   2:  -689.19280841113164   -3.00209e-01   1.04071e-03 DIIS
   @RHF iter   3:  -689.24126002706680   -4.84516e-02   2.46203e-04 DIIS
   @RHF iter   4:  -689.24540125163287   -4.14122e-03   1.02459e-04 DIIS
   @RHF iter   5:  -689.24597992365318   -5.78672e-04   1.67626e-05 DIIS
   @RHF iter   6:  -689.24600614942096   -2.62258e-05   5.85265e-06 DIIS
   @RHF iter   7:  -689.24600924005824   -3.09064e-06   1.94154e-06 DIIS
   @RHF iter   8:  -689.24600968116340   -4.41105e-07   6.62726e-07 DIIS
   @RHF iter   9:  -689.24600974358634   -6.24229e-08   2.98933e-07 DIIS
   @RHF iter  10:  -689.24600975611600   -1.25297e-08   1.35487e-07 DIIS
   @RHF iter  11:  -689.24600976077625   -4.66025e-09   6.12123e-08 DIIS
   @RHF iter  12:  -689.24600976165664   -8.80391e-10   3.00556e-08 DIIS
   @RHF iter  13:  -689.24600976180648   -1.49839e-10   7.96744e-09 DIIS
   @RHF iter  14:  -689.24600976181591   -9.43601e-12   2.40493e-09 DIIS
   @RHF iter  15:  -689.24600976181262    3.29692e-12   7.28485e-10 DIIS
   @RHF iter  16:  -689.24600976181273   -1.13687e-13   3.18217e-10 DIIS
   @RHF iter  17:  -689.24600976181750   -4.77485e-12   1.31388e-10 DIIS
   @RHF iter  18:  -689.24600976181569    1.81899e-12   6.23773e-11 DIIS
  Energy and wave function converged.

  ==> Post-Iterations <==

    Orbital Energies [Eh]
    ---------------------

    Doubly Occupied:

       1A    -20.585875     2A    -20.580728     3A    -11.299855
       4A    -11.292806     5A    -11.240312     6A    -11.237430
       7A    -11.234788     8A    -11.233718     9A    -11.232832
      10A    -11.230377    11A    -11.230120    12A    -11.229880
      13A    -11.225959    14A    -11.225576    15A    -11.224906
      16A    -11.221272    17A     -1.402382    18A     -1.395439
      19A     -1.153329    20A     -1.142975    21A     -1.039452
      22A     -1.029732    23A     -1.019224    24A     -1.010577
      25A     -0.928305    26A     -0.918543    27A     -0.846651
      28A     -0.838192    29A     -0.803663    30A     -0.794412
      31A     -0.733863    32A     -0.723569    33A     -0.670533
      34A     -0.662921    35A     -0.642790    36A     -0.635239
      37A     -0.608922    38A     -0.599625    39A     -0.591365
      40A     -0.587684    41A     -0.582033    42A     -0.579135
      43A     -0.571829    44A     -0.568423    45A     -0.564595
      46A     -0.562550    47A     -0.528935    48A     -0.520074
      49A     -0.498497    50A     -0.490116    51A     -0.486107
      52A     -0.479109    53A     -0.473375    54A     -0.456741
      55A     -0.341173    56A     -0.329349    57A     -0.306052
      58A     -0.293005

    Virtual:

      59A      0.126009    60A      0.135891    61A      0.152911
      62A      0.162242    63A      0.165318    64A      0.171026
      65A      0.192727    66A      0.202411    67A      0.213140
      68A      0.223065    69A      0.232568    70A      0.236521
      71A      0.258895    72A      0.262463    73A      0.263888
      74A      0.277730    75A      0.287865    76A      0.295507
      77A      0.298170    78A      0.312220    79A      0.368137
      80A      0.373596    81A      0.376226    82A      0.381905
      83A      0.428226    84A      0.435489    85A      0.454048
      86A      0.462782    87A      0.481405    88A      0.485956
      89A      0.495121    90A      0.503517    91A      0.510396
      92A      0.512133    93A      0.584701    94A      0.608761
      95A      0.611606    96A      0.627081    97A      0.646794
      98A      0.651087    99A      0.658802   100A      0.667581
     101A      0.681450   102A      0.684304   103A      0.688511
     104A      0.700866   105A      0.705982   106A      0.717115
     107A      0.727022   108A      0.728901   109A      0.732716
     110A      0.735561   111A      0.753287   112A      0.757257
     113A      0.769493   114A      0.773206   115A      0.781075
     116A      0.795627   117A      0.802296   118A      0.806100
     119A      0.816282   120A      0.823726   121A      0.832427
     122A      0.845875   123A      0.851086   124A      0.860872
     125A      0.869698   126A      0.880804   127A      0.885531
     128A      0.888912   129A      0.894146   130A      0.900950
     131A      0.906834   132A      0.914121   133A      0.916504
     134A      0.924377   135A      0.930542   136A      0.942736
     137A      0.954140   138A      0.961208   139A      0.973013
     140A      0.977393   141A      0.980670   142A      0.996430
     143A      1.013325   144A      1.018556   145A      1.032193
     146A      1.041112   147A      1.064397   148A      1.077871
     149A      1.121811   150A      1.126212   151A      1.134809
     152A      1.142847   153A      1.148167   154A      1.153107
     155A      1.163358   156A      1.192776   157A      1.205093
     158A      1.214905   159A      1.235596   160A      1.246846
     161A      1.255109   162A      1.263071   163A      1.268295
     164A      1.278375   165A      1.284705   166A      1.292961
     167A      1.297298   168A      1.310110   169A      1.315603
     170A      1.320923   171A      1.338013   172A      1.349704
     173A      1.358758   174A      1.363169   175A      1.371021
     176A      1.377238   177A      1.390887   178A      1.402576
     179A      1.477427   180A      1.485793   181A      1.506162
     182A      1.511936   183A      1.531112   184A      1.546501
     185A      1.560696   186A      1.564650   187A      1.616230
     188A      1.618053   189A      1.622977   190A      1.626854
     191A      1.683832   192A      1.693396   193A      1.701343
     194A      1.709522   195A      1.727437   196A      1.745865
     197A      1.757331   198A      1.761847   199A      1.784858
     200A      1.786519   201A      1.802640   202A      1.817691
     203A      1.822732   204A      1.835323   205A      1.867138
     206A      1.874684   207A      1.891783   208A      1.892708
     209A      1.898980   210A      1.907570   211A      1.910002
     212A      1.917550   213A      1.920673   214A      1.925197
     215A      1.937808   216A      1.948443   217A      1.953527
     218A      1.964173   219A      1.969198   220A      1.970415
     221A      1.978853   222A      1.980172   223A      1.994901
     224A      2.006822   225A      2.039023   226A      2.045578
     227A      2.052139   228A      2.061621   229A      2.063378
     230A      2.068848   231A      2.069734   232A      2.077310
     233A      2.093604   234A      2.097995   235A      2.140901
     236A      2.148887   237A      2.152379   238A      2.155829
     239A      2.164689   240A      2.176097   241A      2.200216
     242A      2.227934   243A      2.230804   244A      2.238451
     245A      2.261530   246A      2.269985   247A      2.276982
     248A      2.284066   249A      2.302127   250A      2.308789
     251A      2.329996   252A      2.341742   253A      2.375934
     254A      2.389687   255A      2.428317   256A      2.435998
     257A      2.455471   258A      2.460389   259A      2.471822
     260A      2.489885   261A      2.491539   262A      2.497162
     263A      2.538680   264A      2.551079   265A      2.555557
     266A      2.566347   267A      2.600346   268A      2.609026
     269A      2.651901   270A      2.653487   271A      2.754828
     272A      2.769439   273A      2.780089   274A      2.781470
     275A      2.797611   276A      2.801389   277A      2.810301
     278A      2.818865   279A      2.846525   280A      2.852603
     281A      2.907189   282A      2.913390   283A      2.973884
     284A      2.979331   285A      3.011548   286A      3.021994
     287A      3.090483   288A      3.098436   289A      3.110236
     290A      3.117984   291A      3.251823   292A      3.262003
     293A      3.282762   294A      3.296692   295A      3.339654
     296A      3.343698   297A      3.577828   298A      3.590677
     299A      3.674345   300A      3.686785   301A      3.967201
     302A      3.976987   303A      4.186485   304A      4.191250

    Final Occupation by Irrep:
              A
    DOCC [    58 ]

  @RHF Final Energy:  -689.24600976181569

   => Energetics <=

    Nuclear Repulsion Energy =           1048.9182430447312981
    One-Electron Energy =               -3020.4546719364334422
    Two-Electron Energy =                1282.2904191298864589
    Total Energy =                       -689.2460097618156851

Computation Completed

Properties will be evaluated at   0.000000,   0.000000,   0.000000 [a0]

Properties computed using the SCF density matrix

  Nuclear Dipole Moment: [e a0]
     X:    -0.0073      Y:    -0.5269      Z:    -0.2010

  Electronic Dipole Moment: [e a0]
     X:    -0.6117      Y:     1.2421      Z:     0.4037

  Dipole Moment: [e a0]
     X:    -0.6190      Y:     0.7152      Z:     0.2027     Total:     0.9673

  Dipole Moment: [D]
     X:    -1.5732      Y:     1.8179      Z:     0.5152     Total:     2.4587

*** tstop() called on ds3 at Mon Apr 27 15:59:50 2020
Module time:
	user time   =     559.56 seconds =       9.33 minutes
	system time =     185.82 seconds =       3.10 minutes
	total time  =       3501 seconds =      58.35 minutes
Total time:
	user time   =     559.56 seconds =       9.33 minutes
	system time =     185.82 seconds =       3.10 minutes
	total time  =       3501 seconds =      58.35 minutes
                                     G D M A

                                 by Anthony Stone

                           version 2.2.06, 22 June 2011

               Distributed Multipoles from Gaussian wavefunctions

Starting at 15:59:50 on 27 Apr 2020

Using SCF density matrix from file ./SSI/SSI-142TYR-148TYR-1-dimer.test.15665.fchk

                         Distributed Multipole Analysis

Standard DMA

Positions and radii in angstrom
Multipole moments in atomic units, ea_0^k for rank k

C          x =  1.656702  y = -1.533728  z =  2.642532 angstrom
           Maximum rank =  0   Radius =  0.650 angstrom
                   Q00  =  -0.195509

C          x =  1.195702  y =  0.371272  z =  1.066532 angstrom
           Maximum rank =  0   Radius =  0.650 angstrom
                   Q00  =   0.044710

C          x =  1.922702  y = -0.779728  z =  1.361532 angstrom
           Maximum rank =  0   Radius =  0.650 angstrom
                   Q00  =  -0.138716

C          x =  1.421702  y =  1.073272  z = -0.115468 angstrom
           Maximum rank =  0   Radius =  0.650 angstrom
                   Q00  =  -0.171968

C          x =  2.382702  y =  0.618272  z = -1.017468 angstrom
           Maximum rank =  0   Radius =  0.650 angstrom
                   Q00  =   0.306281

C          x =  2.886702  y = -1.222728  z =  0.455532 angstrom
           Maximum rank =  0   Radius =  0.650 angstrom
                   Q00  =  -0.016077

C          x =  3.115702  y = -0.529728  z = -0.736468 angstrom
           Maximum rank =  0   Radius =  0.650 angstrom
                   Q00  =  -0.125576

O          x =  2.597702  y =  1.310272  z = -2.171468 angstrom
           Maximum rank =  0   Radius =  0.650 angstrom
                   Q00  =  -0.675812

H          x =  0.441702  y =  0.725272  z =  1.756532 angstrom
           Maximum rank =  0   Radius =  0.325 angstrom
                   Q00  =   0.068622

H          x =  0.844702  y =  1.958272  z = -0.328468 angstrom
           Maximum rank =  0   Radius =  0.325 angstrom
                   Q00  =   0.067975

H          x =  1.878702  y = -2.589728  z =  2.491532 angstrom
           Maximum rank =  0   Radius =  0.325 angstrom
                   Q00  =   0.093878

H          x =  0.593702  y = -1.449728  z =  2.875532 angstrom
           Maximum rank =  0   Radius =  0.325 angstrom
                   Q00  =   0.098358

H          x =  3.456702  y = -2.116728  z =  0.668532 angstrom
           Maximum rank =  0   Radius =  0.325 angstrom
                   Q00  =   0.061778

H          x =  2.011702  y =  2.085272  z = -2.201468 angstrom
           Maximum rank =  0   Radius =  0.325 angstrom
                   Q00  =   0.407201

H          x =  3.857702  y = -0.876728  z = -1.439468 angstrom
           Maximum rank =  0   Radius =  0.325 angstrom
                   Q00  =   0.077685

H          x =  2.244656  y = -1.160034  z =  3.493802 angstrom
           Maximum rank =  0   Radius =  0.325 angstrom
                   Q00  =   0.097177

C          x = -1.288298  y =  0.708272  z = -2.885468 angstrom
           Maximum rank =  0   Radius =  0.650 angstrom
                   Q00  =  -0.190491

C          x = -2.548298  y = -0.258728  z =  1.121532 angstrom
           Maximum rank =  0   Radius =  0.650 angstrom
                   Q00  =   0.312414

C          x = -2.707298  y =  1.029272  z =  0.628532 angstrom
           Maximum rank =  0   Radius =  0.650 angstrom
                   Q00  =  -0.174417

C          x = -1.975298  y = -1.234728  z =  0.319532 angstrom
           Maximum rank =  0   Radius =  0.650 angstrom
                   Q00  =  -0.114882

C          x = -2.299298  y =  1.342272  z = -0.665468 angstrom
           Maximum rank =  0   Radius =  0.650 angstrom
                   Q00  =  -0.062317

C          x = -1.584298  y = -0.922728  z = -0.978468 angstrom
           Maximum rank =  0   Radius =  0.650 angstrom
                   Q00  =   0.074886

C          x = -1.731298  y =  0.369272  z = -1.481468 angstrom
           Maximum rank =  0   Radius =  0.650 angstrom
                   Q00  =  -0.141071

O          x = -2.933298  y = -0.546728  z =  2.398532 angstrom
           Maximum rank =  0   Radius =  0.650 angstrom
                   Q00  =  -0.679293

H          x = -3.148298  y =  1.796272  z =  1.249532 angstrom
           Maximum rank =  0   Radius =  0.325 angstrom
                   Q00  =   0.068257

H          x = -3.308298  y =  0.223272  z =  2.835532 angstrom
           Maximum rank =  0   Radius =  0.325 angstrom
                   Q00  =   0.405675

H          x = -1.846298  y = -2.229728  z =  0.713532 angstrom
           Maximum rank =  0   Radius =  0.325 angstrom
                   Q00  =   0.081234

H          x = -2.426298  y =  2.350272  z = -1.037468 angstrom
           Maximum rank =  0   Radius =  0.325 angstrom
                   Q00  =   0.064429

H          x = -1.150298  y = -1.689728  z = -1.603468 angstrom
           Maximum rank =  0   Radius =  0.325 angstrom
                   Q00  =   0.067641

H          x = -0.482298  y =  0.034272  z = -3.173468 angstrom
           Maximum rank =  0   Radius =  0.325 angstrom
                   Q00  =   0.105331

H          x = -0.879298  y =  1.719272  z = -2.884468 angstrom
           Maximum rank =  0   Radius =  0.325 angstrom
                   Q00  =   0.080129

H          x = -2.094500  y =  0.654237  z = -3.631868 angstrom
           Maximum rank =  0   Radius =  0.325 angstrom
                   Q00  =   0.102468

Total multipoles referred to origin at
           x =   0.000000,  y =    0.000000,  z =    0.000000 angstrom
                   Q00  =  -0.000000

Finished at 15:59:50 on 27 Apr 2020

  DMA results are available in the Python driver through the
	  variable('DMA DISTRIBUTED MULTIPOLES')
  and
	  variable('DMA TOTAL MULTIPOLES')
  commands.

    Psi4 stopped on: Monday, 27 April 2020 03:59PM
    Psi4 wall time for execution: 0:58:20.94

*** Psi4 exiting successfully. Buy a developer a beer!
