                               Psi4 1.3.2 release

  ==> Input File <==

--------------------------------------------------------------------------
import numpy as np
set {scf_type pk
basis cc-pvdz
d_convergence 10
gdma_switch   0
gdma_limit    0
gdma_origin   [ 0.0,  0.0,  0.0 ]
}
molecule test {
    units Angstrom
    0 1
    --
    0 1
    C               -2.073300843165916    -1.330140884239838     1.347325289092161
    C               -1.241300843165916     0.932859115760162     1.000325289092161
    N               -1.163300843165916    -0.361140884239838     0.733325289092161
    N               -2.171300843165917     1.352859115760162     1.855325289092161
    N               -0.452300843165917     1.810859115760162     0.385325289092161
    H               -0.441300843165917    -0.689140884239838     0.087325289092161
    H               -3.112300843165916    -1.090140884239838     1.107325289092161
    H               -1.933300843165916    -1.343140884239838     2.430325289092161
    H               -2.733300843165916     0.683859115760162     2.376325289092161
    H               -2.289300843165917     2.337859115760162     2.026325289092161
    H                0.242699156834083     1.447859115760162    -0.277674710907839
    H               -0.563300843165916     2.800859115760161     0.522325289092161
    H               -1.830690843165917    -2.324040884239838     0.943219289092161
    C                3.053699156834084    -1.102140884239838    -1.836674710907839
    C                1.719699156834084    -0.587140884239838    -1.319674710907839
    O                0.890699156834084    -1.431140884239838    -0.880674710907839
    O                1.488699156834083     0.665859115760162    -1.323674710907839
    H                2.880699156834083    -1.737140884239838    -2.708674710907839
    H                3.515699156834083    -1.735140884239838    -1.083674710907839
    H                3.748529156834084    -0.301750884239838    -2.130945710907839

}
e, wfn = energy('scf', return_wfn=True)
gdma(wfn)
dmavals = variable('DMA DISTRIBUTED MULTIPOLES')
charges = np.array(dmavals)
print(charges)
np.save('SSI-161ARG-292GLU-1-dimer.npy', np.array(charges))--------------------------------------------------------------------------

*** tstart() called on ds3
*** at Tue Apr 28 09:38:11 2020

   => Loading Basis Set <=

    Name: CC-PVDZ
    Role: ORBITAL
    Keyword: BASIS
    atoms 1-2, 14-15  entry C          line   138 file /theoryfs2/ds/metcalf/miniconda2/envs/tf2gpu/share/psi4/basis/cc-pvdz.gbs
    atoms 3-5         entry N          line   168 file /theoryfs2/ds/metcalf/miniconda2/envs/tf2gpu/share/psi4/basis/cc-pvdz.gbs
    atoms 6-13, 18-20 entry H          line    22 file /theoryfs2/ds/metcalf/miniconda2/envs/tf2gpu/share/psi4/basis/cc-pvdz.gbs
    atoms 16-17       entry O          line   198 file /theoryfs2/ds/metcalf/miniconda2/envs/tf2gpu/share/psi4/basis/cc-pvdz.gbs

         ---------------------------------------------------------
                                   SCF
               by Justin Turney, Rob Parrish, Andy Simmonett
                          and Daniel G. A. Smith
                              RHF Reference
                        1 Threads,    500 MiB Core
         ---------------------------------------------------------

  ==> Geometry <==

    Molecular point group: c1
    Full point group: C1

    Geometry (in Angstrom), charge = 0, multiplicity = 1:

       Center              X                  Y                   Z               Mass
    ------------   -----------------  -----------------  -----------------  -----------------
         C           -2.073300843166    -1.330140884240     1.347325289092    12.000000000000
         C           -1.241300843166     0.932859115760     1.000325289092    12.000000000000
         N           -1.163300843166    -0.361140884240     0.733325289092    14.003074004430
         N           -2.171300843166     1.352859115760     1.855325289092    14.003074004430
         N           -0.452300843166     1.810859115760     0.385325289092    14.003074004430
         H           -0.441300843166    -0.689140884240     0.087325289092     1.007825032230
         H           -3.112300843166    -1.090140884240     1.107325289092     1.007825032230
         H           -1.933300843166    -1.343140884240     2.430325289092     1.007825032230
         H           -2.733300843166     0.683859115760     2.376325289092     1.007825032230
         H           -2.289300843166     2.337859115760     2.026325289092     1.007825032230
         H            0.242699156834     1.447859115760    -0.277674710908     1.007825032230
         H           -0.563300843166     2.800859115760     0.522325289092     1.007825032230
         H           -1.830690843166    -2.324040884240     0.943219289092     1.007825032230
         C            3.053699156834    -1.102140884240    -1.836674710908    12.000000000000
         C            1.719699156834    -0.587140884240    -1.319674710908    12.000000000000
         O            0.890699156834    -1.431140884240    -0.880674710908    15.994914619570
         O            1.488699156834     0.665859115760    -1.323674710908    15.994914619570
         H            2.880699156834    -1.737140884240    -2.708674710908     1.007825032230
         H            3.515699156834    -1.735140884240    -1.083674710908     1.007825032230
         H            3.748529156834    -0.301750884240    -2.130945710908     1.007825032230

  Running in c1 symmetry.

  Rotational constants: A =      0.09908  B =      0.02497  C =      0.02028 [cm^-1]
  Rotational constants: A =   2970.24653  B =    748.64128  C =    607.92115 [MHz]
  Nuclear repulsion =  464.888953834524784

  Charge       = 0
  Multiplicity = 1
  Electrons    = 72
  Nalpha       = 36
  Nbeta        = 36

  ==> Algorithm <==

  SCF Algorithm Type is PK.
  DIIS enabled.
  MOM disabled.
  Fractional occupation disabled.
  Guess Type is SAD.
  Energy threshold   = 1.00e-06
  Density threshold  = 1.00e-10
  Integral threshold = 0.00e+00

  ==> Primary Basis <==

  Basis Set: CC-PVDZ
    Blend: CC-PVDZ
    Number of shells: 87
    Number of basis function: 181
    Number of Cartesian functions: 190
    Spherical Harmonics?: true
    Max angular momentum: 2

  ==> Pre-Iterations <==

   -------------------------------------------------------
    Irrep   Nso     Nmo     Nalpha   Nbeta   Ndocc  Nsocc
   -------------------------------------------------------
     A        181     181       0       0       0       0
   -------------------------------------------------------
    Total     181     181      36      36      36       0
   -------------------------------------------------------

  ==> Integral Setup <==

  Using integral reordering PK algorithm.
  Sizing the integral batches needed.
  Building batch lookup table.
   Calculation information:
      Number of atoms:                  20
      Number of AO shells:              87
      Number of primitives:            253
      Number of atomic orbitals:       190
      Number of basis functions:       181

      Integral cutoff                 1.00e-12
      Number of threads:                 1

	Batch   1 pq = [       0,    9405] index = [             0,44231715] size =     44231715
	Batch   2 pq = [    9405,   13301] index = [      44231715,88464951] size =     44233236
	Batch   3 pq = [   13301,   16471] index = [      88464951,135655156] size =     47190205
  Task number: 13
  Buffer size: 11059200
  Buffer per thread: 2
  We computed 6113160 shell quartets total.
  Whereas there are 7328706 unique shell quartets.

  ==> DiskJK: Disk-Based J/K Matrices <==

    J tasked:                  Yes
    K tasked:                  Yes
    wK tasked:                  No
    Memory [MiB]:              375
    Schwarz Cutoff:          1E-12

    OpenMP threads:              1

  Minimum eigenvalue in the overlap matrix is 3.8241821057E-03.
  Using Symmetric Orthogonalization.

  SCF Guess: Superposition of Atomic Densities via on-the-fly atomic UHF.

  ==> Iterations <==

                        Total Energy        Delta E     RMS |[F,P]|

   @RHF iter SAD:  -469.64616299417759   -4.69646e+02   0.00000e+00
   @RHF iter   1:  -470.73413645180125   -1.08797e+00   4.17160e-03 DIIS
   @RHF iter   2:  -470.95082357750954   -2.16687e-01   2.18418e-03 DIIS
   @RHF iter   3:  -471.00796548673816   -5.71419e-02   3.98535e-04 DIIS
   @RHF iter   4:  -471.01121641835397   -3.25093e-03   1.31932e-04 DIIS
   @RHF iter   5:  -471.01158733387092   -3.70916e-04   2.40447e-05 DIIS
   @RHF iter   6:  -471.01160496100368   -1.76271e-05   7.92893e-06 DIIS
   @RHF iter   7:  -471.01160648065053   -1.51965e-06   2.22908e-06 DIIS
   @RHF iter   8:  -471.01160664815450   -1.67504e-07   8.72490e-07 DIIS
   @RHF iter   9:  -471.01160666511140   -1.69569e-08   3.27250e-07 DIIS
   @RHF iter  10:  -471.01160666735979   -2.24838e-09   6.79619e-08 DIIS
   @RHF iter  11:  -471.01160666755538   -1.95598e-10   2.18668e-08 DIIS
   @RHF iter  12:  -471.01160666757210   -1.67120e-11   9.69426e-09 DIIS
   @RHF iter  13:  -471.01160666757829   -6.19593e-12   3.37045e-09 DIIS
   @RHF iter  14:  -471.01160666757892   -6.25278e-13   1.15307e-09 DIIS
   @RHF iter  15:  -471.01160666757505    3.86535e-12   4.45224e-10 DIIS
   @RHF iter  16:  -471.01160666757545   -3.97904e-13   1.54711e-10 DIIS
   @RHF iter  17:  -471.01160666757687   -1.42109e-12   7.08739e-11 DIIS
  Energy and wave function converged.

  ==> Post-Iterations <==

    Orbital Energies [Eh]
    ---------------------

    Doubly Occupied:

       1A    -20.435211     2A    -20.434086     3A    -15.644101
       4A    -15.603296     5A    -15.602792     6A    -11.422927
       7A    -11.300962     8A    -11.284895     9A    -11.178475
      10A     -1.376263    11A     -1.312772    12A     -1.233929
      13A     -1.221935    14A     -1.200534    15A     -0.987583
      16A     -0.930421    17A     -0.874404    18A     -0.812411
      19A     -0.774155    20A     -0.702115    21A     -0.691736
      22A     -0.667948    23A     -0.649999    24A     -0.628847
      25A     -0.593818    26A     -0.578438    27A     -0.560866
      28A     -0.552846    29A     -0.542655    30A     -0.487503
      31A     -0.462380    32A     -0.453715    33A     -0.413532
      34A     -0.352596    35A     -0.344860    36A     -0.336299

    Virtual:

      37A      0.128991    38A      0.160442    39A      0.181161
      40A      0.208999    41A      0.221397    42A      0.239593
      43A      0.245002    44A      0.248910    45A      0.266377
      46A      0.299662    47A      0.307419    48A      0.339923
      49A      0.363986    50A      0.414556    51A      0.434559
      52A      0.447049    53A      0.486030    54A      0.504216
      55A      0.582917    56A      0.597959    57A      0.605896
      58A      0.612322    59A      0.658642    60A      0.678207
      61A      0.682092    62A      0.689885    63A      0.693997
      64A      0.717869    65A      0.728108    66A      0.768059
      67A      0.800926    68A      0.823791    69A      0.833324
      70A      0.835053    71A      0.851403    72A      0.855778
      73A      0.889837    74A      0.900523    75A      0.914574
      76A      0.917344    77A      0.929899    78A      0.954819
      79A      0.956568    80A      0.975241    81A      0.979019
      82A      0.990392    83A      1.061597    84A      1.071526
      85A      1.078856    86A      1.109993    87A      1.121554
      88A      1.142277    89A      1.200365    90A      1.211671
      91A      1.249687    92A      1.266414    93A      1.282358
      94A      1.305115    95A      1.335993    96A      1.339200
      97A      1.370240    98A      1.391484    99A      1.406077
     100A      1.426205   101A      1.460773   102A      1.498679
     103A      1.500282   104A      1.556546   105A      1.571005
     106A      1.581799   107A      1.632813   108A      1.642355
     109A      1.669202   110A      1.688640   111A      1.703315
     112A      1.708772   113A      1.726237   114A      1.731545
     115A      1.808838   116A      1.825894   117A      1.856673
     118A      1.875810   119A      1.885697   120A      1.904261
     121A      1.913381   122A      1.935527   123A      1.952897
     124A      1.954866   125A      1.969006   126A      1.981670
     127A      1.986158   128A      1.999389   129A      2.051579
     130A      2.084730   131A      2.096480   132A      2.140062
     133A      2.162832   134A      2.171505   135A      2.192434
     136A      2.238455   137A      2.263221   138A      2.271499
     139A      2.302574   140A      2.340386   141A      2.383123
     142A      2.410235   143A      2.420205   144A      2.456798
     145A      2.464604   146A      2.490283   147A      2.509644
     148A      2.515420   149A      2.561849   150A      2.601361
     151A      2.605544   152A      2.625953   153A      2.659984
     154A      2.716284   155A      2.728664   156A      2.758509
     157A      2.789679   158A      2.806283   159A      2.849726
     160A      2.862415   161A      2.872331   162A      2.908632
     163A      2.945510   164A      2.973232   165A      2.977489
     166A      3.057076   167A      3.082306   168A      3.122784
     169A      3.150804   170A      3.178564   171A      3.235268
     172A      3.303600   173A      3.407310   174A      3.451927
     175A      3.608883   176A      3.635065   177A      3.749542
     178A      3.805646   179A      3.876230   180A      3.916226
     181A      4.034619

    Final Occupation by Irrep:
              A
    DOCC [    36 ]

  @RHF Final Energy:  -471.01160666757687

   => Energetics <=

    Nuclear Repulsion Energy =            464.8889538345247843
    One-Electron Energy =               -1566.4985060860494741
    Two-Electron Energy =                 630.5979455839478760
    Total Energy =                       -471.0116066675768707

Computation Completed

Properties will be evaluated at   0.000000,   0.000000,   0.000000 [a0]

Properties computed using the SCF density matrix

  Nuclear Dipole Moment: [e a0]
     X:    -2.3361      Y:    -1.8399      Z:     3.0671

  Electronic Dipole Moment: [e a0]
     X:    -0.6861      Y:     3.2604      Z:    -0.2930

  Dipole Moment: [e a0]
     X:    -3.0222      Y:     1.4205      Z:     2.7741     Total:     4.3413

  Dipole Moment: [D]
     X:    -7.6817      Y:     3.6105      Z:     7.0511     Total:    11.0346

*** tstop() called on ds3 at Tue Apr 28 09:39:31 2020
Module time:
	user time   =      47.86 seconds =       0.80 minutes
	system time =      20.60 seconds =       0.34 minutes
	total time  =         80 seconds =       1.33 minutes
Total time:
	user time   =      47.86 seconds =       0.80 minutes
	system time =      20.60 seconds =       0.34 minutes
	total time  =         80 seconds =       1.33 minutes
                                     G D M A

                                 by Anthony Stone

                           version 2.2.06, 22 June 2011

               Distributed Multipoles from Gaussian wavefunctions

Starting at 9:39:31 on 28 Apr 2020

Using SCF density matrix from file ./SSI/SSI-161ARG-292GLU-1-dimer.test.10959.fchk

                         Distributed Multipole Analysis

Standard DMA

Positions and radii in angstrom
Multipole moments in atomic units, ea_0^k for rank k

C          x = -2.073301  y = -1.330141  z =  1.347325 angstrom
           Maximum rank =  0   Radius =  0.650 angstrom
                   Q00  =  -0.110071

C          x = -1.241301  y =  0.932859  z =  1.000325 angstrom
           Maximum rank =  0   Radius =  0.650 angstrom
                   Q00  =   1.052455

N          x = -1.163301  y = -0.361141  z =  0.733325 angstrom
           Maximum rank =  0   Radius =  0.650 angstrom
                   Q00  =  -0.511814

N          x = -2.171301  y =  1.352859  z =  1.855325 angstrom
           Maximum rank =  0   Radius =  0.650 angstrom
                   Q00  =  -0.584869

N          x = -0.452301  y =  1.810859  z =  0.385325 angstrom
           Maximum rank =  0   Radius =  0.650 angstrom
                   Q00  =  -0.618209

H          x = -0.441301  y = -0.689141  z =  0.087325 angstrom
           Maximum rank =  0   Radius =  0.325 angstrom
                   Q00  =   0.338839

H          x = -3.112301  y = -1.090141  z =  1.107325 angstrom
           Maximum rank =  0   Radius =  0.325 angstrom
                   Q00  =   0.082247

H          x = -1.933301  y = -1.343141  z =  2.430325 angstrom
           Maximum rank =  0   Radius =  0.325 angstrom
                   Q00  =   0.079336

H          x = -2.733301  y =  0.683859  z =  2.376325 angstrom
           Maximum rank =  0   Radius =  0.325 angstrom
                   Q00  =   0.249151

H          x = -2.289301  y =  2.337859  z =  2.026325 angstrom
           Maximum rank =  0   Radius =  0.325 angstrom
                   Q00  =   0.233080

H          x =  0.242699  y =  1.447859  z = -0.277675 angstrom
           Maximum rank =  0   Radius =  0.325 angstrom
                   Q00  =   0.362465

H          x = -0.563301  y =  2.800859  z =  0.522325 angstrom
           Maximum rank =  0   Radius =  0.325 angstrom
                   Q00  =   0.222672

H          x = -1.830691  y = -2.324041  z =  0.943219 angstrom
           Maximum rank =  0   Radius =  0.325 angstrom
                   Q00  =   0.164653

C          x =  3.053699  y = -1.102141  z = -1.836675 angstrom
           Maximum rank =  0   Radius =  0.650 angstrom
                   Q00  =  -0.253117

C          x =  1.719699  y = -0.587141  z = -1.319675 angstrom
           Maximum rank =  0   Radius =  0.650 angstrom
                   Q00  =   0.867814

O          x =  0.890699  y = -1.431141  z = -0.880675 angstrom
           Maximum rank =  0   Radius =  0.650 angstrom
                   Q00  =  -0.920110

O          x =  1.488699  y =  0.665859  z = -1.323675 angstrom
           Maximum rank =  0   Radius =  0.650 angstrom
                   Q00  =  -0.938565

H          x =  2.880699  y = -1.737141  z = -2.708675 angstrom
           Maximum rank =  0   Radius =  0.325 angstrom
                   Q00  =   0.103720

H          x =  3.515699  y = -1.735141  z = -1.083675 angstrom
           Maximum rank =  0   Radius =  0.325 angstrom
                   Q00  =   0.096930

H          x =  3.748529  y = -0.301751  z = -2.130946 angstrom
           Maximum rank =  0   Radius =  0.325 angstrom
                   Q00  =   0.083390

Total multipoles referred to origin at
           x =   0.000000,  y =    0.000000,  z =    0.000000 angstrom
                   Q00  =  -0.000000

Finished at 9:39:31 on 28 Apr 2020

  DMA results are available in the Python driver through the
	  variable('DMA DISTRIBUTED MULTIPOLES')
  and
	  variable('DMA TOTAL MULTIPOLES')
  commands.

    Psi4 stopped on: Tuesday, 28 April 2020 09:39AM
    Psi4 wall time for execution: 0:01:20.08

*** Psi4 exiting successfully. Buy a developer a beer!
