                               Psi4 1.3.2 release

  ==> Input File <==

--------------------------------------------------------------------------
import numpy as np
set {scf_type pk
basis cc-pvdz
d_convergence 10
gdma_switch   0
gdma_limit    0
gdma_origin   [ 0.0,  0.0,  0.0 ]
}
molecule test {
    units Angstrom
    0 1
    --
    0 1
    C                2.003735694026085    -0.231861275921144    -2.018376284015778
    C               -0.475264305973915    -0.390861275921144    -1.581376284015778
    C                0.830735694026085    -0.814861275921144    -1.277376284015778
    C               -1.568264305973915    -0.901861275921144    -0.851376284015778
    C                1.039735694026085    -1.747861275921144    -0.255376284015778
    C               -1.350264305973915    -1.825861275921144     0.162623715984222
    C               -0.050264305973915    -2.249861275921144     0.460623715984222
    H               -0.647264305973915     0.333138724078856    -2.367376284015779
    H               -2.574264305973915    -0.576861275921144    -1.083376284015778
    H                2.624735694026086     0.273138724078856    -1.279376284015778
    H                1.666735694026085     0.521138724078856    -2.732376284015778
    H                2.038735694026085    -2.073861275921144    -0.003376284015778
    H               -2.187264305973915    -2.227861275921144     0.711623715984222
    H                0.110735694026085    -2.979861275921144     1.242623715984222
    H                2.605725694026085    -0.987201275921144    -2.544758284015778
    C                0.059735694026085     1.917138724078856     1.452623715984222
    C               -0.751264305973915     1.998138724078856     2.760623715984222
    C                0.110735694026085     3.258138724078856     0.705623715984222
    H                1.073735694026085     1.585138724078856     1.671623715984222
    H               -0.394264305973915     1.172138724078856     0.798623715984222
    H               -1.688264305973915     2.523138724078856     2.586623715984222
    H                0.433735694026085     4.005138724078856     1.417623715984222
    H               -0.175994305973915     2.499898724078856     3.552646715984222
    H               -1.021284305973915     0.985378724078856     3.094390715984222
    H                0.822535694026085     3.234148724078856    -0.132686284015778
    H               -0.894394305973915     3.496398724078856     0.327540715984222

}
e, wfn = energy('scf', return_wfn=True)
gdma(wfn)
dmavals = variable('DMA DISTRIBUTED MULTIPOLES')
charges = np.array(dmavals)
print(charges)
np.save('SSI-078PHE-179LEU-1-dimer.npy', np.array(charges))--------------------------------------------------------------------------

*** tstart() called on ds3
*** at Sun Apr 26 17:01:41 2020

   => Loading Basis Set <=

    Name: CC-PVDZ
    Role: ORBITAL
    Keyword: BASIS
    atoms 1-7, 16-18  entry C          line   138 file /theoryfs2/ds/metcalf/miniconda2/envs/tf2gpu/share/psi4/basis/cc-pvdz.gbs
    atoms 8-15, 19-26 entry H          line    22 file /theoryfs2/ds/metcalf/miniconda2/envs/tf2gpu/share/psi4/basis/cc-pvdz.gbs

         ---------------------------------------------------------
                                   SCF
               by Justin Turney, Rob Parrish, Andy Simmonett
                          and Daniel G. A. Smith
                              RHF Reference
                        1 Threads,    500 MiB Core
         ---------------------------------------------------------

  ==> Geometry <==

    Molecular point group: c1
    Full point group: C1

    Geometry (in Angstrom), charge = 0, multiplicity = 1:

       Center              X                  Y                   Z               Mass
    ------------   -----------------  -----------------  -----------------  -----------------
         C            2.003735694026    -0.231861275921    -2.018376284016    12.000000000000
         C           -0.475264305974    -0.390861275921    -1.581376284016    12.000000000000
         C            0.830735694026    -0.814861275921    -1.277376284016    12.000000000000
         C           -1.568264305974    -0.901861275921    -0.851376284016    12.000000000000
         C            1.039735694026    -1.747861275921    -0.255376284016    12.000000000000
         C           -1.350264305974    -1.825861275921     0.162623715984    12.000000000000
         C           -0.050264305974    -2.249861275921     0.460623715984    12.000000000000
         H           -0.647264305974     0.333138724079    -2.367376284016     1.007825032230
         H           -2.574264305974    -0.576861275921    -1.083376284016     1.007825032230
         H            2.624735694026     0.273138724079    -1.279376284016     1.007825032230
         H            1.666735694026     0.521138724079    -2.732376284016     1.007825032230
         H            2.038735694026    -2.073861275921    -0.003376284016     1.007825032230
         H           -2.187264305974    -2.227861275921     0.711623715984     1.007825032230
         H            0.110735694026    -2.979861275921     1.242623715984     1.007825032230
         H            2.605725694026    -0.987201275921    -2.544758284016     1.007825032230
         C            0.059735694026     1.917138724079     1.452623715984    12.000000000000
         C           -0.751264305974     1.998138724079     2.760623715984    12.000000000000
         C            0.110735694026     3.258138724079     0.705623715984    12.000000000000
         H            1.073735694026     1.585138724079     1.671623715984     1.007825032230
         H           -0.394264305974     1.172138724079     0.798623715984     1.007825032230
         H           -1.688264305974     2.523138724079     2.586623715984     1.007825032230
         H            0.433735694026     4.005138724079     1.417623715984     1.007825032230
         H           -0.175994305974     2.499898724079     3.552646715984     1.007825032230
         H           -1.021284305974     0.985378724079     3.094390715984     1.007825032230
         H            0.822535694026     3.234148724079    -0.132686284016     1.007825032230
         H           -0.894394305974     3.496398724079     0.327540715984     1.007825032230

  Running in c1 symmetry.

  Rotational constants: A =      0.04880  B =      0.02501  C =      0.02071 [cm^-1]
  Rotational constants: A =   1463.05320  B =    749.80904  C =    620.73717 [MHz]
  Nuclear repulsion =  496.479613625626996

  Charge       = 0
  Multiplicity = 1
  Electrons    = 76
  Nalpha       = 38
  Nbeta        = 38

  ==> Algorithm <==

  SCF Algorithm Type is PK.
  DIIS enabled.
  MOM disabled.
  Fractional occupation disabled.
  Guess Type is SAD.
  Energy threshold   = 1.00e-06
  Density threshold  = 1.00e-10
  Integral threshold = 0.00e+00

  ==> Primary Basis <==

  Basis Set: CC-PVDZ
    Blend: CC-PVDZ
    Number of shells: 108
    Number of basis function: 220
    Number of Cartesian functions: 230
    Spherical Harmonics?: true
    Max angular momentum: 2

  ==> Pre-Iterations <==

   -------------------------------------------------------
    Irrep   Nso     Nmo     Nalpha   Nbeta   Ndocc  Nsocc
   -------------------------------------------------------
     A        220     220       0       0       0       0
   -------------------------------------------------------
    Total     220     220      38      38      38       0
   -------------------------------------------------------

  ==> Integral Setup <==

  Using integral reordering PK algorithm.
  Sizing the integral batches needed.
  Building batch lookup table.
   Calculation information:
      Number of atoms:                  26
      Number of AO shells:             108
      Number of primitives:            300
      Number of atomic orbitals:       230
      Number of basis functions:       220

      Integral cutoff                 1.00e-12
      Number of threads:                 1

	Batch   1 pq = [       0,    9405] index = [             0,44231715] size =     44231715
	Batch   2 pq = [    9405,   13301] index = [      44231715,88464951] size =     44233236
	Batch   3 pq = [   13301,   16290] index = [      88464951,132690195] size =     44225244
	Batch   4 pq = [   16290,   18810] index = [     132690195,176917455] size =     44227260
	Batch   5 pq = [   18810,   21030] index = [     176917455,221140965] size =     44223510
	Batch   6 pq = [   21030,   23037] index = [     221140965,265363203] size =     44222238
	Batch   7 pq = [   23037,   24310] index = [     265363203,295500205] size =     30137002
  Task number: 27
  Buffer size: 11059200
  Buffer per thread: 2
  We computed 16771273 shell quartets total.
  Whereas there are 17325441 unique shell quartets.

  ==> DiskJK: Disk-Based J/K Matrices <==

    J tasked:                  Yes
    K tasked:                  Yes
    wK tasked:                  No
    Memory [MiB]:              375
    Schwarz Cutoff:          1E-12

    OpenMP threads:              1

  Minimum eigenvalue in the overlap matrix is 3.3079290821E-04.
  Using Symmetric Orthogonalization.

  SCF Guess: Superposition of Atomic Densities via on-the-fly atomic UHF.

  ==> Iterations <==

                        Total Energy        Delta E     RMS |[F,P]|

   @RHF iter SAD:  -386.75939478089731   -3.86759e+02   0.00000e+00
   @RHF iter   1:  -387.77498503282504   -1.01559e+00   2.72563e-03 DIIS
   @RHF iter   2:  -387.99109169639786   -2.16107e-01   1.13859e-03 DIIS
   @RHF iter   3:  -388.02531163266639   -3.42199e-02   2.47176e-04 DIIS
   @RHF iter   4:  -388.02814759145502   -2.83596e-03   5.04317e-05 DIIS
   @RHF iter   5:  -388.02823200309660   -8.44116e-05   1.56200e-05 DIIS
   @RHF iter   6:  -388.02823991123427   -7.90814e-06   4.65829e-06 DIIS
   @RHF iter   7:  -388.02824072454530   -8.13311e-07   1.33044e-06 DIIS
   @RHF iter   8:  -388.02824082355710   -9.90118e-08   4.17662e-07 DIIS
   @RHF iter   9:  -388.02824084749244   -2.39353e-08   1.98286e-07 DIIS
   @RHF iter  10:  -388.02824085407985   -6.58741e-09   9.07194e-08 DIIS
   @RHF iter  11:  -388.02824085550100   -1.42114e-09   2.65891e-08 DIIS
   @RHF iter  12:  -388.02824085559104   -9.00400e-11   8.23580e-09 DIIS
   @RHF iter  13:  -388.02824085559342   -2.38742e-12   3.10140e-09 DIIS
   @RHF iter  14:  -388.02824085559678   -3.35376e-12   7.51689e-10 DIIS
   @RHF iter  15:  -388.02824085559610    6.82121e-13   3.48883e-10 DIIS
   @RHF iter  16:  -388.02824085559695   -8.52651e-13   1.75339e-10 DIIS
   @RHF iter  17:  -388.02824085559803   -1.08002e-12   7.59233e-11 DIIS
  Energy and wave function converged.

  ==> Post-Iterations <==

    Orbital Energies [Eh]
    ---------------------

    Doubly Occupied:

       1A    -11.244581     2A    -11.239283     3A    -11.239060
       4A    -11.235171     5A    -11.233576     6A    -11.233021
       7A    -11.229995     8A    -11.210818     9A    -11.210740
      10A    -11.208693    11A     -1.149522    12A     -1.044377
      13A     -1.041503    14A     -1.009925    15A     -0.930865
      16A     -0.915788    17A     -0.825524    18A     -0.794052
      19A     -0.788320    20A     -0.690325    21A     -0.633415
      22A     -0.629204    23A     -0.617519    24A     -0.586810
      25A     -0.583544    26A     -0.577087    27A     -0.562374
      28A     -0.536450    29A     -0.535672    30A     -0.529518
      31A     -0.488948    32A     -0.487312    33A     -0.480701
      34A     -0.462700    35A     -0.461967    36A     -0.452970
      37A     -0.331467    38A     -0.321955

    Virtual:

      39A      0.131041    40A      0.139902    41A      0.168898
      42A      0.193225    43A      0.200057    44A      0.211118
      45A      0.236025    46A      0.241248    47A      0.245571
      48A      0.247794    49A      0.255895    50A      0.269932
      51A      0.276600    52A      0.280649    53A      0.297146
      54A      0.298173    55A      0.305434    56A      0.328984
      57A      0.362166    58A      0.373855    59A      0.383365
      60A      0.426671    61A      0.447733    62A      0.459407
      63A      0.468593    64A      0.497528    65A      0.565526
      66A      0.578983    67A      0.592872    68A      0.600914
      69A      0.608349    70A      0.620763    71A      0.628783
      72A      0.651058    73A      0.674121    74A      0.697841
      75A      0.706117    76A      0.735493    77A      0.737983
      78A      0.745685    79A      0.752115    80A      0.756509
      81A      0.765980    82A      0.781777    83A      0.784794
      84A      0.809650    85A      0.818972    86A      0.844930
      87A      0.851756    88A      0.859688    89A      0.864005
      90A      0.881246    91A      0.882907    92A      0.889120
      93A      0.892098    94A      0.900221    95A      0.901571
      96A      0.905718    97A      0.911878    98A      0.919348
      99A      0.923968   100A      0.935031   101A      0.940828
     102A      0.955736   103A      0.961523   104A      0.980561
     105A      0.985837   106A      0.997594   107A      1.042441
     108A      1.101043   109A      1.120001   110A      1.126443
     111A      1.131544   112A      1.136029   113A      1.150442
     114A      1.161387   115A      1.198486   116A      1.215671
     117A      1.235414   118A      1.242116   119A      1.252727
     120A      1.290616   121A      1.299221   122A      1.310291
     123A      1.320527   124A      1.333670   125A      1.391824
     126A      1.418747   127A      1.462389   128A      1.482965
     129A      1.505455   130A      1.520398   131A      1.546335
     132A      1.566592   133A      1.601635   134A      1.646630
     135A      1.673990   136A      1.675682   137A      1.686999
     138A      1.691896   139A      1.724217   140A      1.732260
     141A      1.736640   142A      1.756177   143A      1.786045
     144A      1.821758   145A      1.850809   146A      1.866764
     147A      1.869421   148A      1.877367   149A      1.880237
     150A      1.897160   151A      1.899870   152A      1.905551
     153A      1.921546   154A      1.928666   155A      1.932812
     156A      1.942293   157A      1.947394   158A      1.955850
     159A      1.963395   160A      1.977725   161A      1.981122
     162A      1.987872   163A      1.996945   164A      2.010165
     165A      2.014956   166A      2.020384   167A      2.035301
     168A      2.045950   169A      2.049383   170A      2.076045
     171A      2.105423   172A      2.127935   173A      2.144180
     174A      2.148864   175A      2.165854   176A      2.167830
     177A      2.179484   178A      2.196230   179A      2.238716
     180A      2.258195   181A      2.277571   182A      2.284890
     183A      2.292583   184A      2.305240   185A      2.316264
     186A      2.318800   187A      2.351792   188A      2.360860
     189A      2.438159   190A      2.465241   191A      2.489742
     192A      2.513165   193A      2.523343   194A      2.545443
     195A      2.578012   196A      2.619849   197A      2.628294
     198A      2.650423   199A      2.720978   200A      2.749912
     201A      2.762312   202A      2.768448   203A      2.775381
     204A      2.785030   205A      2.796280   206A      2.798117
     207A      2.828541   208A      2.842931   209A      2.857623
     210A      2.909810   211A      2.957236   212A      2.963944
     213A      2.976565   214A      3.000986   215A      3.028064
     216A      3.094407   217A      3.147342   218A      3.185466
     219A      3.282575   220A      3.943819

    Final Occupation by Irrep:
              A
    DOCC [    38 ]

  @RHF Final Energy:  -388.02824085559803

   => Energetics <=

    Nuclear Repulsion Energy =            496.4796136256269961
    One-Electron Energy =               -1507.5062067734388620
    Two-Electron Energy =                 622.9983522922137809
    Total Energy =                       -388.0282408555980282

Computation Completed

Properties will be evaluated at   0.000000,   0.000000,   0.000000 [a0]

Properties computed using the SCF density matrix

  Nuclear Dipole Moment: [e a0]
     X:     1.6815      Y:    11.0463      Z:     4.9311

  Electronic Dipole Moment: [e a0]
     X:    -1.5637      Y:   -11.1296      Z:    -5.0339

  Dipole Moment: [e a0]
     X:     0.1178      Y:    -0.0832      Z:    -0.1028     Total:     0.1771

  Dipole Moment: [D]
     X:     0.2995      Y:    -0.2115      Z:    -0.2613     Total:     0.4502

*** tstop() called on ds3 at Sun Apr 26 17:04:20 2020
Module time:
	user time   =     121.22 seconds =       2.02 minutes
	system time =      45.31 seconds =       0.76 minutes
	total time  =        159 seconds =       2.65 minutes
Total time:
	user time   =     121.22 seconds =       2.02 minutes
	system time =      45.31 seconds =       0.76 minutes
	total time  =        159 seconds =       2.65 minutes
                                     G D M A

                                 by Anthony Stone

                           version 2.2.06, 22 June 2011

               Distributed Multipoles from Gaussian wavefunctions

Starting at 17:4:20 on 26 Apr 2020

Using SCF density matrix from file ./SSI/SSI-078PHE-179LEU-1-dimer.test.17271.fchk

                         Distributed Multipole Analysis

Standard DMA

Positions and radii in angstrom
Multipole moments in atomic units, ea_0^k for rank k

C          x =  2.003736  y = -0.231861  z = -2.018376 angstrom
           Maximum rank =  0   Radius =  0.650 angstrom
                   Q00  =  -0.198237

C          x = -0.475264  y = -0.390861  z = -1.581376 angstrom
           Maximum rank =  0   Radius =  0.650 angstrom
                   Q00  =  -0.078747

C          x =  0.830736  y = -0.814861  z = -1.277376 angstrom
           Maximum rank =  0   Radius =  0.650 angstrom
                   Q00  =  -0.096792

C          x = -1.568264  y = -0.901861  z = -0.851376 angstrom
           Maximum rank =  0   Radius =  0.650 angstrom
                   Q00  =  -0.073477

C          x =  1.039736  y = -1.747861  z = -0.255376 angstrom
           Maximum rank =  0   Radius =  0.650 angstrom
                   Q00  =  -0.091038

C          x = -1.350264  y = -1.825861  z =  0.162624 angstrom
           Maximum rank =  0   Radius =  0.650 angstrom
                   Q00  =  -0.089039

C          x = -0.050264  y = -2.249861  z =  0.460624 angstrom
           Maximum rank =  0   Radius =  0.650 angstrom
                   Q00  =   0.012644

H          x = -0.647264  y =  0.333139  z = -2.367376 angstrom
           Maximum rank =  0   Radius =  0.325 angstrom
                   Q00  =   0.063542

H          x = -2.574264  y = -0.576861  z = -1.083376 angstrom
           Maximum rank =  0   Radius =  0.325 angstrom
                   Q00  =   0.067507

H          x =  2.624736  y =  0.273139  z = -1.279376 angstrom
           Maximum rank =  0   Radius =  0.325 angstrom
                   Q00  =   0.100025

H          x =  1.666736  y =  0.521139  z = -2.732376 angstrom
           Maximum rank =  0   Radius =  0.325 angstrom
                   Q00  =   0.098058

H          x =  2.038736  y = -2.073861  z = -0.003376 angstrom
           Maximum rank =  0   Radius =  0.325 angstrom
                   Q00  =   0.059097

H          x = -2.187264  y = -2.227861  z =  0.711624 angstrom
           Maximum rank =  0   Radius =  0.325 angstrom
                   Q00  =   0.062092

H          x =  0.110736  y = -2.979861  z =  1.242624 angstrom
           Maximum rank =  0   Radius =  0.325 angstrom
                   Q00  =   0.066790

H          x =  2.605726  y = -0.987201  z = -2.544758 angstrom
           Maximum rank =  0   Radius =  0.325 angstrom
                   Q00  =   0.102430

C          x =  0.059736  y =  1.917139  z =  1.452624 angstrom
           Maximum rank =  0   Radius =  0.650 angstrom
                   Q00  =  -0.102389

C          x = -0.751264  y =  1.998139  z =  2.760624 angstrom
           Maximum rank =  0   Radius =  0.650 angstrom
                   Q00  =  -0.247837

C          x =  0.110736  y =  3.258139  z =  0.705624 angstrom
           Maximum rank =  0   Radius =  0.650 angstrom
                   Q00  =  -0.225993

H          x =  1.073736  y =  1.585139  z =  1.671624 angstrom
           Maximum rank =  0   Radius =  0.325 angstrom
                   Q00  =   0.044596

H          x = -0.394264  y =  1.172139  z =  0.798624 angstrom
           Maximum rank =  0   Radius =  0.325 angstrom
                   Q00  =   0.067127

H          x = -1.688264  y =  2.523139  z =  2.586624 angstrom
           Maximum rank =  0   Radius =  0.325 angstrom
                   Q00  =   0.074057

H          x =  0.433736  y =  4.005139  z =  1.417624 angstrom
           Maximum rank =  0   Radius =  0.325 angstrom
                   Q00  =   0.072392

H          x = -0.175994  y =  2.499899  z =  3.552647 angstrom
           Maximum rank =  0   Radius =  0.325 angstrom
                   Q00  =   0.077305

H          x = -1.021284  y =  0.985379  z =  3.094391 angstrom
           Maximum rank =  0   Radius =  0.325 angstrom
                   Q00  =   0.081812

H          x =  0.822536  y =  3.234149  z = -0.132686 angstrom
           Maximum rank =  0   Radius =  0.325 angstrom
                   Q00  =   0.079990

H          x = -0.894394  y =  3.496399  z =  0.327541 angstrom
           Maximum rank =  0   Radius =  0.325 angstrom
                   Q00  =   0.074087

Total multipoles referred to origin at
           x =   0.000000,  y =    0.000000,  z =    0.000000 angstrom
                   Q00  =  -0.000000

Finished at 17:4:20 on 26 Apr 2020

  DMA results are available in the Python driver through the
	  variable('DMA DISTRIBUTED MULTIPOLES')
  and
	  variable('DMA TOTAL MULTIPOLES')
  commands.

    Psi4 stopped on: Sunday, 26 April 2020 05:04PM
    Psi4 wall time for execution: 0:02:39.52

*** Psi4 exiting successfully. Buy a developer a beer!
