                               Psi4 1.3.2 release

  ==> Input File <==

--------------------------------------------------------------------------
import numpy as np
set {scf_type pk
basis cc-pvdz
d_convergence 10
gdma_switch   0
gdma_limit    0
gdma_origin   [ 0.0,  0.0,  0.0 ]
}
molecule test {
    units Angstrom
    0 1
    --
    0 1
    C               -1.262337427337517     0.123799948312818     2.064292473677745
    C               -1.416337427337517    -1.302200051687182     2.583292473677745
    H               -0.240337427337517     0.296799948312818     1.726292473677745
    H               -1.949337427337517     0.289799948312818     1.234292473677746
    H               -1.499337427337517     0.832799948312818     2.857292473677745
    H               -2.443337427337517    -1.434200051687182     2.922292473677745
    H               -0.721237427337517    -1.458185051687182     3.421443473677745
    H               -1.202427427337517    -2.019811051687181     1.777515473677745
    C                0.289662572662483     0.246799948312818    -1.456707526322255
    C                1.274662572662483    -0.450200051687182    -2.380707526322255
    C                1.127662572662483     1.388799948312818    -0.898707526322255
    H               -0.061337427337517    -0.422200051687182    -0.671707526322255
    H               -0.550337427337517     0.643799948312818    -2.029707526322255
    H                1.919662572662483    -1.125200051687182    -1.821707526322255
    H                0.729662572662483    -0.985200051687182    -3.159707526322255
    H                1.831662572662483     1.000799948312818    -0.161707526322255
    H                0.507662572662483     2.169799948312818    -0.459707526322255
    H                1.868352572662483     0.384119948312818    -2.782500446322254
    H                1.652172572662483     1.743531948312818    -1.798180826322255

}
e, wfn = energy('scf', return_wfn=True)
gdma(wfn)
dmavals = variable('DMA DISTRIBUTED MULTIPOLES')
charges = np.array(dmavals)
print(charges)
np.save('SSI-014LEU-174PRO-1-dimer.npy', np.array(charges))--------------------------------------------------------------------------

*** tstart() called on ds3
*** at Tue Apr 28 21:45:36 2020

   => Loading Basis Set <=

    Name: CC-PVDZ
    Role: ORBITAL
    Keyword: BASIS
    atoms 1-2, 9-11  entry C          line   138 file /theoryfs2/ds/metcalf/miniconda2/envs/tf2gpu/share/psi4/basis/cc-pvdz.gbs
    atoms 3-8, 12-19 entry H          line    22 file /theoryfs2/ds/metcalf/miniconda2/envs/tf2gpu/share/psi4/basis/cc-pvdz.gbs

         ---------------------------------------------------------
                                   SCF
               by Justin Turney, Rob Parrish, Andy Simmonett
                          and Daniel G. A. Smith
                              RHF Reference
                        1 Threads,    500 MiB Core
         ---------------------------------------------------------

  ==> Geometry <==

    Molecular point group: c1
    Full point group: C1

    Geometry (in Angstrom), charge = 0, multiplicity = 1:

       Center              X                  Y                   Z               Mass
    ------------   -----------------  -----------------  -----------------  -----------------
         C           -1.262337427338     0.123799948313     2.064292473678    12.000000000000
         C           -1.416337427338    -1.302200051687     2.583292473678    12.000000000000
         H           -0.240337427338     0.296799948313     1.726292473678     1.007825032230
         H           -1.949337427338     0.289799948313     1.234292473678     1.007825032230
         H           -1.499337427338     0.832799948313     2.857292473678     1.007825032230
         H           -2.443337427338    -1.434200051687     2.922292473678     1.007825032230
         H           -0.721237427338    -1.458185051687     3.421443473678     1.007825032230
         H           -1.202427427338    -2.019811051687     1.777515473678     1.007825032230
         C            0.289662572662     0.246799948313    -1.456707526322    12.000000000000
         C            1.274662572662    -0.450200051687    -2.380707526322    12.000000000000
         C            1.127662572662     1.388799948313    -0.898707526322    12.000000000000
         H           -0.061337427338    -0.422200051687    -0.671707526322     1.007825032230
         H           -0.550337427338     0.643799948313    -2.029707526322     1.007825032230
         H            1.919662572662    -1.125200051687    -1.821707526322     1.007825032230
         H            0.729662572662    -0.985200051687    -3.159707526322     1.007825032230
         H            1.831662572662     1.000799948313    -0.161707526322     1.007825032230
         H            0.507662572662     2.169799948313    -0.459707526322     1.007825032230
         H            1.868352572662     0.384119948313    -2.782500446322     1.007825032230
         H            1.652172572662     1.743531948313    -1.798180826322     1.007825032230

  Running in c1 symmetry.

  Rotational constants: A =      0.24016  B =      0.04020  C =      0.03653 [cm^-1]
  Rotational constants: A =   7199.90450  B =   1205.27518  C =   1095.10748 [MHz]
  Nuclear repulsion =  179.502467392249372

  Charge       = 0
  Multiplicity = 1
  Electrons    = 44
  Nalpha       = 22
  Nbeta        = 22

  ==> Algorithm <==

  SCF Algorithm Type is PK.
  DIIS enabled.
  MOM disabled.
  Fractional occupation disabled.
  Guess Type is SAD.
  Energy threshold   = 1.00e-06
  Density threshold  = 1.00e-10
  Integral threshold = 0.00e+00

  ==> Primary Basis <==

  Basis Set: CC-PVDZ
    Blend: CC-PVDZ
    Number of shells: 72
    Number of basis function: 140
    Number of Cartesian functions: 145
    Spherical Harmonics?: true
    Max angular momentum: 2

  ==> Pre-Iterations <==

   -------------------------------------------------------
    Irrep   Nso     Nmo     Nalpha   Nbeta   Ndocc  Nsocc
   -------------------------------------------------------
     A        140     140       0       0       0       0
   -------------------------------------------------------
    Total     140     140      22      22      22       0
   -------------------------------------------------------

  ==> Integral Setup <==

  Using integral reordering PK algorithm.
  Sizing the integral batches needed.
  Building batch lookup table.
   Calculation information:
      Number of atoms:                  19
      Number of AO shells:              72
      Number of primitives:            180
      Number of atomic orbitals:       145
      Number of basis functions:       140

      Integral cutoff                 1.00e-12
      Number of threads:                 1

	Batch   1 pq = [       0,    9405] index = [             0,44231715] size =     44231715
	Batch   2 pq = [    9405,    9870] index = [      44231715,48713385] size =      4481670
  Task number: 5
  Buffer size: 11059200
  Buffer per thread: 2
  We computed 2879476 shell quartets total.
  Whereas there are 3454506 unique shell quartets.

  ==> DiskJK: Disk-Based J/K Matrices <==

    J tasked:                  Yes
    K tasked:                  Yes
    wK tasked:                  No
    Memory [MiB]:              375
    Schwarz Cutoff:          1E-12

    OpenMP threads:              1

  Minimum eigenvalue in the overlap matrix is 5.1191963774E-03.
  Using Symmetric Orthogonalization.

  SCF Guess: Superposition of Atomic Densities via on-the-fly atomic UHF.

  ==> Iterations <==

                        Total Energy        Delta E     RMS |[F,P]|

   @RHF iter SAD:  -196.50997315325338   -1.96510e+02   0.00000e+00
   @RHF iter   1:  -197.29118224027633   -7.81209e-01   3.86064e-03 DIIS
   @RHF iter   2:  -197.45339061970532   -1.62208e-01   1.68406e-03 DIIS
   @RHF iter   3:  -197.48312900690735   -2.97384e-02   3.29833e-04 DIIS
   @RHF iter   4:  -197.48535712634958   -2.22812e-03   4.95984e-05 DIIS
   @RHF iter   5:  -197.48539766783227   -4.05415e-05   1.53650e-05 DIIS
   @RHF iter   6:  -197.48540128013377   -3.61230e-06   2.61795e-06 DIIS
   @RHF iter   7:  -197.48540140494876   -1.24815e-07   4.55869e-07 DIIS
   @RHF iter   8:  -197.48540140920417   -4.25541e-09   9.80663e-08 DIIS
   @RHF iter   9:  -197.48540140939389   -1.89715e-10   3.16449e-08 DIIS
   @RHF iter  10:  -197.48540140941455   -2.06626e-11   7.49324e-09 DIIS
   @RHF iter  11:  -197.48540140941560   -1.05160e-12   1.45725e-09 DIIS
   @RHF iter  12:  -197.48540140941537    2.27374e-13   2.89567e-10 DIIS
   @RHF iter  13:  -197.48540140941606   -6.82121e-13   5.39820e-11 DIIS
  Energy and wave function converged.

  ==> Post-Iterations <==

    Orbital Energies [Eh]
    ---------------------

    Doubly Occupied:

       1A    -11.219640     2A    -11.216142     3A    -11.215375
       4A    -11.213348     5A    -11.212189     6A     -1.067453
       7A     -1.019884     8A     -0.912231     9A     -0.835623
      10A     -0.798446    11A     -0.640644    12A     -0.611293
      13A     -0.600385    14A     -0.598584    15A     -0.542606
      16A     -0.510015    17A     -0.498691    18A     -0.487349
      19A     -0.486601    20A     -0.479628    21A     -0.474218
      22A     -0.455875

    Virtual:

      23A      0.169503    24A      0.196547    25A      0.214342
      26A      0.220025    27A      0.234222    28A      0.250269
      29A      0.256293    30A      0.265348    31A      0.278669
      32A      0.281161    33A      0.288170    34A      0.313813
      35A      0.333365    36A      0.344255    37A      0.377209
      38A      0.399555    39A      0.425202    40A      0.568264
      41A      0.577719    42A      0.602094    43A      0.617058
      44A      0.625453    45A      0.627739    46A      0.631682
      47A      0.665770    48A      0.686574    49A      0.766139
      50A      0.786467    51A      0.823705    52A      0.846092
      53A      0.853581    54A      0.879847    55A      0.884854
      56A      0.889083    57A      0.893655    58A      0.895893
      59A      0.903006    60A      0.903679    61A      0.910777
      62A      0.920189    63A      0.923116    64A      0.942956
      65A      0.955076    66A      0.963981    67A      1.015569
      68A      1.032871    69A      1.094233    70A      1.123922
      71A      1.130334    72A      1.149415    73A      1.209292
      74A      1.244120    75A      1.394469    76A      1.449113
      77A      1.471394    78A      1.482103    79A      1.496610
      80A      1.584904    81A      1.616331    82A      1.623491
      83A      1.636430    84A      1.676105    85A      1.691822
      86A      1.738106    87A      1.749912    88A      1.798622
      89A      1.854264    90A      1.855350    91A      1.863054
      92A      1.884870    93A      1.896891    94A      1.910726
      95A      1.926230    96A      1.933352    97A      1.945258
      98A      1.949646    99A      1.955436   100A      1.957815
     101A      1.971888   102A      1.977951   103A      2.010991
     104A      2.021015   105A      2.029715   106A      2.056383
     107A      2.106843   108A      2.121767   109A      2.125722
     110A      2.147041   111A      2.166447   112A      2.228589
     113A      2.287980   114A      2.305306   115A      2.320240
     116A      2.342599   117A      2.439812   118A      2.457694
     119A      2.463514   120A      2.478233   121A      2.506910
     122A      2.549915   123A      2.569305   124A      2.573168
     125A      2.637901   126A      2.691391   127A      2.753463
     128A      2.762813   129A      2.780196   130A      2.796590
     131A      2.808247   132A      2.841111   133A      2.847770
     134A      2.852743   135A      2.884886   136A      2.939034
     137A      2.946844   138A      2.957892   139A      2.966617
     140A      3.057805

    Final Occupation by Irrep:
              A
    DOCC [    22 ]

  @RHF Final Energy:  -197.48540140941606

   => Energetics <=

    Nuclear Repulsion Energy =            179.5024673922493719
    One-Electron Energy =                -619.7833025975666033
    Two-Electron Energy =                 242.7954337959011468
    Total Energy =                       -197.4854014094160561

Computation Completed

Properties will be evaluated at   0.000000,   0.000000,   0.000000 [a0]

Properties computed using the SCF density matrix

  Nuclear Dipole Moment: [e a0]
     X:    -0.1486      Y:    -0.0781      Z:     0.9883

  Electronic Dipole Moment: [e a0]
     X:     0.1027      Y:     0.0769      Z:    -0.9679

  Dipole Moment: [e a0]
     X:    -0.0459      Y:    -0.0013      Z:     0.0203     Total:     0.0502

  Dipole Moment: [D]
     X:    -0.1166      Y:    -0.0032      Z:     0.0517     Total:     0.1276

*** tstop() called on ds3 at Tue Apr 28 21:45:56 2020
Module time:
	user time   =      14.47 seconds =       0.24 minutes
	system time =       5.82 seconds =       0.10 minutes
	total time  =         20 seconds =       0.33 minutes
Total time:
	user time   =      14.47 seconds =       0.24 minutes
	system time =       5.82 seconds =       0.10 minutes
	total time  =         20 seconds =       0.33 minutes
                                     G D M A

                                 by Anthony Stone

                           version 2.2.06, 22 June 2011

               Distributed Multipoles from Gaussian wavefunctions

Starting at 21:45:56 on 28 Apr 2020

Using SCF density matrix from file ./SSI/SSI-014LEU-174PRO-1-dimer.test.28593.fchk

                         Distributed Multipole Analysis

Standard DMA

Positions and radii in angstrom
Multipole moments in atomic units, ea_0^k for rank k

C          x = -1.262337  y =  0.123800  z =  2.064292 angstrom
           Maximum rank =  0   Radius =  0.650 angstrom
                   Q00  =  -0.232390

C          x = -1.416337  y = -1.302200  z =  2.583292 angstrom
           Maximum rank =  0   Radius =  0.650 angstrom
                   Q00  =  -0.238875

H          x = -0.240337  y =  0.296800  z =  1.726292 angstrom
           Maximum rank =  0   Radius =  0.325 angstrom
                   Q00  =   0.079376

H          x = -1.949337  y =  0.289800  z =  1.234292 angstrom
           Maximum rank =  0   Radius =  0.325 angstrom
                   Q00  =   0.078347

H          x = -1.499337  y =  0.832800  z =  2.857292 angstrom
           Maximum rank =  0   Radius =  0.325 angstrom
                   Q00  =   0.078459

H          x = -2.443337  y = -1.434200  z =  2.922292 angstrom
           Maximum rank =  0   Radius =  0.325 angstrom
                   Q00  =   0.079677

H          x = -0.721237  y = -1.458185  z =  3.421443 angstrom
           Maximum rank =  0   Radius =  0.325 angstrom
                   Q00  =   0.078014

H          x = -1.202427  y = -2.019811  z =  1.777515 angstrom
           Maximum rank =  0   Radius =  0.325 angstrom
                   Q00  =   0.077225

C          x =  0.289663  y =  0.246800  z = -1.456708 angstrom
           Maximum rank =  0   Radius =  0.650 angstrom
                   Q00  =  -0.081608

C          x =  1.274663  y = -0.450200  z = -2.380708 angstrom
           Maximum rank =  0   Radius =  0.650 angstrom
                   Q00  =  -0.237786

C          x =  1.127663  y =  1.388800  z = -0.898708 angstrom
           Maximum rank =  0   Radius =  0.650 angstrom
                   Q00  =  -0.219131

H          x = -0.061337  y = -0.422200  z = -0.671708 angstrom
           Maximum rank =  0   Radius =  0.325 angstrom
                   Q00  =   0.058295

H          x = -0.550337  y =  0.643800  z = -2.029708 angstrom
           Maximum rank =  0   Radius =  0.325 angstrom
                   Q00  =   0.053085

H          x =  1.919663  y = -1.125200  z = -1.821708 angstrom
           Maximum rank =  0   Radius =  0.325 angstrom
                   Q00  =   0.080756

H          x =  0.729663  y = -0.985200  z = -3.159708 angstrom
           Maximum rank =  0   Radius =  0.325 angstrom
                   Q00  =   0.079192

H          x =  1.831663  y =  1.000800  z = -0.161708 angstrom
           Maximum rank =  0   Radius =  0.325 angstrom
                   Q00  =   0.076918

H          x =  0.507663  y =  2.169800  z = -0.459708 angstrom
           Maximum rank =  0   Radius =  0.325 angstrom
                   Q00  =   0.081844

H          x =  1.868353  y =  0.384120  z = -2.782500 angstrom
           Maximum rank =  0   Radius =  0.325 angstrom
                   Q00  =   0.058457

H          x =  1.652173  y =  1.743532  z = -1.798181 angstrom
           Maximum rank =  0   Radius =  0.325 angstrom
                   Q00  =   0.050145

Total multipoles referred to origin at
           x =   0.000000,  y =    0.000000,  z =    0.000000 angstrom
                   Q00  =  -0.000000

Finished at 21:45:56 on 28 Apr 2020

  DMA results are available in the Python driver through the
	  variable('DMA DISTRIBUTED MULTIPOLES')
  and
	  variable('DMA TOTAL MULTIPOLES')
  commands.

    Psi4 stopped on: Tuesday, 28 April 2020 09:45PM
    Psi4 wall time for execution: 0:00:20.05

*** Psi4 exiting successfully. Buy a developer a beer!
