                               Psi4 1.3.2 release

  ==> Input File <==

--------------------------------------------------------------------------
import numpy as np
set {scf_type pk
basis cc-pvdz
d_convergence 10
gdma_switch   0
gdma_limit    0
gdma_origin   [ 0.0,  0.0,  0.0 ]
}
molecule test {
    units Angstrom
    0 1
    --
    0 1
    C                1.542873355519824     1.429876898052632     0.593439209256514
    C                2.844873355519825     0.827876898052632     1.114439209256514
    C                1.010873355519824     2.620876898052632     1.396439209256514
    H                1.640873355519824     1.695876898052632    -0.459560790743486
    H                0.803873355519825     0.646876898052632     0.705439209256514
    H                3.627873355519824     1.584876898052632     1.119439209256514
    H                1.011873355519824     2.394876898052632     2.460439209256514
    H                3.159233355519825    -0.027683101947368     0.498649209256514
    H                2.691743355519824     0.438886898052632     2.131909209256514
    H                1.635823355519824     3.508696898052632     1.219749209256514
    H               -0.030276644480176     2.822596898052632     1.104339209256514
    C               -1.080126644480176    -0.971123101947368    -0.753560790743486
    C               -0.613126644480176    -2.313123101947368    -0.155560790743486
    C               -1.423126644480175    -1.164123101947368    -2.238560790743486
    C               -2.313126644480175    -0.455123101947368    -0.012560790743486
    H               -0.299126644480176    -0.227123101947368    -0.716560790743486
    H               -1.421126644480176    -3.026123101947368    -0.295560790743486
    H               -2.160126644480175    -1.959123101947368    -2.356560790743486
    H               -1.840126644480176    -0.241123101947368    -2.638560790743486
    H               -0.534126644480176    -1.407123101947368    -2.819560790743486
    H               -2.080126644480175    -0.271123101947368     1.035439209256514
    H               -2.642126644480175     0.482876898052632    -0.461560790743486
    H               -3.128126644480175    -1.174123101947368    -0.077560790743486
    H               -0.342146644480176    -2.267203101947368     0.909549209256514
    H                0.273903355519824    -2.678793101947368    -0.693570790743486

}
e, wfn = energy('scf', return_wfn=True)
gdma(wfn)
dmavals = variable('DMA DISTRIBUTED MULTIPOLES')
charges = np.array(dmavals)
print(charges)
np.save('SSI-068LEU-081VAL-1-dimer.npy', np.array(charges))--------------------------------------------------------------------------

*** tstart() called on ds3
*** at Mon Apr 27 16:26:48 2020

   => Loading Basis Set <=

    Name: CC-PVDZ
    Role: ORBITAL
    Keyword: BASIS
    atoms 1-3, 12-15  entry C          line   138 file /theoryfs2/ds/metcalf/miniconda2/envs/tf2gpu/share/psi4/basis/cc-pvdz.gbs
    atoms 4-11, 16-25 entry H          line    22 file /theoryfs2/ds/metcalf/miniconda2/envs/tf2gpu/share/psi4/basis/cc-pvdz.gbs

         ---------------------------------------------------------
                                   SCF
               by Justin Turney, Rob Parrish, Andy Simmonett
                          and Daniel G. A. Smith
                              RHF Reference
                        1 Threads,    500 MiB Core
         ---------------------------------------------------------

  ==> Geometry <==

    Molecular point group: c1
    Full point group: C1

    Geometry (in Angstrom), charge = 0, multiplicity = 1:

       Center              X                  Y                   Z               Mass
    ------------   -----------------  -----------------  -----------------  -----------------
         C            1.542873355520     1.429876898053     0.593439209257    12.000000000000
         C            2.844873355520     0.827876898053     1.114439209257    12.000000000000
         C            1.010873355520     2.620876898053     1.396439209257    12.000000000000
         H            1.640873355520     1.695876898053    -0.459560790743     1.007825032230
         H            0.803873355520     0.646876898053     0.705439209257     1.007825032230
         H            3.627873355520     1.584876898053     1.119439209257     1.007825032230
         H            1.011873355520     2.394876898053     2.460439209257     1.007825032230
         H            3.159233355520    -0.027683101947     0.498649209257     1.007825032230
         H            2.691743355520     0.438886898053     2.131909209257     1.007825032230
         H            1.635823355520     3.508696898053     1.219749209257     1.007825032230
         H           -0.030276644480     2.822596898053     1.104339209257     1.007825032230
         C           -1.080126644480    -0.971123101947    -0.753560790743    12.000000000000
         C           -0.613126644480    -2.313123101947    -0.155560790743    12.000000000000
         C           -1.423126644480    -1.164123101947    -2.238560790743    12.000000000000
         C           -2.313126644480    -0.455123101947    -0.012560790743    12.000000000000
         H           -0.299126644480    -0.227123101947    -0.716560790743     1.007825032230
         H           -1.421126644480    -3.026123101947    -0.295560790743     1.007825032230
         H           -2.160126644480    -1.959123101947    -2.356560790743     1.007825032230
         H           -1.840126644480    -0.241123101947    -2.638560790743     1.007825032230
         H           -0.534126644480    -1.407123101947    -2.819560790743     1.007825032230
         H           -2.080126644480    -0.271123101947     1.035439209257     1.007825032230
         H           -2.642126644480     0.482876898053    -0.461560790743     1.007825032230
         H           -3.128126644480    -1.174123101947    -0.077560790743     1.007825032230
         H           -0.342146644480    -2.267203101947     0.909549209257     1.007825032230
         H            0.273903355520    -2.678793101947    -0.693570790743     1.007825032230

  Running in c1 symmetry.

  Rotational constants: A =      0.09993  B =      0.02707  C =      0.02484 [cm^-1]
  Rotational constants: A =   2995.91008  B =    811.63409  C =    744.76947 [MHz]
  Nuclear repulsion =  313.033680356764080

  Charge       = 0
  Multiplicity = 1
  Electrons    = 60
  Nalpha       = 30
  Nbeta        = 30

  ==> Algorithm <==

  SCF Algorithm Type is PK.
  DIIS enabled.
  MOM disabled.
  Fractional occupation disabled.
  Guess Type is SAD.
  Energy threshold   = 1.00e-06
  Density threshold  = 1.00e-10
  Integral threshold = 0.00e+00

  ==> Primary Basis <==

  Basis Set: CC-PVDZ
    Blend: CC-PVDZ
    Number of shells: 96
    Number of basis function: 188
    Number of Cartesian functions: 195
    Spherical Harmonics?: true
    Max angular momentum: 2

  ==> Pre-Iterations <==

   -------------------------------------------------------
    Irrep   Nso     Nmo     Nalpha   Nbeta   Ndocc  Nsocc
   -------------------------------------------------------
     A        188     188       0       0       0       0
   -------------------------------------------------------
    Total     188     188      30      30      30       0
   -------------------------------------------------------

  ==> Integral Setup <==

  Using integral reordering PK algorithm.
  Sizing the integral batches needed.
  Building batch lookup table.
   Calculation information:
      Number of atoms:                  25
      Number of AO shells:              96
      Number of primitives:            244
      Number of atomic orbitals:       195
      Number of basis functions:       188

      Integral cutoff                 1.00e-12
      Number of threads:                 1

	Batch   1 pq = [       0,    9405] index = [             0,44231715] size =     44231715
	Batch   2 pq = [    9405,   13301] index = [      44231715,88464951] size =     44233236
	Batch   3 pq = [   13301,   16290] index = [      88464951,132690195] size =     44225244
	Batch   4 pq = [   16290,   17766] index = [     132690195,157824261] size =     25134066
  Task number: 15
  Buffer size: 11059200
  Buffer per thread: 2
  We computed 9713997 shell quartets total.
  Whereas there are 10841496 unique shell quartets.

  ==> DiskJK: Disk-Based J/K Matrices <==

    J tasked:                  Yes
    K tasked:                  Yes
    wK tasked:                  No
    Memory [MiB]:              375
    Schwarz Cutoff:          1E-12

    OpenMP threads:              1

  Minimum eigenvalue in the overlap matrix is 4.5487230601E-03.
  Using Symmetric Orthogonalization.

  SCF Guess: Superposition of Atomic Densities via on-the-fly atomic UHF.

  ==> Iterations <==

                        Total Energy        Delta E     RMS |[F,P]|

   @RHF iter SAD:  -274.41742803376394   -2.74417e+02   0.00000e+00
   @RHF iter   1:  -275.31740669534253   -8.99979e-01   3.26865e-03 DIIS
   @RHF iter   2:  -275.53349428543186   -2.16088e-01   1.42021e-03 DIIS
   @RHF iter   3:  -275.57179352353415   -3.82992e-02   2.93113e-04 DIIS
   @RHF iter   4:  -275.57479576110632   -3.00224e-03   6.14496e-05 DIIS
   @RHF iter   5:  -275.57488564527449   -8.98842e-05   1.42139e-05 DIIS
   @RHF iter   6:  -275.57489164512174   -5.99985e-06   2.60039e-06 DIIS
   @RHF iter   7:  -275.57489185474896   -2.09627e-07   6.26859e-07 DIIS
   @RHF iter   8:  -275.57489186851524   -1.37663e-08   1.61598e-07 DIIS
   @RHF iter   9:  -275.57489186930832   -7.93079e-10   3.97279e-08 DIIS
   @RHF iter  10:  -275.57489186937073   -6.24141e-11   7.04573e-09 DIIS
   @RHF iter  11:  -275.57489186937391   -3.18323e-12   1.60168e-09 DIIS
   @RHF iter  12:  -275.57489186937477   -8.52651e-13   4.03522e-10 DIIS
   @RHF iter  13:  -275.57489186937363    1.13687e-12   7.99115e-11 DIIS
  Energy and wave function converged.

  ==> Post-Iterations <==

    Orbital Energies [Eh]
    ---------------------

    Doubly Occupied:

       1A    -11.222259     2A    -11.218977     3A    -11.218134
       4A    -11.217616     5A    -11.216355     6A    -11.213169
       7A    -11.212599     8A     -1.080159     9A     -1.053623
      10A     -0.926121    11A     -0.925603    12A     -0.923602
      13A     -0.797455    14A     -0.766513    15A     -0.636205
      16A     -0.626927    17A     -0.592582    18A     -0.588886
      19A     -0.582235    20A     -0.548935    21A     -0.535769
      22A     -0.534528    23A     -0.532403    24A     -0.506482
      25A     -0.476074    26A     -0.474442    27A     -0.472639
      28A     -0.457195    29A     -0.455183    30A     -0.447724

    Virtual:

      31A      0.161872    32A      0.195632    33A      0.206402
      34A      0.206773    35A      0.226763    36A      0.242030
      37A      0.246530    38A      0.249220    39A      0.256563
      40A      0.263941    41A      0.276360    42A      0.289845
      43A      0.300434    44A      0.305402    45A      0.307143
      46A      0.313079    47A      0.327465    48A      0.337702
      49A      0.361895    50A      0.390867    51A      0.401999
      52A      0.415620    53A      0.428921    54A      0.557883
      55A      0.561996    56A      0.573010    57A      0.605315
      58A      0.606380    59A      0.617035    60A      0.619762
      61A      0.635219    62A      0.649901    63A      0.716343
      64A      0.771354    65A      0.783079    66A      0.785706
      67A      0.800500    68A      0.806350    69A      0.831276
      70A      0.856858    71A      0.860787    72A      0.866219
      73A      0.876525    74A      0.886912    75A      0.889781
      76A      0.899016    77A      0.899371    78A      0.901436
      79A      0.905283    80A      0.907366    81A      0.911688
      82A      0.918514    83A      0.923037    84A      0.928497
      85A      0.937127    86A      0.951576    87A      0.956708
      88A      0.966548    89A      0.983974    90A      0.999765
      91A      1.012379    92A      1.071712    93A      1.117263
      94A      1.131648    95A      1.135098    96A      1.143221
      97A      1.234664    98A      1.253537    99A      1.366648
     100A      1.372195   101A      1.397466   102A      1.417585
     103A      1.462335   104A      1.493511   105A      1.519815
     106A      1.551512   107A      1.561194   108A      1.636836
     109A      1.654670   110A      1.670893   111A      1.681170
     112A      1.685723   113A      1.688573   114A      1.693592
     115A      1.698036   116A      1.703309   117A      1.714852
     118A      1.728194   119A      1.835022   120A      1.839085
     121A      1.861861   122A      1.871847   123A      1.880476
     124A      1.894930   125A      1.905056   126A      1.921658
     127A      1.925714   128A      1.939701   129A      1.946733
     130A      1.952582   131A      1.959108   132A      1.965991
     133A      1.975975   134A      1.983210   135A      1.991114
     136A      1.998859   137A      2.001767   138A      2.010003
     139A      2.015886   140A      2.031615   141A      2.042388
     142A      2.071918   143A      2.077354   144A      2.110128
     145A      2.117547   146A      2.124622   147A      2.144502
     148A      2.168763   149A      2.251945   150A      2.262067
     151A      2.279512   152A      2.300621   153A      2.304272
     154A      2.319638   155A      2.327588   156A      2.341258
     157A      2.344342   158A      2.365503   159A      2.374280
     160A      2.484571   161A      2.503830   162A      2.534161
     163A      2.577258   164A      2.583440   165A      2.600156
     166A      2.617658   167A      2.623812   168A      2.642830
     169A      2.697784   170A      2.723020   171A      2.753552
     172A      2.756757   173A      2.763778   174A      2.778262
     175A      2.792123   176A      2.796872   177A      2.805878
     178A      2.808582   179A      2.833499   180A      2.847603
     181A      2.851781   182A      2.915050   183A      2.976537
     184A      2.980277   185A      3.017754   186A      3.031056
     187A      3.060246   188A      3.181006

    Final Occupation by Irrep:
              A
    DOCC [    30 ]

  @RHF Final Energy:  -275.57489186937363

   => Energetics <=

    Nuclear Repulsion Energy =            313.0336803567640800
    One-Electron Energy =                -990.2963566352008229
    Two-Electron Energy =                 401.6877844090631129
    Total Energy =                       -275.5748918693736300

Computation Completed

Properties will be evaluated at   0.000000,   0.000000,   0.000000 [a0]

Properties computed using the SCF density matrix

  Nuclear Dipole Moment: [e a0]
     X:     0.3448      Y:     0.2775      Z:     0.6243

  Electronic Dipole Moment: [e a0]
     X:    -0.3258      Y:    -0.2553      Z:    -0.6369

  Dipole Moment: [e a0]
     X:     0.0190      Y:     0.0222      Z:    -0.0126     Total:     0.0318

  Dipole Moment: [D]
     X:     0.0483      Y:     0.0565      Z:    -0.0321     Total:     0.0809

*** tstop() called on ds3 at Mon Apr 27 16:27:57 2020
Module time:
	user time   =      53.00 seconds =       0.88 minutes
	system time =      20.82 seconds =       0.35 minutes
	total time  =         69 seconds =       1.15 minutes
Total time:
	user time   =      53.00 seconds =       0.88 minutes
	system time =      20.82 seconds =       0.35 minutes
	total time  =         69 seconds =       1.15 minutes
                                     G D M A

                                 by Anthony Stone

                           version 2.2.06, 22 June 2011

               Distributed Multipoles from Gaussian wavefunctions

Starting at 16:27:58 on 27 Apr 2020

Using SCF density matrix from file ./SSI/SSI-068LEU-081VAL-1-dimer.test.26840.fchk

                         Distributed Multipole Analysis

Standard DMA

Positions and radii in angstrom
Multipole moments in atomic units, ea_0^k for rank k

C          x =  1.542873  y =  1.429877  z =  0.593439 angstrom
           Maximum rank =  0   Radius =  0.650 angstrom
                   Q00  =  -0.066019

C          x =  2.844873  y =  0.827877  z =  1.114439 angstrom
           Maximum rank =  0   Radius =  0.650 angstrom
                   Q00  =  -0.240868

C          x =  1.010873  y =  2.620877  z =  1.396439 angstrom
           Maximum rank =  0   Radius =  0.650 angstrom
                   Q00  =  -0.252390

H          x =  1.640873  y =  1.695877  z = -0.459561 angstrom
           Maximum rank =  0   Radius =  0.325 angstrom
                   Q00  =   0.049190

H          x =  0.803873  y =  0.646877  z =  0.705439 angstrom
           Maximum rank =  0   Radius =  0.325 angstrom
                   Q00  =   0.037964

H          x =  3.627873  y =  1.584877  z =  1.119439 angstrom
           Maximum rank =  0   Radius =  0.325 angstrom
                   Q00  =   0.075814

H          x =  1.011873  y =  2.394877  z =  2.460439 angstrom
           Maximum rank =  0   Radius =  0.325 angstrom
                   Q00  =   0.078686

H          x =  3.159233  y = -0.027683  z =  0.498649 angstrom
           Maximum rank =  0   Radius =  0.325 angstrom
                   Q00  =   0.083519

H          x =  2.691743  y =  0.438887  z =  2.131909 angstrom
           Maximum rank =  0   Radius =  0.325 angstrom
                   Q00  =   0.075312

H          x =  1.635823  y =  3.508697  z =  1.219749 angstrom
           Maximum rank =  0   Radius =  0.325 angstrom
                   Q00  =   0.077591

H          x = -0.030277  y =  2.822597  z =  1.104339 angstrom
           Maximum rank =  0   Radius =  0.325 angstrom
                   Q00  =   0.082953

C          x = -1.080127  y = -0.971123  z = -0.753561 angstrom
           Maximum rank =  0   Radius =  0.650 angstrom
                   Q00  =  -0.009200

C          x = -0.613127  y = -2.313123  z = -0.155561 angstrom
           Maximum rank =  0   Radius =  0.650 angstrom
                   Q00  =  -0.239666

C          x = -1.423127  y = -1.164123  z = -2.238561 angstrom
           Maximum rank =  0   Radius =  0.650 angstrom
                   Q00  =  -0.248518

C          x = -2.313127  y = -0.455123  z = -0.012561 angstrom
           Maximum rank =  0   Radius =  0.650 angstrom
                   Q00  =  -0.247979

H          x = -0.299127  y = -0.227123  z = -0.716561 angstrom
           Maximum rank =  0   Radius =  0.325 angstrom
                   Q00  =   0.034326

H          x = -1.421127  y = -3.026123  z = -0.295561 angstrom
           Maximum rank =  0   Radius =  0.325 angstrom
                   Q00  =   0.078114

H          x = -2.160127  y = -1.959123  z = -2.356561 angstrom
           Maximum rank =  0   Radius =  0.325 angstrom
                   Q00  =   0.074157

H          x = -1.840127  y = -0.241123  z = -2.638561 angstrom
           Maximum rank =  0   Radius =  0.325 angstrom
                   Q00  =   0.079183

H          x = -0.534127  y = -1.407123  z = -2.819561 angstrom
           Maximum rank =  0   Radius =  0.325 angstrom
                   Q00  =   0.081574

H          x = -2.080127  y = -0.271123  z =  1.035439 angstrom
           Maximum rank =  0   Radius =  0.325 angstrom
                   Q00  =   0.079928

H          x = -2.642127  y =  0.482877  z = -0.461561 angstrom
           Maximum rank =  0   Radius =  0.325 angstrom
                   Q00  =   0.078596

H          x = -3.128127  y = -1.174123  z = -0.077561 angstrom
           Maximum rank =  0   Radius =  0.325 angstrom
                   Q00  =   0.077536

H          x = -0.342147  y = -2.267203  z =  0.909549 angstrom
           Maximum rank =  0   Radius =  0.325 angstrom
                   Q00  =   0.081527

H          x =  0.273903  y = -2.678793  z = -0.693571 angstrom
           Maximum rank =  0   Radius =  0.325 angstrom
                   Q00  =   0.078670

Total multipoles referred to origin at
           x =   0.000000,  y =    0.000000,  z =    0.000000 angstrom
                   Q00  =  -0.000000

Finished at 16:27:58 on 27 Apr 2020

  DMA results are available in the Python driver through the
	  variable('DMA DISTRIBUTED MULTIPOLES')
  and
	  variable('DMA TOTAL MULTIPOLES')
  commands.

    Psi4 stopped on: Monday, 27 April 2020 04:27PM
    Psi4 wall time for execution: 0:01:10.18

*** Psi4 exiting successfully. Buy a developer a beer!
