                               Psi4 1.3.2 release

  ==> Input File <==

--------------------------------------------------------------------------
import numpy as np
set {scf_type pk
basis cc-pvdz
d_convergence 10
gdma_switch   0
gdma_limit    0
gdma_origin   [ 0.0,  0.0,  0.0 ]
}
molecule test {
    units Angstrom
    0 1
    --
    0 1
    C               -1.289532548366930     0.657158947500187     5.588786590358263
    C               -1.593532548366930     0.213158947500187     1.321786590358264
    C               -0.362532548366930     0.071158947500187     1.950786590358264
    C               -2.729532548366930     0.498158947500187     2.070786590358264
    C               -0.271532548366930     0.214158947500187     3.330786590358264
    C               -2.629532548366930     0.642158947500187     3.451786590358264
    C               -1.403532548366930     0.492158947500187     4.094786590358265
    O               -1.681532548366930     0.076158947500187    -0.028213409641736
    H               -0.823532548366930    -0.101841052499813    -0.412213409641736
    H                0.525467451633070    -0.137841052499813     1.378786590358264
    H               -3.675532548366930     0.619158947500187     1.566786590358264
    H                0.688467451633070     0.110158947500187     3.819786590358264
    H               -3.511532548366930     0.879158947500187     4.030786590358264
    H               -0.557532548366930    -0.060841052499813     5.955786590358263
    H               -2.240532548366930     0.426158947500187     6.071786590358263
    H               -0.946542548366930     1.665228947500187     5.864761590358264
    C                0.769467451633070     0.698158947500187    -2.079213409641736
    C               -0.307532548366930     1.279158947500187    -2.950213409641736
    C                0.505467451633070    -0.720841052499813    -4.022213409641735
    C                3.517467451633070    -0.577841052499813    -1.702213409641736
    C                2.530467451633070    -1.013841052499813    -2.788213409641736
    O                2.802467451633070    -1.975841052499813    -3.511213409641736
    N                1.389467451633070    -0.318841052499813    -2.937213409641736
    H                1.440467451633070     1.491158947500187    -1.778213409641736
    H                0.361467451633070     0.212158947500187    -1.204213409641736
    H                0.121467451633070     2.070158947500187    -3.566213409641736
    H               -1.141532548366930     1.667158947500187    -2.371213409641736
    H                0.255467451633070    -1.775841052499813    -3.938213409641736
    H                4.451467451633071    -1.073841052499813    -1.965213409641736
    H               -0.624562548366930     0.448148947500187    -3.597453409641736
    H               -0.391272548366930    -0.098305052499813    -3.886913409641736
    H                0.949737451633070    -0.546745052499813    -5.013333409641737
    H                3.687277451633070     0.508971947500187    -1.702213409641736
    H                3.204027451633070    -0.929291052499813    -0.708110409641736

}
e, wfn = energy('scf', return_wfn=True)
gdma(wfn)
dmavals = variable('DMA DISTRIBUTED MULTIPOLES')
charges = np.array(dmavals)
print(charges)
np.save('SSI-171TYR-180PRO-1-dimer.npy', np.array(charges))--------------------------------------------------------------------------

*** tstart() called on ds3
*** at Mon Apr 27 18:39:02 2020

   => Loading Basis Set <=

    Name: CC-PVDZ
    Role: ORBITAL
    Keyword: BASIS
    atoms 1-7, 17-21  entry C          line   138 file /theoryfs2/ds/metcalf/miniconda2/envs/tf2gpu/share/psi4/basis/cc-pvdz.gbs
    atoms 8, 22       entry O          line   198 file /theoryfs2/ds/metcalf/miniconda2/envs/tf2gpu/share/psi4/basis/cc-pvdz.gbs
    atoms 9-16, 24-34 entry H          line    22 file /theoryfs2/ds/metcalf/miniconda2/envs/tf2gpu/share/psi4/basis/cc-pvdz.gbs
    atoms 23          entry N          line   168 file /theoryfs2/ds/metcalf/miniconda2/envs/tf2gpu/share/psi4/basis/cc-pvdz.gbs

         ---------------------------------------------------------
                                   SCF
               by Justin Turney, Rob Parrish, Andy Simmonett
                          and Daniel G. A. Smith
                              RHF Reference
                        1 Threads,    500 MiB Core
         ---------------------------------------------------------

  ==> Geometry <==

    Molecular point group: c1
    Full point group: C1

    Geometry (in Angstrom), charge = 0, multiplicity = 1:

       Center              X                  Y                   Z               Mass
    ------------   -----------------  -----------------  -----------------  -----------------
         C           -1.289532548367     0.657158947500     5.588786590358    12.000000000000
         C           -1.593532548367     0.213158947500     1.321786590358    12.000000000000
         C           -0.362532548367     0.071158947500     1.950786590358    12.000000000000
         C           -2.729532548367     0.498158947500     2.070786590358    12.000000000000
         C           -0.271532548367     0.214158947500     3.330786590358    12.000000000000
         C           -2.629532548367     0.642158947500     3.451786590358    12.000000000000
         C           -1.403532548367     0.492158947500     4.094786590358    12.000000000000
         O           -1.681532548367     0.076158947500    -0.028213409642    15.994914619570
         H           -0.823532548367    -0.101841052500    -0.412213409642     1.007825032230
         H            0.525467451633    -0.137841052500     1.378786590358     1.007825032230
         H           -3.675532548367     0.619158947500     1.566786590358     1.007825032230
         H            0.688467451633     0.110158947500     3.819786590358     1.007825032230
         H           -3.511532548367     0.879158947500     4.030786590358     1.007825032230
         H           -0.557532548367    -0.060841052500     5.955786590358     1.007825032230
         H           -2.240532548367     0.426158947500     6.071786590358     1.007825032230
         H           -0.946542548367     1.665228947500     5.864761590358     1.007825032230
         C            0.769467451633     0.698158947500    -2.079213409642    12.000000000000
         C           -0.307532548367     1.279158947500    -2.950213409642    12.000000000000
         C            0.505467451633    -0.720841052500    -4.022213409642    12.000000000000
         C            3.517467451633    -0.577841052500    -1.702213409642    12.000000000000
         C            2.530467451633    -1.013841052500    -2.788213409642    12.000000000000
         O            2.802467451633    -1.975841052500    -3.511213409642    15.994914619570
         N            1.389467451633    -0.318841052500    -2.937213409642    14.003074004430
         H            1.440467451633     1.491158947500    -1.778213409642     1.007825032230
         H            0.361467451633     0.212158947500    -1.204213409642     1.007825032230
         H            0.121467451633     2.070158947500    -3.566213409642     1.007825032230
         H           -1.141532548367     1.667158947500    -2.371213409642     1.007825032230
         H            0.255467451633    -1.775841052500    -3.938213409642     1.007825032230
         H            4.451467451633    -1.073841052500    -1.965213409642     1.007825032230
         H           -0.624562548367     0.448148947500    -3.597453409642     1.007825032230
         H           -0.391272548367    -0.098305052500    -3.886913409642     1.007825032230
         H            0.949737451633    -0.546745052500    -5.013333409642     1.007825032230
         H            3.687277451633     0.508971947500    -1.702213409642     1.007825032230
         H            3.204027451633    -0.929291052500    -0.708110409642     1.007825032230

  Running in c1 symmetry.

  Rotational constants: A =      0.03830  B =      0.00659  C =      0.00591 [cm^-1]
  Rotational constants: A =   1148.12732  B =    197.60621  C =    177.22269 [MHz]
  Nuclear repulsion =  947.605308332776076

  Charge       = 0
  Multiplicity = 1
  Electrons    = 114
  Nalpha       = 57
  Nbeta        = 57

  ==> Algorithm <==

  SCF Algorithm Type is PK.
  DIIS enabled.
  MOM disabled.
  Fractional occupation disabled.
  Guess Type is SAD.
  Energy threshold   = 1.00e-06
  Density threshold  = 1.00e-10
  Integral threshold = 0.00e+00

  ==> Primary Basis <==

  Basis Set: CC-PVDZ
    Blend: CC-PVDZ
    Number of shells: 147
    Number of basis function: 305
    Number of Cartesian functions: 320
    Spherical Harmonics?: true
    Max angular momentum: 2

  ==> Pre-Iterations <==

   -------------------------------------------------------
    Irrep   Nso     Nmo     Nalpha   Nbeta   Ndocc  Nsocc
   -------------------------------------------------------
     A        305     305       0       0       0       0
   -------------------------------------------------------
    Total     305     305      57      57      57       0
   -------------------------------------------------------

  ==> Integral Setup <==

  Using integral reordering PK algorithm.
  Sizing the integral batches needed.
  Building batch lookup table.
   Calculation information:
      Number of atoms:                  34
      Number of AO shells:             147
      Number of primitives:            425
      Number of atomic orbitals:       320
      Number of basis functions:       305

      Integral cutoff                 1.00e-12
      Number of threads:                 1

	Batch   1 pq = [       0,    9405] index = [             0,44231715] size =     44231715
	Batch   2 pq = [    9405,   13301] index = [      44231715,88464951] size =     44233236
	Batch   3 pq = [   13301,   16290] index = [      88464951,132690195] size =     44225244
	Batch   4 pq = [   16290,   18810] index = [     132690195,176917455] size =     44227260
	Batch   5 pq = [   18810,   21030] index = [     176917455,221140965] size =     44223510
	Batch   6 pq = [   21030,   23037] index = [     221140965,265363203] size =     44222238
	Batch   7 pq = [   23037,   24883] index = [     265363203,309594286] size =     44231083
	Batch   8 pq = [   24883,   26601] index = [     309594286,353819901] size =     44225615
	Batch   9 pq = [   26601,   28214] index = [     353819901,398029005] size =     44209104
	Batch  10 pq = [   28214,   29740] index = [     398029005,442248670] size =     44219665
	Batch  11 pq = [   29740,   31191] index = [     442248670,486454836] size =     44206166
	Batch  12 pq = [   31191,   32578] index = [     486454836,530679331] size =     44224495
	Batch  13 pq = [   32578,   33908] index = [     530679331,574893186] size =     44213855
	Batch  14 pq = [   33908,   35188] index = [     574893186,619115266] size =     44222080
	Batch  15 pq = [   35188,   36423] index = [     619115266,663335676] size =     44220410
	Batch  16 pq = [   36423,   37617] index = [     663335676,707538153] size =     44202477
	Batch  17 pq = [   37617,   38775] index = [     707538153,751769700] size =     44231547
	Batch  18 pq = [   38775,   39899] index = [     751769700,795985050] size =     44215350
	Batch  19 pq = [   39899,   40992] index = [     795985050,840192528] size =     44207478
	Batch  20 pq = [   40992,   42057] index = [     840192528,884416653] size =     44224125
	Batch  21 pq = [   42057,   43095] index = [     884416653,928611060] size =     44194407
	Batch  22 pq = [   43095,   44109] index = [     928611060,972823995] size =     44212935
	Batch  23 pq = [   44109,   45100] index = [     972823995,1017027550] size =     44203555
	Batch  24 pq = [   45100,   46070] index = [    1017027550,1061245485] size =     44217935
	Batch  25 pq = [   46070,   46665] index = [    1061245485,1088834445] size =     27588960
  Task number: 99
  Buffer size: 11059200
  Buffer per thread: 2
  We computed 48555637 shell quartets total.
  Whereas there are 59170881 unique shell quartets.

  ==> DiskJK: Disk-Based J/K Matrices <==

    J tasked:                  Yes
    K tasked:                  Yes
    wK tasked:                  No
    Memory [MiB]:              375
    Schwarz Cutoff:          1E-12

    OpenMP threads:              1

  Minimum eigenvalue in the overlap matrix is 3.1422527818E-04.
  Using Symmetric Orthogonalization.

  SCF Guess: Superposition of Atomic Densities via on-the-fly atomic UHF.

  ==> Iterations <==

                        Total Energy        Delta E     RMS |[F,P]|

   @RHF iter SAD:  -668.85139840676334   -6.68851e+02   0.00000e+00
   @RHF iter   1:  -669.11256872561501   -2.61170e-01   2.64041e-03 DIIS
   @RHF iter   2:  -669.42151653985047   -3.08948e-01   1.40356e-03 DIIS
   @RHF iter   3:  -669.49474946342855   -7.32329e-02   3.61034e-04 DIIS
   @RHF iter   4:  -669.50165663764756   -6.90717e-03   1.37397e-04 DIIS
   @RHF iter   5:  -669.50270172572050   -1.04509e-03   2.25980e-05 DIIS
   @RHF iter   6:  -669.50275914601661   -5.74203e-05   1.19126e-05 DIIS
   @RHF iter   7:  -669.50277130878396   -1.21628e-05   4.17208e-06 DIIS
   @RHF iter   8:  -669.50277379975455   -2.49097e-06   1.73165e-06 DIIS
   @RHF iter   9:  -669.50277416826646   -3.68512e-07   6.26554e-07 DIIS
   @RHF iter  10:  -669.50277421400006   -4.57336e-08   2.22075e-07 DIIS
   @RHF iter  11:  -669.50277421924818   -5.24813e-09   7.06761e-08 DIIS
   @RHF iter  12:  -669.50277421994815   -6.99970e-10   2.91458e-08 DIIS
   @RHF iter  13:  -669.50277422006911   -1.20963e-10   1.14419e-08 DIIS
   @RHF iter  14:  -669.50277422010765   -3.85398e-11   5.09588e-09 DIIS
   @RHF iter  15:  -669.50277422010527    2.38742e-12   2.48660e-09 DIIS
   @RHF iter  16:  -669.50277422011129   -6.02540e-12   9.26164e-10 DIIS
   @RHF iter  17:  -669.50277422010583    5.45697e-12   2.93077e-10 DIIS
   @RHF iter  18:  -669.50277422011050   -4.66116e-12   1.02106e-10 DIIS
   @RHF iter  19:  -669.50277422011209   -1.59162e-12   3.72807e-11 DIIS
  Energy and wave function converged.

  ==> Post-Iterations <==

    Orbital Energies [Eh]
    ---------------------

    Doubly Occupied:

       1A    -20.588796     2A    -20.507168     3A    -15.589239
       4A    -11.348325     5A    -11.303545     6A    -11.292969
       7A    -11.244092     8A    -11.243696     9A    -11.243009
      10A    -11.241955    11A    -11.237878    12A    -11.236729
      13A    -11.234187    14A    -11.231225    15A    -11.224431
      16A     -1.411001    17A     -1.369495    18A     -1.261355
      19A     -1.156373    20A     -1.076038    21A     -1.042479
      22A     -1.023442    23A     -1.012794    24A     -0.978723
      25A     -0.930922    26A     -0.863981    27A     -0.850659
      28A     -0.809462    29A     -0.763167    30A     -0.748941
      31A     -0.732966    32A     -0.683226    33A     -0.673359
      34A     -0.658230    35A     -0.646602    36A     -0.622345
      37A     -0.613042    38A     -0.603971    39A     -0.592644
      40A     -0.592389    41A     -0.578558    42A     -0.574977
      43A     -0.574849    44A     -0.554980    45A     -0.548718
      46A     -0.539326    47A     -0.535087    48A     -0.526046
      49A     -0.501873    50A     -0.492099    51A     -0.487967
      52A     -0.472428    53A     -0.410847    54A     -0.394549
      55A     -0.370747    56A     -0.343916    57A     -0.306303

    Virtual:

      58A      0.125195    59A      0.146706    60A      0.152371
      61A      0.172064    62A      0.183286    63A      0.188647
      64A      0.204143    65A      0.213631    66A      0.227233
      67A      0.230571    68A      0.243996    69A      0.252076
      70A      0.253323    71A      0.260407    72A      0.261197
      73A      0.274510    74A      0.278042    75A      0.282561
      76A      0.289096    77A      0.322411    78A      0.331174
      79A      0.343519    80A      0.359779    81A      0.369960
      82A      0.371301    83A      0.400601    84A      0.405592
      85A      0.435158    86A      0.445584    87A      0.462783
      88A      0.477963    89A      0.494841    90A      0.497915
      91A      0.508376    92A      0.524406    93A      0.551317
      94A      0.571843    95A      0.599482    96A      0.606020
      97A      0.631108    98A      0.639511    99A      0.648657
     100A      0.649667   101A      0.663732   102A      0.674543
     103A      0.682146   104A      0.686704   105A      0.693848
     106A      0.703773   107A      0.710092   108A      0.727857
     109A      0.731449   110A      0.737207   111A      0.738340
     112A      0.759939   113A      0.768434   114A      0.769675
     115A      0.781197   116A      0.787789   117A      0.795989
     118A      0.808667   119A      0.833435   120A      0.837369
     121A      0.847093   122A      0.850864   123A      0.860154
     124A      0.861326   125A      0.873929   126A      0.878043
     127A      0.881938   128A      0.884224   129A      0.887223
     130A      0.895467   131A      0.906515   132A      0.911648
     133A      0.914965   134A      0.924889   135A      0.935492
     136A      0.936073   137A      0.940215   138A      0.949835
     139A      0.958166   140A      0.964620   141A      0.979746
     142A      1.013270   143A      1.022299   144A      1.041740
     145A      1.050520   146A      1.068006   147A      1.074499
     148A      1.108854   149A      1.122327   150A      1.134064
     151A      1.140641   152A      1.145988   153A      1.167826
     154A      1.185465   155A      1.190770   156A      1.202139
     157A      1.235284   158A      1.241075   159A      1.248107
     160A      1.256794   161A      1.277455   162A      1.293184
     163A      1.307947   164A      1.313789   165A      1.325118
     166A      1.333205   167A      1.362061   168A      1.367024
     169A      1.377706   170A      1.392258   171A      1.416078
     172A      1.429052   173A      1.444419   174A      1.459304
     175A      1.476515   176A      1.496931   177A      1.500633
     178A      1.527026   179A      1.543180   180A      1.557534
     181A      1.573626   182A      1.580767   183A      1.603075
     184A      1.612360   185A      1.616442   186A      1.634951
     187A      1.648586   188A      1.673371   189A      1.677693
     190A      1.692965   191A      1.704331   192A      1.712043
     193A      1.734745   194A      1.747134   195A      1.777736
     196A      1.793806   197A      1.797607   198A      1.809025
     199A      1.820911   200A      1.838126   201A      1.851861
     202A      1.859077   203A      1.868260   204A      1.880067
     205A      1.880952   206A      1.890285   207A      1.900898
     208A      1.909843   209A      1.912953   210A      1.915975
     211A      1.919025   212A      1.925750   213A      1.937679
     214A      1.945183   215A      1.956523   216A      1.962485
     217A      1.967581   218A      1.976177   219A      1.986624
     220A      1.997234   221A      2.007887   222A      2.030043
     223A      2.043362   224A      2.045342   225A      2.050442
     226A      2.057561   227A      2.065075   228A      2.069217
     229A      2.103513   230A      2.112185   231A      2.121989
     232A      2.138544   233A      2.148560   234A      2.159133
     235A      2.173288   236A      2.179902   237A      2.191266
     238A      2.204181   239A      2.213190   240A      2.230553
     241A      2.257066   242A      2.262591   243A      2.271087
     244A      2.278273   245A      2.293204   246A      2.297251
     247A      2.315838   248A      2.329810   249A      2.353450
     250A      2.376688   251A      2.410597   252A      2.418401
     253A      2.435277   254A      2.463509   255A      2.468043
     256A      2.480325   257A      2.485543   258A      2.509869
     259A      2.529318   260A      2.536335   261A      2.541454
     262A      2.565075   263A      2.601374   264A      2.603496
     265A      2.641487   266A      2.660025   267A      2.711752
     268A      2.733892   269A      2.750295   270A      2.766786
     271A      2.777416   272A      2.782106   273A      2.788484
     274A      2.794161   275A      2.811214   276A      2.822336
     277A      2.836285   278A      2.838246   279A      2.870253
     280A      2.895745   281A      2.904516   282A      2.949144
     283A      2.964622   284A      2.994742   285A      3.018639
     286A      3.051822   287A      3.082656   288A      3.095354
     289A      3.111052   290A      3.139346   291A      3.189125
     292A      3.222795   293A      3.279433   294A      3.283686
     295A      3.331541   296A      3.377086   297A      3.417219
     298A      3.504966   299A      3.587361   300A      3.697993
     301A      3.818315   302A      3.889866   303A      3.979606
     304A      4.270367   305A      5.087278

    Final Occupation by Irrep:
              A
    DOCC [    57 ]

  @RHF Final Energy:  -669.50277422011209

   => Energetics <=

    Nuclear Repulsion Energy =            947.6053083327760760
    One-Electron Energy =               -2790.8199192061442773
    Two-Electron Energy =                1173.7118366532561140
    Total Energy =                       -669.5027742201120873

Computation Completed

Properties will be evaluated at   0.000000,   0.000000,   0.000000 [a0]

Properties computed using the SCF density matrix

  Nuclear Dipole Moment: [e a0]
     X:     1.6632      Y:     5.0289      Z:    -1.3725

  Electronic Dipole Moment: [e a0]
     X:    -1.9300      Y:    -3.7295      Z:     2.2082

  Dipole Moment: [e a0]
     X:    -0.2668      Y:     1.2994      Z:     0.8357     Total:     1.5678

  Dipole Moment: [D]
     X:    -0.6781      Y:     3.3026      Z:     2.1241     Total:     3.9848

*** tstop() called on ds3 at Mon Apr 27 18:58:00 2020
Module time:
	user time   =     403.38 seconds =       6.72 minutes
	system time =     174.57 seconds =       2.91 minutes
	total time  =       1138 seconds =      18.97 minutes
Total time:
	user time   =     403.38 seconds =       6.72 minutes
	system time =     174.57 seconds =       2.91 minutes
	total time  =       1138 seconds =      18.97 minutes
                                     G D M A

                                 by Anthony Stone

                           version 2.2.06, 22 June 2011

               Distributed Multipoles from Gaussian wavefunctions

Starting at 18:58:0 on 27 Apr 2020

Using SCF density matrix from file ./SSI/SSI-171TYR-180PRO-1-dimer.test.27051.fchk

                         Distributed Multipole Analysis

Standard DMA

Positions and radii in angstrom
Multipole moments in atomic units, ea_0^k for rank k

C          x = -1.289533  y =  0.657159  z =  5.588787 angstrom
           Maximum rank =  0   Radius =  0.650 angstrom
                   Q00  =  -0.191326

C          x = -1.593533  y =  0.213159  z =  1.321787 angstrom
           Maximum rank =  0   Radius =  0.650 angstrom
                   Q00  =   0.324612

C          x = -0.362533  y =  0.071159  z =  1.950787 angstrom
           Maximum rank =  0   Radius =  0.650 angstrom
                   Q00  =  -0.199615

C          x = -2.729533  y =  0.498159  z =  2.070787 angstrom
           Maximum rank =  0   Radius =  0.650 angstrom
                   Q00  =  -0.122512

C          x = -0.271533  y =  0.214159  z =  3.330787 angstrom
           Maximum rank =  0   Radius =  0.650 angstrom
                   Q00  =   0.028863

C          x = -2.629533  y =  0.642159  z =  3.451787 angstrom
           Maximum rank =  0   Radius =  0.650 angstrom
                   Q00  =  -0.014558

C          x = -1.403533  y =  0.492159  z =  4.094787 angstrom
           Maximum rank =  0   Radius =  0.650 angstrom
                   Q00  =  -0.133543

O          x = -1.681533  y =  0.076159  z = -0.028213 angstrom
           Maximum rank =  0   Radius =  0.650 angstrom
                   Q00  =  -0.682950

H          x = -0.823533  y = -0.101841  z = -0.412213 angstrom
           Maximum rank =  0   Radius =  0.325 angstrom
                   Q00  =   0.418589

H          x =  0.525467  y = -0.137841  z =  1.378787 angstrom
           Maximum rank =  0   Radius =  0.325 angstrom
                   Q00  =   0.069600

H          x = -3.675533  y =  0.619159  z =  1.566787 angstrom
           Maximum rank =  0   Radius =  0.325 angstrom
                   Q00  =   0.080210

H          x =  0.688467  y =  0.110159  z =  3.819787 angstrom
           Maximum rank =  0   Radius =  0.325 angstrom
                   Q00  =   0.068324

H          x = -3.511533  y =  0.879159  z =  4.030787 angstrom
           Maximum rank =  0   Radius =  0.325 angstrom
                   Q00  =   0.064975

H          x = -0.557533  y = -0.060841  z =  5.955787 angstrom
           Maximum rank =  0   Radius =  0.325 angstrom
                   Q00  =   0.095277

H          x = -2.240533  y =  0.426159  z =  6.071787 angstrom
           Maximum rank =  0   Radius =  0.325 angstrom
                   Q00  =   0.099063

H          x = -0.946543  y =  1.665229  z =  5.864762 angstrom
           Maximum rank =  0   Radius =  0.325 angstrom
                   Q00  =   0.099791

C          x =  0.769467  y =  0.698159  z = -2.079213 angstrom
           Maximum rank =  0   Radius =  0.650 angstrom
                   Q00  =   0.008026

C          x = -0.307533  y =  1.279159  z = -2.950213 angstrom
           Maximum rank =  0   Radius =  0.650 angstrom
                   Q00  =  -0.225798

C          x =  0.505467  y = -0.720841  z = -4.022213 angstrom
           Maximum rank =  0   Radius =  0.650 angstrom
                   Q00  =  -0.108298

C          x =  3.517467  y = -0.577841  z = -1.702213 angstrom
           Maximum rank =  0   Radius =  0.650 angstrom
                   Q00  =  -0.264657

C          x =  2.530467  y = -1.013841  z = -2.788213 angstrom
           Maximum rank =  0   Radius =  0.650 angstrom
                   Q00  =   0.743222

O          x =  2.802467  y = -1.975841  z = -3.511213 angstrom
           Maximum rank =  0   Radius =  0.650 angstrom
                   Q00  =  -0.776812

N          x =  1.389467  y = -0.318841  z = -2.937213 angstrom
           Maximum rank =  0   Radius =  0.650 angstrom
                   Q00  =  -0.461102

H          x =  1.440467  y =  1.491159  z = -1.778213 angstrom
           Maximum rank =  0   Radius =  0.325 angstrom
                   Q00  =   0.107312

H          x =  0.361467  y =  0.212159  z = -1.204213 angstrom
           Maximum rank =  0   Radius =  0.325 angstrom
                   Q00  =  -0.004222

H          x =  0.121467  y =  2.070159  z = -3.566213 angstrom
           Maximum rank =  0   Radius =  0.325 angstrom
                   Q00  =   0.102354

H          x = -1.141533  y =  1.667159  z = -2.371213 angstrom
           Maximum rank =  0   Radius =  0.325 angstrom
                   Q00  =   0.102651

H          x =  0.255467  y = -1.775841  z = -3.938213 angstrom
           Maximum rank =  0   Radius =  0.325 angstrom
                   Q00  =   0.099672

H          x =  4.451467  y = -1.073841  z = -1.965213 angstrom
           Maximum rank =  0   Radius =  0.325 angstrom
                   Q00  =   0.132026

H          x = -0.624563  y =  0.448149  z = -3.597453 angstrom
           Maximum rank =  0   Radius =  0.325 angstrom
                   Q00  =   0.115100

H          x = -0.391273  y = -0.098305  z = -3.886913 angstrom
           Maximum rank =  0   Radius =  0.325 angstrom
                   Q00  =   0.100408

H          x =  0.949737  y = -0.546745  z = -5.013333 angstrom
           Maximum rank =  0   Radius =  0.325 angstrom
                   Q00  =   0.106269

H          x =  3.687277  y =  0.508972  z = -1.702213 angstrom
           Maximum rank =  0   Radius =  0.325 angstrom
                   Q00  =   0.100253

H          x =  3.204027  y = -0.929291  z = -0.708110 angstrom
           Maximum rank =  0   Radius =  0.325 angstrom
                   Q00  =   0.118799

Total multipoles referred to origin at
           x =   0.000000,  y =    0.000000,  z =    0.000000 angstrom
                   Q00  =  -0.000000

Finished at 18:58:0 on 27 Apr 2020

  DMA results are available in the Python driver through the
	  variable('DMA DISTRIBUTED MULTIPOLES')
  and
	  variable('DMA TOTAL MULTIPOLES')
  commands.

    Psi4 stopped on: Monday, 27 April 2020 06:58PM
    Psi4 wall time for execution: 0:18:57.60

*** Psi4 exiting successfully. Buy a developer a beer!
