                               Psi4 1.3.2 release

  ==> Input File <==

--------------------------------------------------------------------------
import numpy as np
set {scf_type pk
basis cc-pvdz
d_convergence 10
gdma_switch   0
gdma_limit    0
gdma_origin   [ 0.0,  0.0,  0.0 ]
}
molecule test {
    units Angstrom
    0 1
    --
    0 1
    C                1.156568637759246     1.791659453780807    -0.628789693698981
    C                1.868568637759246     1.665659453780808     0.749210306301019
    H                1.484568637759246     1.000659453780808    -1.305789693698981
    H                0.082568637759246     1.678659453780807    -0.487789693698981
    H                1.347568637759246     2.756659453780808    -1.082789693698981
    H                1.750568637759246     0.648659453780808     1.122210306301019
    H                2.931428637759247     1.914729453780807     0.613937306301019
    H                1.444648637759246     2.375949453780808     1.474315306301019
    C               -1.001431362240754    -1.158340546219192    -0.023789693698981
    C               -2.019431362240754    -2.305340546219192    -0.095789693698981
    H               -0.801431362240754    -0.758340546219192    -1.018789693698981
    H               -1.391431362240754    -0.357340546219192     0.606210306301019
    H               -0.066431362240754    -1.494340546219193     0.428210306301019
    H               -2.161431362240754    -2.739340546219192     0.888210306301019
    H               -1.705051362240754    -3.084400546219192    -0.805876693698981
    H               -2.966471362240754    -1.865800546219192    -0.442074693698981

}
e, wfn = energy('scf', return_wfn=True)
gdma(wfn)
dmavals = variable('DMA DISTRIBUTED MULTIPOLES')
charges = np.array(dmavals)
print(charges)
np.save('SSI-174VAL-203VAL-1-dimer.npy', np.array(charges))--------------------------------------------------------------------------

*** tstart() called on ds3
*** at Tue Apr 28 12:32:55 2020

   => Loading Basis Set <=

    Name: CC-PVDZ
    Role: ORBITAL
    Keyword: BASIS
    atoms 1-2, 9-10  entry C          line   138 file /theoryfs2/ds/metcalf/miniconda2/envs/tf2gpu/share/psi4/basis/cc-pvdz.gbs
    atoms 3-8, 11-16 entry H          line    22 file /theoryfs2/ds/metcalf/miniconda2/envs/tf2gpu/share/psi4/basis/cc-pvdz.gbs

         ---------------------------------------------------------
                                   SCF
               by Justin Turney, Rob Parrish, Andy Simmonett
                          and Daniel G. A. Smith
                              RHF Reference
                        1 Threads,    500 MiB Core
         ---------------------------------------------------------

  ==> Geometry <==

    Molecular point group: c1
    Full point group: C1

    Geometry (in Angstrom), charge = 0, multiplicity = 1:

       Center              X                  Y                   Z               Mass
    ------------   -----------------  -----------------  -----------------  -----------------
         C            1.156568637759     1.791659453781    -0.628789693699    12.000000000000
         C            1.868568637759     1.665659453781     0.749210306301    12.000000000000
         H            1.484568637759     1.000659453781    -1.305789693699     1.007825032230
         H            0.082568637759     1.678659453781    -0.487789693699     1.007825032230
         H            1.347568637759     2.756659453781    -1.082789693699     1.007825032230
         H            1.750568637759     0.648659453781     1.122210306301     1.007825032230
         H            2.931428637759     1.914729453781     0.613937306301     1.007825032230
         H            1.444648637759     2.375949453781     1.474315306301     1.007825032230
         C           -1.001431362241    -1.158340546219    -0.023789693699    12.000000000000
         C           -2.019431362241    -2.305340546219    -0.095789693699    12.000000000000
         H           -0.801431362241    -0.758340546219    -1.018789693699     1.007825032230
         H           -1.391431362241    -0.357340546219     0.606210306301     1.007825032230
         H           -0.066431362241    -1.494340546219     0.428210306301     1.007825032230
         H           -2.161431362241    -2.739340546219     0.888210306301     1.007825032230
         H           -1.705051362241    -3.084400546219    -0.805876693699     1.007825032230
         H           -2.966471362241    -1.865800546219    -0.442074693699     1.007825032230

  Running in c1 symmetry.

  Rotational constants: A =      0.55072  B =      0.04815  C =      0.04580 [cm^-1]
  Rotational constants: A =  16510.18180  B =   1443.51738  C =   1373.05486 [MHz]
  Nuclear repulsion =  122.024951426596601

  Charge       = 0
  Multiplicity = 1
  Electrons    = 36
  Nalpha       = 18
  Nbeta        = 18

  ==> Algorithm <==

  SCF Algorithm Type is PK.
  DIIS enabled.
  MOM disabled.
  Fractional occupation disabled.
  Guess Type is SAD.
  Energy threshold   = 1.00e-06
  Density threshold  = 1.00e-10
  Integral threshold = 0.00e+00

  ==> Primary Basis <==

  Basis Set: CC-PVDZ
    Blend: CC-PVDZ
    Number of shells: 60
    Number of basis function: 116
    Number of Cartesian functions: 120
    Spherical Harmonics?: true
    Max angular momentum: 2

  ==> Pre-Iterations <==

   -------------------------------------------------------
    Irrep   Nso     Nmo     Nalpha   Nbeta   Ndocc  Nsocc
   -------------------------------------------------------
     A        116     116       0       0       0       0
   -------------------------------------------------------
    Total     116     116      18      18      18       0
   -------------------------------------------------------

  ==> Integral Setup <==

  Using integral reordering PK algorithm.
  Sizing the integral batches needed.
  Building batch lookup table.
   Calculation information:
      Number of atoms:                  16
      Number of AO shells:              60
      Number of primitives:            148
      Number of atomic orbitals:       120
      Number of basis functions:       116

      Integral cutoff                 1.00e-12
      Number of threads:                 1

	Batch   1 pq = [       0,    6786] index = [             0,23028291] size =     23028291
  Task number: 3
  Buffer size: 11059200
  Buffer per thread: 2
  We computed 1429186 shell quartets total.
  Whereas there are 1675365 unique shell quartets.

  ==> DiskJK: Disk-Based J/K Matrices <==

    J tasked:                  Yes
    K tasked:                  Yes
    wK tasked:                  No
    Memory [MiB]:              375
    Schwarz Cutoff:          1E-12

    OpenMP threads:              1

  Minimum eigenvalue in the overlap matrix is 6.7229228675E-03.
  Using Symmetric Orthogonalization.

  SCF Guess: Superposition of Atomic Densities via on-the-fly atomic UHF.

  ==> Iterations <==

                        Total Energy        Delta E     RMS |[F,P]|

   @RHF iter SAD:  -157.29366941248989   -1.57294e+02   0.00000e+00
   @RHF iter   1:  -158.31050155043522   -1.01683e+00   4.16281e-03 DIIS
   @RHF iter   2:  -158.44176440904451   -1.31263e-01   1.76188e-03 DIIS
   @RHF iter   3:  -158.46438496899026   -2.26206e-02   3.46586e-04 DIIS
   @RHF iter   4:  -158.46618716574480   -1.80220e-03   3.83718e-05 DIIS
   @RHF iter   5:  -158.46621023557782   -2.30698e-05   6.51744e-06 DIIS
   @RHF iter   6:  -158.46621085407827   -6.18500e-07   1.22237e-06 DIIS
   @RHF iter   7:  -158.46621086838374   -1.43055e-08   3.24058e-07 DIIS
   @RHF iter   8:  -158.46621086939774   -1.01400e-09   4.31917e-08 DIIS
   @RHF iter   9:  -158.46621086942724   -2.95017e-11   9.59803e-09 DIIS
   @RHF iter  10:  -158.46621086942875   -1.50635e-12   2.62818e-09 DIIS
   @RHF iter  11:  -158.46621086942872    2.84217e-14   7.88809e-10 DIIS
   @RHF iter  12:  -158.46621086942864    8.52651e-14   1.78103e-10 DIIS
   @RHF iter  13:  -158.46621086942858    5.68434e-14   2.34495e-11 DIIS
  Energy and wave function converged.

  ==> Post-Iterations <==

    Orbital Energies [Eh]
    ---------------------

    Doubly Occupied:

       1A    -11.220708     2A    -11.219928     3A    -11.217988
       4A    -11.216624     5A     -1.017335     6A     -1.010346
       7A     -0.840041     8A     -0.836614     9A     -0.600131
      10A     -0.597730    11A     -0.595597    12A     -0.589931
      13A     -0.501644    14A     -0.494468    15A     -0.493917
      16A     -0.486900    17A     -0.483716    18A     -0.480284

    Virtual:

      19A      0.172301    20A      0.194840    21A      0.226640
      22A      0.230663    23A      0.238762    24A      0.262293
      25A      0.267578    26A      0.278030    27A      0.278860
      28A      0.298565    29A      0.314148    30A      0.326453
      31A      0.388617    32A      0.396059    33A      0.561490
      34A      0.591042    35A      0.596969    36A      0.600836
      37A      0.613679    38A      0.651193    39A      0.678216
      40A      0.692582    41A      0.701079    42A      0.760186
      43A      0.830656    44A      0.856736    45A      0.886296
      46A      0.890034    47A      0.894586    48A      0.897718
      49A      0.903668    50A      0.909197    51A      0.915713
      52A      0.922233    53A      0.935737    54A      0.958155
      55A      0.969519    56A      1.006981    57A      1.122004
      58A      1.127259    59A      1.132802    60A      1.143940
      61A      1.220193    62A      1.255990    63A      1.463662
      64A      1.468589    65A      1.475750    66A      1.482208
      67A      1.570774    68A      1.587605    69A      1.680034
      70A      1.681003    71A      1.694565    72A      1.697609
      73A      1.852713    74A      1.859528    75A      1.874847
      76A      1.876474    77A      1.892149    78A      1.906622
      79A      1.934136    80A      1.937482    81A      1.942088
      82A      1.943654    83A      1.948588    84A      1.954550
      85A      1.960146    86A      1.964596    87A      1.969399
      88A      2.060962    89A      2.088586    90A      2.102280
      91A      2.118224    92A      2.134728    93A      2.284132
      94A      2.301744    95A      2.314501    96A      2.343282
      97A      2.442493    98A      2.451776    99A      2.458734
     100A      2.465654   101A      2.557597   102A      2.565356
     103A      2.568796   104A      2.580092   105A      2.761553
     106A      2.768533   107A      2.782376   108A      2.795572
     109A      2.830712   110A      2.838819   111A      2.862425
     112A      2.867906   113A      2.935880   114A      2.947748
     115A      2.956826   116A      2.969700

    Final Occupation by Irrep:
              A
    DOCC [    18 ]

  @RHF Final Energy:  -158.46621086942858

   => Energetics <=

    Nuclear Repulsion Energy =            122.0249514265966013
    One-Electron Energy =                -453.1745226108262727
    Two-Electron Energy =                 172.6833603148010923
    Total Energy =                       -158.4662108694285791

Computation Completed

Properties will be evaluated at   0.000000,   0.000000,   0.000000 [a0]

Properties computed using the SCF density matrix

  Nuclear Dipole Moment: [e a0]
     X:    -0.0477      Y:     0.0710      Z:    -0.0094

  Electronic Dipole Moment: [e a0]
     X:     0.0315      Y:    -0.0729      Z:     0.0088

  Dipole Moment: [e a0]
     X:    -0.0162      Y:    -0.0019      Z:    -0.0006     Total:     0.0163

  Dipole Moment: [D]
     X:    -0.0412      Y:    -0.0048      Z:    -0.0016     Total:     0.0416

*** tstop() called on ds3 at Tue Apr 28 12:33:19 2020
Module time:
	user time   =       7.24 seconds =       0.12 minutes
	system time =       2.64 seconds =       0.04 minutes
	total time  =         24 seconds =       0.40 minutes
Total time:
	user time   =       7.24 seconds =       0.12 minutes
	system time =       2.64 seconds =       0.04 minutes
	total time  =         24 seconds =       0.40 minutes
                                     G D M A

                                 by Anthony Stone

                           version 2.2.06, 22 June 2011

               Distributed Multipoles from Gaussian wavefunctions

Starting at 12:33:20 on 28 Apr 2020

Using SCF density matrix from file ./SSI/SSI-174VAL-203VAL-1-dimer.test.15062.fchk

                         Distributed Multipole Analysis

Standard DMA

Positions and radii in angstrom
Multipole moments in atomic units, ea_0^k for rank k

C          x =  1.156569  y =  1.791659  z = -0.628790 angstrom
           Maximum rank =  0   Radius =  0.650 angstrom
                   Q00  =  -0.247480

C          x =  1.868569  y =  1.665659  z =  0.749210 angstrom
           Maximum rank =  0   Radius =  0.650 angstrom
                   Q00  =  -0.241474

H          x =  1.484569  y =  1.000659  z = -1.305790 angstrom
           Maximum rank =  0   Radius =  0.325 angstrom
                   Q00  =   0.081000

H          x =  0.082569  y =  1.678659  z = -0.487790 angstrom
           Maximum rank =  0   Radius =  0.325 angstrom
                   Q00  =   0.081283

H          x =  1.347569  y =  2.756659  z = -1.082790 angstrom
           Maximum rank =  0   Radius =  0.325 angstrom
                   Q00  =   0.082541

H          x =  1.750569  y =  0.648659  z =  1.122210 angstrom
           Maximum rank =  0   Radius =  0.325 angstrom
                   Q00  =   0.084983

H          x =  2.931429  y =  1.914729  z =  0.613937 angstrom
           Maximum rank =  0   Radius =  0.325 angstrom
                   Q00  =   0.078317

H          x =  1.444649  y =  2.375949  z =  1.474315 angstrom
           Maximum rank =  0   Radius =  0.325 angstrom
                   Q00  =   0.080723

C          x = -1.001431  y = -1.158341  z = -0.023790 angstrom
           Maximum rank =  0   Radius =  0.650 angstrom
                   Q00  =  -0.249253

C          x = -2.019431  y = -2.305341  z = -0.095790 angstrom
           Maximum rank =  0   Radius =  0.650 angstrom
                   Q00  =  -0.229923

H          x = -0.801431  y = -0.758341  z = -1.018790 angstrom
           Maximum rank =  0   Radius =  0.325 angstrom
                   Q00  =   0.082175

H          x = -1.391431  y = -0.357341  z =  0.606210 angstrom
           Maximum rank =  0   Radius =  0.325 angstrom
                   Q00  =   0.077588

H          x = -0.066431  y = -1.494341  z =  0.428210 angstrom
           Maximum rank =  0   Radius =  0.325 angstrom
                   Q00  =   0.078410

H          x = -2.161431  y = -2.739341  z =  0.888210 angstrom
           Maximum rank =  0   Radius =  0.325 angstrom
                   Q00  =   0.083528

H          x = -1.705051  y = -3.084401  z = -0.805877 angstrom
           Maximum rank =  0   Radius =  0.325 angstrom
                   Q00  =   0.081695

H          x = -2.966471  y = -1.865801  z = -0.442075 angstrom
           Maximum rank =  0   Radius =  0.325 angstrom
                   Q00  =   0.075888

Total multipoles referred to origin at
           x =   0.000000,  y =    0.000000,  z =    0.000000 angstrom
                   Q00  =  -0.000000

Finished at 12:33:20 on 28 Apr 2020

  DMA results are available in the Python driver through the
	  variable('DMA DISTRIBUTED MULTIPOLES')
  and
	  variable('DMA TOTAL MULTIPOLES')
  commands.

    Psi4 stopped on: Tuesday, 28 April 2020 12:33PM
    Psi4 wall time for execution: 0:00:24.49

*** Psi4 exiting successfully. Buy a developer a beer!
