                               Psi4 1.3.2 release

  ==> Input File <==

--------------------------------------------------------------------------
import numpy as np
set {scf_type pk
basis cc-pvdz
d_convergence 10
gdma_switch   0
gdma_limit    0
gdma_origin   [ 0.0,  0.0,  0.0 ]
}
molecule test {
    units Angstrom
    0 1
    --
    0 1
    C               -0.538100723611991    -0.321625221426888    -0.432324885024338
    C               -1.951100723611991    -0.792625221426888    -0.757324885024338
    C               -1.054100723611991     2.383374778573112    -0.696324885024338
    S               -0.029100723611991     1.110374778573112    -1.433324885024339
    H               -0.534100723611991    -0.005625221426888     0.611675114975662
    H                0.183899276388009    -1.118625221426887    -0.478324885024338
    H               -2.037100723611991    -0.900625221426888    -1.837324885024338
    H               -2.643100723611991    -0.006625221426888    -0.452324885024338
    H               -0.875100723611991     2.428374778573112     0.377675114975662
    H               -0.806100723611991     3.348374778573112    -1.139324885024338
    H               -2.107100723611991     2.172374778573113    -0.882324885024338
    H               -2.265042723611991    -1.727985221426887    -0.270964885024338
    C                1.213899276388009    -1.427625221426888     2.645675114975661
    C                2.421899276388009    -2.232625221426888     2.181675114975661
    H                1.104899276388009    -1.513625221426888     3.727675114975662
    H                1.350899276388009    -0.376625221426888     2.390675114975662
    H                0.308899276388009    -1.801625221426888     2.164675114975662
    H                3.296899276388009    -1.836625221426888     2.694675114975661
    H                2.276281276388009    -3.290685221426888     2.444935114975662
    H                2.567717276388009    -2.125065221426887     1.096705114975661

}
e, wfn = energy('scf', return_wfn=True)
gdma(wfn)
dmavals = variable('DMA DISTRIBUTED MULTIPOLES')
charges = np.array(dmavals)
print(charges)
np.save('SSI-015MET-023LEU-1-dimer.npy', np.array(charges))--------------------------------------------------------------------------

*** tstart() called on ds3
*** at Tue Apr 28 09:00:59 2020

   => Loading Basis Set <=

    Name: CC-PVDZ
    Role: ORBITAL
    Keyword: BASIS
    atoms 1-3, 13-14  entry C          line   138 file /theoryfs2/ds/metcalf/miniconda2/envs/tf2gpu/share/psi4/basis/cc-pvdz.gbs
    atoms 4           entry S          line   598 file /theoryfs2/ds/metcalf/miniconda2/envs/tf2gpu/share/psi4/basis/cc-pvdz.gbs
    atoms 5-12, 15-20 entry H          line    22 file /theoryfs2/ds/metcalf/miniconda2/envs/tf2gpu/share/psi4/basis/cc-pvdz.gbs

         ---------------------------------------------------------
                                   SCF
               by Justin Turney, Rob Parrish, Andy Simmonett
                          and Daniel G. A. Smith
                              RHF Reference
                        1 Threads,    500 MiB Core
         ---------------------------------------------------------

  ==> Geometry <==

    Molecular point group: c1
    Full point group: C1

    Geometry (in Angstrom), charge = 0, multiplicity = 1:

       Center              X                  Y                   Z               Mass
    ------------   -----------------  -----------------  -----------------  -----------------
         C           -0.538100723612    -0.321625221427    -0.432324885024    12.000000000000
         C           -1.951100723612    -0.792625221427    -0.757324885024    12.000000000000
         C           -1.054100723612     2.383374778573    -0.696324885024    12.000000000000
         S           -0.029100723612     1.110374778573    -1.433324885024    31.972071174400
         H           -0.534100723612    -0.005625221427     0.611675114976     1.007825032230
         H            0.183899276388    -1.118625221427    -0.478324885024     1.007825032230
         H           -2.037100723612    -0.900625221427    -1.837324885024     1.007825032230
         H           -2.643100723612    -0.006625221427    -0.452324885024     1.007825032230
         H           -0.875100723612     2.428374778573     0.377675114976     1.007825032230
         H           -0.806100723612     3.348374778573    -1.139324885024     1.007825032230
         H           -2.107100723612     2.172374778573    -0.882324885024     1.007825032230
         H           -2.265042723612    -1.727985221427    -0.270964885024     1.007825032230
         C            1.213899276388    -1.427625221427     2.645675114976    12.000000000000
         C            2.421899276388    -2.232625221427     2.181675114976    12.000000000000
         H            1.104899276388    -1.513625221427     3.727675114976     1.007825032230
         H            1.350899276388    -0.376625221427     2.390675114976     1.007825032230
         H            0.308899276388    -1.801625221427     2.164675114976     1.007825032230
         H            3.296899276388    -1.836625221427     2.694675114976     1.007825032230
         H            2.276281276388    -3.290685221427     2.444935114976     1.007825032230
         H            2.567717276388    -2.125065221427     1.096705114976     1.007825032230

  Running in c1 symmetry.

  Rotational constants: A =      0.11128  B =      0.02731  C =      0.02521 [cm^-1]
  Rotational constants: A =   3336.06316  B =    818.63779  C =    755.66336 [MHz]
  Nuclear repulsion =  293.833850308767637

  Charge       = 0
  Multiplicity = 1
  Electrons    = 60
  Nalpha       = 30
  Nbeta        = 30

  ==> Algorithm <==

  SCF Algorithm Type is PK.
  DIIS enabled.
  MOM disabled.
  Fractional occupation disabled.
  Guess Type is SAD.
  Energy threshold   = 1.00e-06
  Density threshold  = 1.00e-10
  Integral threshold = 0.00e+00

  ==> Primary Basis <==

  Basis Set: CC-PVDZ
    Blend: CC-PVDZ
    Number of shells: 80
    Number of basis function: 158
    Number of Cartesian functions: 164
    Spherical Harmonics?: true
    Max angular momentum: 2

  ==> Pre-Iterations <==

   -------------------------------------------------------
    Irrep   Nso     Nmo     Nalpha   Nbeta   Ndocc  Nsocc
   -------------------------------------------------------
     A        158     158       0       0       0       0
   -------------------------------------------------------
    Total     158     158      30      30      30       0
   -------------------------------------------------------

  ==> Integral Setup <==

  Using integral reordering PK algorithm.
  Sizing the integral batches needed.
  Building batch lookup table.
   Calculation information:
      Number of atoms:                  20
      Number of AO shells:              80
      Number of primitives:            230
      Number of atomic orbitals:       164
      Number of basis functions:       158

      Integral cutoff                 1.00e-12
      Number of threads:                 1

	Batch   1 pq = [       0,    9405] index = [             0,44231715] size =     44231715
	Batch   2 pq = [    9405,   12561] index = [      44231715,78895641] size =     34663926
  Task number: 8
  Buffer size: 11059200
  Buffer per thread: 2
  We computed 4372871 shell quartets total.
  Whereas there are 5250420 unique shell quartets.

  ==> DiskJK: Disk-Based J/K Matrices <==

    J tasked:                  Yes
    K tasked:                  Yes
    wK tasked:                  No
    Memory [MiB]:              375
    Schwarz Cutoff:          1E-12

    OpenMP threads:              1

  Minimum eigenvalue in the overlap matrix is 6.5644317478E-03.
  Using Symmetric Orthogonalization.

  SCF Guess: Superposition of Atomic Densities via on-the-fly atomic UHF.

  ==> Iterations <==

                        Total Energy        Delta E     RMS |[F,P]|

   @RHF iter SAD:  -593.92776665020006   -5.93928e+02   0.00000e+00
   @RHF iter   1:  -594.84599289276514   -9.18226e-01   3.19789e-03 DIIS
   @RHF iter   2:  -594.99774461989944   -1.51752e-01   1.30619e-03 DIIS
   @RHF iter   3:  -595.02129286207219   -2.35482e-02   3.00366e-04 DIIS
   @RHF iter   4:  -595.02360864549507   -2.31578e-03   5.55232e-05 DIIS
   @RHF iter   5:  -595.02366922144233   -6.05759e-05   1.65728e-05 DIIS
   @RHF iter   6:  -595.02367443309436   -5.21165e-06   3.51314e-06 DIIS
   @RHF iter   7:  -595.02367472864171   -2.95547e-07   8.30703e-07 DIIS
   @RHF iter   8:  -595.02367474919492   -2.05532e-08   2.83412e-07 DIIS
   @RHF iter   9:  -595.02367475165386   -2.45893e-09   8.57303e-08 DIIS
   @RHF iter  10:  -595.02367475191534   -2.61480e-10   2.25801e-08 DIIS
   @RHF iter  11:  -595.02367475193455   -1.92131e-11   5.41310e-09 DIIS
   @RHF iter  12:  -595.02367475193546   -9.09495e-13   1.76110e-09 DIIS
   @RHF iter  13:  -595.02367475193762   -2.16005e-12   5.75942e-10 DIIS
   @RHF iter  14:  -595.02367475193807   -4.54747e-13   1.47085e-10 DIIS
   @RHF iter  15:  -595.02367475193569    2.38742e-12   5.07862e-11 DIIS
  Energy and wave function converged.

  ==> Post-Iterations <==

    Orbital Energies [Eh]
    ---------------------

    Doubly Occupied:

       1A    -91.933919     2A    -11.255087     3A    -11.254856
       4A    -11.226396     5A    -11.221001     6A    -11.219271
       7A     -8.937729     8A     -6.619742     9A     -6.618248
      10A     -6.616032    11A     -1.080923    12A     -1.022549
      13A     -0.995909    14A     -0.883531    15A     -0.837805
      16A     -0.788913    17A     -0.630352    18A     -0.607202
      19A     -0.603086    20A     -0.599513    21A     -0.583791
      22A     -0.562164    23A     -0.528234    24A     -0.505588
      25A     -0.500471    26A     -0.489304    27A     -0.486097
      28A     -0.481616    29A     -0.419630    30A     -0.331186

    Virtual:

      31A      0.165269    32A      0.179472    33A      0.197898
      34A      0.207276    35A      0.223546    36A      0.234350
      37A      0.243253    38A      0.250397    39A      0.259926
      40A      0.267702    41A      0.274601    42A      0.287138
      43A      0.305242    44A      0.310439    45A      0.321427
      46A      0.335815    47A      0.381608    48A      0.399018
      49A      0.529833    50A      0.558797    51A      0.583692
      52A      0.598344    53A      0.602254    54A      0.610322
      55A      0.616469    56A      0.628434    57A      0.635482
      58A      0.666644    59A      0.677076    60A      0.699820
      61A      0.730767    62A      0.793592    63A      0.817683
      64A      0.825142    65A      0.826864    66A      0.842197
      67A      0.851336    68A      0.867801    69A      0.878226
      70A      0.881853    71A      0.887995    72A      0.891624
      73A      0.893726    74A      0.899483    75A      0.908370
      76A      0.920872    77A      0.925463    78A      0.934259
      79A      0.938138    80A      0.965625    81A      0.975434
      82A      0.991351    83A      1.016978    84A      1.037943
      85A      1.120490    86A      1.153317    87A      1.168876
      88A      1.217859    89A      1.239536    90A      1.253328
      91A      1.306727    92A      1.335801    93A      1.354169
      94A      1.419484    95A      1.473431    96A      1.480228
      97A      1.484863    98A      1.507434    99A      1.553455
     100A      1.613977   101A      1.652471   102A      1.675819
     103A      1.689217   104A      1.700375   105A      1.705695
     106A      1.848676   107A      1.858011   108A      1.873176
     109A      1.890366   110A      1.894032   111A      1.897884
     112A      1.904676   113A      1.917504   114A      1.936779
     115A      1.941306   116A      1.946044   117A      1.953095
     118A      1.957635   119A      1.971471   120A      1.975399
     121A      1.984053   122A      1.998730   123A      2.012407
     124A      2.020675   125A      2.051270   126A      2.083472
     127A      2.098733   128A      2.122598   129A      2.150648
     130A      2.231474   131A      2.251618   132A      2.287531
     133A      2.291411   134A      2.306519   135A      2.328473
     136A      2.415103   137A      2.445780   138A      2.452713
     139A      2.469133   140A      2.480341   141A      2.553466
     142A      2.570791   143A      2.574322   144A      2.583767
     145A      2.755575   146A      2.758461   147A      2.772473
     148A      2.784727   149A      2.789985   150A      2.799104
     151A      2.832729   152A      2.834681   153A      2.844552
     154A      2.848118   155A      2.892231   156A      2.953617
     157A      2.957683   158A      3.013099

    Final Occupation by Irrep:
              A
    DOCC [    30 ]

  @RHF Final Energy:  -595.02367475193569

   => Energetics <=

    Nuclear Repulsion Energy =            293.8338503087676372
    One-Electron Energy =               -1398.0347540457196374
    Two-Electron Energy =                 509.1772289850164270
    Total Energy =                       -595.0236747519356868

Computation Completed

Properties will be evaluated at   0.000000,   0.000000,   0.000000 [a0]

Properties computed using the SCF density matrix

  Nuclear Dipole Moment: [e a0]
     X:    -0.1678      Y:    -6.3029      Z:     9.7570

  Electronic Dipole Moment: [e a0]
     X:    -0.2697      Y:     6.2659      Z:    -9.2273

  Dipole Moment: [e a0]
     X:    -0.4375      Y:    -0.0371      Z:     0.5297     Total:     0.6880

  Dipole Moment: [D]
     X:    -1.1120      Y:    -0.0942      Z:     1.3463     Total:     1.7487

*** tstop() called on ds3 at Tue Apr 28 09:01:44 2020
Module time:
	user time   =      33.73 seconds =       0.56 minutes
	system time =      13.07 seconds =       0.22 minutes
	total time  =         45 seconds =       0.75 minutes
Total time:
	user time   =      33.73 seconds =       0.56 minutes
	system time =      13.07 seconds =       0.22 minutes
	total time  =         45 seconds =       0.75 minutes
                                     G D M A

                                 by Anthony Stone

                           version 2.2.06, 22 June 2011

               Distributed Multipoles from Gaussian wavefunctions

Starting at 9:1:44 on 28 Apr 2020

Using SCF density matrix from file ./SSI/SSI-015MET-023LEU-1-dimer.test.26316.fchk

                         Distributed Multipole Analysis

Standard DMA

Positions and radii in angstrom
Multipole moments in atomic units, ea_0^k for rank k

C          x = -0.538101  y = -0.321625  z = -0.432325 angstrom
           Maximum rank =  0   Radius =  0.650 angstrom
                   Q00  =  -0.201309

C          x = -1.951101  y = -0.792625  z = -0.757325 angstrom
           Maximum rank =  0   Radius =  0.650 angstrom
                   Q00  =  -0.244112

C          x = -1.054101  y =  2.383375  z = -0.696325 angstrom
           Maximum rank =  0   Radius =  0.650 angstrom
                   Q00  =  -0.360548

S          x = -0.029101  y =  1.110375  z = -1.433325 angstrom
           Maximum rank =  0   Radius =  0.650 angstrom
                   Q00  =   0.108813

H          x = -0.534101  y = -0.005625  z =  0.611675 angstrom
           Maximum rank =  0   Radius =  0.325 angstrom
                   Q00  =   0.054786

H          x =  0.183899  y = -1.118625  z = -0.478325 angstrom
           Maximum rank =  0   Radius =  0.325 angstrom
                   Q00  =   0.094066

H          x = -2.037101  y = -0.900625  z = -1.837325 angstrom
           Maximum rank =  0   Radius =  0.325 angstrom
                   Q00  =   0.086945

H          x = -2.643101  y = -0.006625  z = -0.452325 angstrom
           Maximum rank =  0   Radius =  0.325 angstrom
                   Q00  =   0.077077

H          x = -0.875101  y =  2.428375  z =  0.377675 angstrom
           Maximum rank =  0   Radius =  0.325 angstrom
                   Q00  =   0.086383

H          x = -0.806101  y =  3.348375  z = -1.139325 angstrom
           Maximum rank =  0   Radius =  0.325 angstrom
                   Q00  =   0.122136

H          x = -2.107101  y =  2.172375  z = -0.882325 angstrom
           Maximum rank =  0   Radius =  0.325 angstrom
                   Q00  =   0.085184

H          x = -2.265043  y = -1.727985  z = -0.270965 angstrom
           Maximum rank =  0   Radius =  0.325 angstrom
                   Q00  =   0.090785

C          x =  1.213899  y = -1.427625  z =  2.645675 angstrom
           Maximum rank =  0   Radius =  0.650 angstrom
                   Q00  =  -0.236704

C          x =  2.421899  y = -2.232625  z =  2.181675 angstrom
           Maximum rank =  0   Radius =  0.650 angstrom
                   Q00  =  -0.233834

H          x =  1.104899  y = -1.513625  z =  3.727675 angstrom
           Maximum rank =  0   Radius =  0.325 angstrom
                   Q00  =   0.079505

H          x =  1.350899  y = -0.376625  z =  2.390675 angstrom
           Maximum rank =  0   Radius =  0.325 angstrom
                   Q00  =   0.079479

H          x =  0.308899  y = -1.801625  z =  2.164675 angstrom
           Maximum rank =  0   Radius =  0.325 angstrom
                   Q00  =   0.073465

H          x =  3.296899  y = -1.836625  z =  2.694675 angstrom
           Maximum rank =  0   Radius =  0.325 angstrom
                   Q00  =   0.080178

H          x =  2.276281  y = -3.290685  z =  2.444935 angstrom
           Maximum rank =  0   Radius =  0.325 angstrom
                   Q00  =   0.077811

H          x =  2.567717  y = -2.125065  z =  1.096705 angstrom
           Maximum rank =  0   Radius =  0.325 angstrom
                   Q00  =   0.079894

Total multipoles referred to origin at
           x =   0.000000,  y =    0.000000,  z =    0.000000 angstrom
                   Q00  =  -0.000000

Finished at 9:1:44 on 28 Apr 2020

  DMA results are available in the Python driver through the
	  variable('DMA DISTRIBUTED MULTIPOLES')
  and
	  variable('DMA TOTAL MULTIPOLES')
  commands.

    Psi4 stopped on: Tuesday, 28 April 2020 09:01AM
    Psi4 wall time for execution: 0:00:45.14

*** Psi4 exiting successfully. Buy a developer a beer!
