                               Psi4 1.3.2 release

  ==> Input File <==

--------------------------------------------------------------------------
import numpy as np
set {scf_type pk
basis cc-pvdz
d_convergence 10
gdma_switch   0
gdma_limit    0
gdma_origin   [ 0.0,  0.0,  0.0 ]
}
molecule test {
    units Angstrom
    1 1
    --
    1 1
    C                4.138976358454343    -0.948178653564308    -2.999070109675610
    C                1.844976358454343    -0.050178653564308    -2.760070109675610
    N                1.449976358454343    -1.135178653564308    -2.119070109675610
    N                3.091976358454343     0.064821346435692    -3.190070109675609
    N                0.996976358454343     0.939821346435692    -2.939070109675610
    H                2.075976358454343    -1.912178653564308    -1.997070109675610
    H                0.505976358454343    -1.177178653564308    -1.752070109675610
    H                3.342976358454343     0.915821346435692    -3.683070109675610
    H                1.310976358454343     1.810821346435692    -3.335070109675610
    H               -0.004023641545657     0.735821346435692    -2.881070109675610
    H                4.774976358454343    -0.967178653564308    -3.885070109675610
    H                3.724976358454343    -1.951178653564308    -2.881070109675610
    H                4.754156358454343    -0.687938653564308    -2.125100109675610
    C               -1.990023641545657     1.636821346435692     4.414929890324390
    C               -1.362023641545657    -0.535178653564308     0.747929890324390
    C               -2.325023641545657    -0.972178653564308     1.661929890324390
    C               -0.613023641545657     0.608821346435692     1.021929890324390
    C               -2.535023641545657    -0.254178653564308     2.843929890324390
    C               -0.831023641545657     1.317821346435692     2.205929890324390
    C               -1.794023641545657     0.893821346435692     3.124929890324390
    O               -1.155023641545657    -1.214178653564308    -0.416070109675610
    H               -1.756023641545657    -1.964178653564308    -0.504070109675610
    H               -2.899023641545657    -1.866178653564308     1.459929890324390
    H                0.137976358454343     0.934821346435692     0.318929890324390
    H               -3.262023641545657    -0.601178653564308     3.556929890324390
    H               -0.243023641545657     2.200821346435692     2.414929890324390
    H               -1.127023641545657     2.278821346435691     4.578929890324391
    H               -1.969023641545657     0.893821346435692     5.213929890324391
    H               -2.911323641545657     2.229491346435691     4.514669890324391

}
e, wfn = energy('scf', return_wfn=True)
gdma(wfn)
dmavals = variable('DMA DISTRIBUTED MULTIPOLES')
charges = np.array(dmavals)
print(charges)
np.save('SSI-089ARG-108TYR-1-dimer.npy', np.array(charges))--------------------------------------------------------------------------

*** tstart() called on ds3
*** at Mon Apr 27 00:10:00 2020

   => Loading Basis Set <=

    Name: CC-PVDZ
    Role: ORBITAL
    Keyword: BASIS
    atoms 1-2, 14-20  entry C          line   138 file /theoryfs2/ds/metcalf/miniconda2/envs/tf2gpu/share/psi4/basis/cc-pvdz.gbs
    atoms 3-5         entry N          line   168 file /theoryfs2/ds/metcalf/miniconda2/envs/tf2gpu/share/psi4/basis/cc-pvdz.gbs
    atoms 6-13, 22-29 entry H          line    22 file /theoryfs2/ds/metcalf/miniconda2/envs/tf2gpu/share/psi4/basis/cc-pvdz.gbs
    atoms 21          entry O          line   198 file /theoryfs2/ds/metcalf/miniconda2/envs/tf2gpu/share/psi4/basis/cc-pvdz.gbs

         ---------------------------------------------------------
                                   SCF
               by Justin Turney, Rob Parrish, Andy Simmonett
                          and Daniel G. A. Smith
                              RHF Reference
                        1 Threads,    500 MiB Core
         ---------------------------------------------------------

  ==> Geometry <==

    Molecular point group: c1
    Full point group: C1

    Geometry (in Angstrom), charge = 1, multiplicity = 1:

       Center              X                  Y                   Z               Mass
    ------------   -----------------  -----------------  -----------------  -----------------
         C            4.138976358454    -0.948178653564    -2.999070109676    12.000000000000
         C            1.844976358454    -0.050178653564    -2.760070109676    12.000000000000
         N            1.449976358454    -1.135178653564    -2.119070109676    14.003074004430
         N            3.091976358454     0.064821346436    -3.190070109676    14.003074004430
         N            0.996976358454     0.939821346436    -2.939070109676    14.003074004430
         H            2.075976358454    -1.912178653564    -1.997070109676     1.007825032230
         H            0.505976358454    -1.177178653564    -1.752070109676     1.007825032230
         H            3.342976358454     0.915821346436    -3.683070109676     1.007825032230
         H            1.310976358454     1.810821346436    -3.335070109676     1.007825032230
         H           -0.004023641546     0.735821346436    -2.881070109676     1.007825032230
         H            4.774976358454    -0.967178653564    -3.885070109676     1.007825032230
         H            3.724976358454    -1.951178653564    -2.881070109676     1.007825032230
         H            4.754156358454    -0.687938653564    -2.125100109676     1.007825032230
         C           -1.990023641546     1.636821346436     4.414929890324    12.000000000000
         C           -1.362023641546    -0.535178653564     0.747929890324    12.000000000000
         C           -2.325023641546    -0.972178653564     1.661929890324    12.000000000000
         C           -0.613023641546     0.608821346436     1.021929890324    12.000000000000
         C           -2.535023641546    -0.254178653564     2.843929890324    12.000000000000
         C           -0.831023641546     1.317821346436     2.205929890324    12.000000000000
         C           -1.794023641546     0.893821346436     3.124929890324    12.000000000000
         O           -1.155023641546    -1.214178653564    -0.416070109676    15.994914619570
         H           -1.756023641546    -1.964178653564    -0.504070109676     1.007825032230
         H           -2.899023641546    -1.866178653564     1.459929890324     1.007825032230
         H            0.137976358454     0.934821346436     0.318929890324     1.007825032230
         H           -3.262023641546    -0.601178653564     3.556929890324     1.007825032230
         H           -0.243023641546     2.200821346436     2.414929890324     1.007825032230
         H           -1.127023641546     2.278821346436     4.578929890324     1.007825032230
         H           -1.969023641546     0.893821346436     5.213929890324     1.007825032230
         H           -2.911323641546     2.229491346436     4.514669890324     1.007825032230

  Running in c1 symmetry.

  Rotational constants: A =      0.05734  B =      0.00824  C =      0.00777 [cm^-1]
  Rotational constants: A =   1718.91205  B =    246.96464  C =    232.98531 [MHz]
  Nuclear repulsion =  748.816360185613917

  Charge       = 1
  Multiplicity = 1
  Electrons    = 98
  Nalpha       = 49
  Nbeta        = 49

  ==> Algorithm <==

  SCF Algorithm Type is PK.
  DIIS enabled.
  MOM disabled.
  Fractional occupation disabled.
  Guess Type is SAD.
  Energy threshold   = 1.00e-06
  Density threshold  = 1.00e-10
  Integral threshold = 0.00e+00

  ==> Primary Basis <==

  Basis Set: CC-PVDZ
    Blend: CC-PVDZ
    Number of shells: 126
    Number of basis function: 262
    Number of Cartesian functions: 275
    Spherical Harmonics?: true
    Max angular momentum: 2

  ==> Pre-Iterations <==

   -------------------------------------------------------
    Irrep   Nso     Nmo     Nalpha   Nbeta   Ndocc  Nsocc
   -------------------------------------------------------
     A        262     262       0       0       0       0
   -------------------------------------------------------
    Total     262     262      49      49      49       0
   -------------------------------------------------------

  ==> Integral Setup <==

  Using integral reordering PK algorithm.
  Sizing the integral batches needed.
  Building batch lookup table.
   Calculation information:
      Number of atoms:                  29
      Number of AO shells:             126
      Number of primitives:            366
      Number of atomic orbitals:       275
      Number of basis functions:       262

      Integral cutoff                 1.00e-12
      Number of threads:                 1

	Batch   1 pq = [       0,    9405] index = [             0,44231715] size =     44231715
	Batch   2 pq = [    9405,   13301] index = [      44231715,88464951] size =     44233236
	Batch   3 pq = [   13301,   16290] index = [      88464951,132690195] size =     44225244
	Batch   4 pq = [   16290,   18810] index = [     132690195,176917455] size =     44227260
	Batch   5 pq = [   18810,   21030] index = [     176917455,221140965] size =     44223510
	Batch   6 pq = [   21030,   23037] index = [     221140965,265363203] size =     44222238
	Batch   7 pq = [   23037,   24883] index = [     265363203,309594286] size =     44231083
	Batch   8 pq = [   24883,   26601] index = [     309594286,353819901] size =     44225615
	Batch   9 pq = [   26601,   28214] index = [     353819901,398029005] size =     44209104
	Batch  10 pq = [   28214,   29740] index = [     398029005,442248670] size =     44219665
	Batch  11 pq = [   29740,   31191] index = [     442248670,486454836] size =     44206166
	Batch  12 pq = [   31191,   32578] index = [     486454836,530679331] size =     44224495
	Batch  13 pq = [   32578,   33908] index = [     530679331,574893186] size =     44213855
	Batch  14 pq = [   33908,   34453] index = [     574893186,593521831] size =     18628645
  Task number: 54
  Buffer size: 11059200
  Buffer per thread: 2
  We computed 23919706 shell quartets total.
  Whereas there are 32012001 unique shell quartets.

  ==> DiskJK: Disk-Based J/K Matrices <==

    J tasked:                  Yes
    K tasked:                  Yes
    wK tasked:                  No
    Memory [MiB]:              375
    Schwarz Cutoff:          1E-12

    OpenMP threads:              1

  Minimum eigenvalue in the overlap matrix is 3.2670832710E-04.
  Using Symmetric Orthogonalization.

  SCF Guess: Superposition of Atomic Densities via on-the-fly atomic UHF.

  ==> Iterations <==

                        Total Energy        Delta E     RMS |[F,P]|

   @RHF iter SAD:  -587.43960747603342   -5.87440e+02   0.00000e+00
   @RHF iter   1:  -587.92736578504832   -4.87758e-01   2.62926e-03 DIIS
   @RHF iter   2:  -588.17961761690606   -2.52252e-01   1.06453e-03 DIIS
   @RHF iter   3:  -588.21720900057562   -3.75914e-02   2.76413e-04 DIIS
   @RHF iter   4:  -588.22091095422718   -3.70195e-03   1.07004e-04 DIIS
   @RHF iter   5:  -588.22137281321739   -4.61859e-04   1.98342e-05 DIIS
   @RHF iter   6:  -588.22139876048084   -2.59473e-05   6.98808e-06 DIIS
   @RHF iter   7:  -588.22140132012737   -2.55965e-06   1.78734e-06 DIIS
   @RHF iter   8:  -588.22140161238542   -2.92258e-07   5.66450e-07 DIIS
   @RHF iter   9:  -588.22140163164318   -1.92578e-08   1.86481e-07 DIIS
   @RHF iter  10:  -588.22140163410631   -2.46314e-09   6.09747e-08 DIIS
   @RHF iter  11:  -588.22140163456606   -4.59750e-10   2.47538e-08 DIIS
   @RHF iter  12:  -588.22140163468703   -1.20963e-10   1.31682e-08 DIIS
   @RHF iter  13:  -588.22140163472704   -4.00178e-11   5.23720e-09 DIIS
   @RHF iter  14:  -588.22140163473568   -8.64020e-12   1.96052e-09 DIIS
   @RHF iter  15:  -588.22140163473034    5.34328e-12   5.49360e-10 DIIS
   @RHF iter  16:  -588.22140163473432   -3.97904e-12   2.06332e-10 DIIS
   @RHF iter  17:  -588.22140163472989    4.43379e-12   6.95580e-11 DIIS
  Energy and wave function converged.

  ==> Post-Iterations <==

    Orbital Energies [Eh]
    ---------------------

    Doubly Occupied:

       1A    -20.707845     2A    -15.776820     3A    -15.774007
       4A    -15.765377     5A    -11.573907     6A    -11.435303
       7A    -11.399223     8A    -11.329333     9A    -11.327936
      10A    -11.327911    11A    -11.325627    12A    -11.320661
      13A    -11.300032    14A     -1.531765    15A     -1.520507
      16A     -1.389335    17A     -1.373953    18A     -1.239872
      19A     -1.131734    20A     -1.126644    21A     -1.107791
      22A     -1.022231    23A     -1.011501    24A     -0.965494
      25A     -0.939172    26A     -0.922253    27A     -0.898163
      28A     -0.849277    29A     -0.841205    30A     -0.833280
      31A     -0.809919    32A     -0.781162    33A     -0.767330
      34A     -0.735765    35A     -0.731881    36A     -0.717026
      37A     -0.702354    38A     -0.699188    39A     -0.678159
      40A     -0.672305    41A     -0.646968    42A     -0.608454
      43A     -0.600269    44A     -0.584562    45A     -0.576291
      46A     -0.573271    47A     -0.559401    48A     -0.427826
      49A     -0.395698

    Virtual:

      50A      0.006116    51A      0.032493    52A      0.038706
      53A      0.039566    54A      0.048967    55A      0.064868
      56A      0.072136    57A      0.091347    58A      0.104986
      59A      0.111709    60A      0.127981    61A      0.129686
      62A      0.136848    63A      0.154208    64A      0.170193
      65A      0.179243    66A      0.194573    67A      0.205039
      68A      0.215403    69A      0.220760    70A      0.282822
      71A      0.288897    72A      0.292106    73A      0.326754
      74A      0.344901    75A      0.359920    76A      0.369778
      77A      0.395104    78A      0.407875    79A      0.420675
      80A      0.443529    81A      0.460562    82A      0.519652
      83A      0.523125    84A      0.539118    85A      0.543601
      86A      0.547704    87A      0.560526    88A      0.563100
      89A      0.567604    90A      0.575091    91A      0.584190
      92A      0.598267    93A      0.617560    94A      0.622951
      95A      0.640603    96A      0.645342    97A      0.649023
      98A      0.670572    99A      0.675174   100A      0.686716
     101A      0.689303   102A      0.695613   103A      0.706207
     104A      0.713210   105A      0.719177   106A      0.739055
     107A      0.749385   108A      0.752260   109A      0.760055
     110A      0.776370   111A      0.783522   112A      0.798472
     113A      0.805707   114A      0.811760   115A      0.820419
     116A      0.825301   117A      0.842057   118A      0.846027
     119A      0.857010   120A      0.866372   121A      0.869550
     122A      0.879957   123A      0.907843   124A      0.930845
     125A      0.932283   126A      0.946871   127A      0.966392
     128A      0.973562   129A      1.006787   130A      1.037093
     131A      1.049802   132A      1.053990   133A      1.075330
     134A      1.093727   135A      1.108393   136A      1.119927
     137A      1.137272   138A      1.151234   139A      1.155755
     140A      1.161533   141A      1.179192   142A      1.196997
     143A      1.202816   144A      1.212820   145A      1.215267
     146A      1.218513   147A      1.239238   148A      1.260715
     149A      1.265656   150A      1.268668   151A      1.313985
     152A      1.322001   153A      1.383586   154A      1.398572
     155A      1.422581   156A      1.431593   157A      1.458120
     158A      1.484621   159A      1.505740   160A      1.512826
     161A      1.527872   162A      1.545362   163A      1.548655
     164A      1.580727   165A      1.610767   166A      1.621651
     167A      1.622176   168A      1.638126   169A      1.660171
     170A      1.689511   171A      1.691601   172A      1.705860
     173A      1.709517   174A      1.716950   175A      1.732992
     176A      1.744541   177A      1.752664   178A      1.761499
     179A      1.781804   180A      1.788025   181A      1.794554
     182A      1.806036   183A      1.816593   184A      1.824209
     185A      1.827232   186A      1.831537   187A      1.859041
     188A      1.871595   189A      1.876387   190A      1.886916
     191A      1.894957   192A      1.915858   193A      1.931135
     194A      1.934859   195A      1.956084   196A      1.969316
     197A      1.973701   198A      1.976994   199A      1.983729
     200A      2.012555   201A      2.037581   202A      2.048054
     203A      2.072359   204A      2.086658   205A      2.103505
     206A      2.134047   207A      2.155684   208A      2.157921
     209A      2.167403   210A      2.172909   211A      2.180360
     212A      2.214958   213A      2.240893   214A      2.260885
     215A      2.267777   216A      2.272594   217A      2.295242
     218A      2.327750   219A      2.343748   220A      2.359336
     221A      2.377035   222A      2.389409   223A      2.391848
     224A      2.414919   225A      2.440828   226A      2.449523
     227A      2.467519   228A      2.476548   229A      2.520598
     230A      2.535352   231A      2.562185   232A      2.583900
     233A      2.605791   234A      2.647919   235A      2.656158
     236A      2.696299   237A      2.710903   238A      2.719497
     239A      2.722460   240A      2.752050   241A      2.781896
     242A      2.796819   243A      2.811740   244A      2.822256
     245A      2.863018   246A      2.874028   247A      2.904934
     248A      2.918639   249A      2.989814   250A      3.033791
     251A      3.053914   252A      3.101585   253A      3.123082
     254A      3.157088   255A      3.189808   256A      3.220982
     257A      3.494223   258A      3.562936   259A      3.571432
     260A      3.658535   261A      3.860691   262A      4.071876

    Final Occupation by Irrep:
              A
    DOCC [    49 ]

  @RHF Final Energy:  -588.22140163472989

   => Energetics <=

    Nuclear Repulsion Energy =            748.8163601856139167
    One-Electron Energy =               -2271.4035471701390634
    Two-Electron Energy =                 934.3657853497951464
    Total Energy =                       -588.2214016347298866

Computation Completed

Properties will be evaluated at   0.000000,   0.000000,   0.000000 [a0]

Properties computed using the SCF density matrix

  Nuclear Dipole Moment: [e a0]
     X:     6.0311      Y:     0.8130      Z:    -0.9018

  Electronic Dipole Moment: [e a0]
     X:    -3.1413      Y:    -1.2710      Z:    -3.3835

  Dipole Moment: [e a0]
     X:     2.8899      Y:    -0.4580      Z:    -4.2853     Total:     5.1890

  Dipole Moment: [D]
     X:     7.3453      Y:    -1.1642      Z:   -10.8922     Total:    13.1890

*** tstop() called on ds3 at Mon Apr 27 00:18:07 2020
Module time:
	user time   =     190.16 seconds =       3.17 minutes
	system time =     117.57 seconds =       1.96 minutes
	total time  =        487 seconds =       8.12 minutes
Total time:
	user time   =     190.16 seconds =       3.17 minutes
	system time =     117.57 seconds =       1.96 minutes
	total time  =        487 seconds =       8.12 minutes
                                     G D M A

                                 by Anthony Stone

                           version 2.2.06, 22 June 2011

               Distributed Multipoles from Gaussian wavefunctions

Starting at 0:18:7 on 27 Apr 2020

Using SCF density matrix from file ./SSI/SSI-089ARG-108TYR-1-dimer.test.7736.fchk

                         Distributed Multipole Analysis

Standard DMA

Positions and radii in angstrom
Multipole moments in atomic units, ea_0^k for rank k

C          x =  4.138976  y = -0.948179  z = -2.999070 angstrom
           Maximum rank =  0   Radius =  0.650 angstrom
                   Q00  =  -0.122986

C          x =  1.844976  y = -0.050179  z = -2.760070 angstrom
           Maximum rank =  0   Radius =  0.650 angstrom
                   Q00  =   1.080110

N          x =  1.449976  y = -1.135179  z = -2.119070 angstrom
           Maximum rank =  0   Radius =  0.650 angstrom
                   Q00  =  -0.594281

N          x =  3.091976  y =  0.064821  z = -3.190070 angstrom
           Maximum rank =  0   Radius =  0.650 angstrom
                   Q00  =  -0.500073

N          x =  0.996976  y =  0.939821  z = -2.939070 angstrom
           Maximum rank =  0   Radius =  0.650 angstrom
                   Q00  =  -0.596642

H          x =  2.075976  y = -1.912179  z = -1.997070 angstrom
           Maximum rank =  0   Radius =  0.325 angstrom
                   Q00  =   0.263573

H          x =  0.505976  y = -1.177179  z = -1.752070 angstrom
           Maximum rank =  0   Radius =  0.325 angstrom
                   Q00  =   0.288934

H          x =  3.342976  y =  0.915821  z = -3.683070 angstrom
           Maximum rank =  0   Radius =  0.325 angstrom
                   Q00  =   0.233863

H          x =  1.310976  y =  1.810821  z = -3.335070 angstrom
           Maximum rank =  0   Radius =  0.325 angstrom
                   Q00  =   0.261404

H          x = -0.004024  y =  0.735821  z = -2.881070 angstrom
           Maximum rank =  0   Radius =  0.325 angstrom
                   Q00  =   0.273793

H          x =  4.774976  y = -0.967179  z = -3.885070 angstrom
           Maximum rank =  0   Radius =  0.325 angstrom
                   Q00  =   0.152897

H          x =  3.724976  y = -1.951179  z = -2.881070 angstrom
           Maximum rank =  0   Radius =  0.325 angstrom
                   Q00  =   0.112601

H          x =  4.754156  y = -0.687939  z = -2.125100 angstrom
           Maximum rank =  0   Radius =  0.325 angstrom
                   Q00  =   0.131904

C          x = -1.990024  y =  1.636821  z =  4.414930 angstrom
           Maximum rank =  0   Radius =  0.650 angstrom
                   Q00  =  -0.192372

C          x = -1.362024  y = -0.535179  z =  0.747930 angstrom
           Maximum rank =  0   Radius =  0.650 angstrom
                   Q00  =   0.265534

C          x = -2.325024  y = -0.972179  z =  1.661930 angstrom
           Maximum rank =  0   Radius =  0.650 angstrom
                   Q00  =  -0.184454

C          x = -0.613024  y =  0.608821  z =  1.021930 angstrom
           Maximum rank =  0   Radius =  0.650 angstrom
                   Q00  =  -0.121192

C          x = -2.535024  y = -0.254179  z =  2.843930 angstrom
           Maximum rank =  0   Radius =  0.650 angstrom
                   Q00  =  -0.016918

C          x = -0.831024  y =  1.317821  z =  2.205930 angstrom
           Maximum rank =  0   Radius =  0.650 angstrom
                   Q00  =   0.034532

C          x = -1.794024  y =  0.893821  z =  3.124930 angstrom
           Maximum rank =  0   Radius =  0.650 angstrom
                   Q00  =  -0.120580

O          x = -1.155024  y = -1.214179  z = -0.416070 angstrom
           Maximum rank =  0   Radius =  0.650 angstrom
                   Q00  =  -0.696253

H          x = -1.756024  y = -1.964179  z = -0.504070 angstrom
           Maximum rank =  0   Radius =  0.325 angstrom
                   Q00  =   0.426462

H          x = -2.899024  y = -1.866179  z =  1.459930 angstrom
           Maximum rank =  0   Radius =  0.325 angstrom
                   Q00  =   0.086199

H          x =  0.137976  y =  0.934821  z =  0.318930 angstrom
           Maximum rank =  0   Radius =  0.325 angstrom
                   Q00  =   0.051538

H          x = -3.262024  y = -0.601179  z =  3.556930 angstrom
           Maximum rank =  0   Radius =  0.325 angstrom
                   Q00  =   0.086380

H          x = -0.243024  y =  2.200821  z =  2.414930 angstrom
           Maximum rank =  0   Radius =  0.325 angstrom
                   Q00  =   0.076981

H          x = -1.127024  y =  2.278821  z =  4.578930 angstrom
           Maximum rank =  0   Radius =  0.325 angstrom
                   Q00  =   0.100700

H          x = -1.969024  y =  0.893821  z =  5.213930 angstrom
           Maximum rank =  0   Radius =  0.325 angstrom
                   Q00  =   0.103729

H          x = -2.911324  y =  2.229491  z =  4.514670 angstrom
           Maximum rank =  0   Radius =  0.325 angstrom
                   Q00  =   0.114616

Total multipoles referred to origin at
           x =   0.000000,  y =    0.000000,  z =    0.000000 angstrom
                   Q00  =   1.000000

Finished at 0:18:7 on 27 Apr 2020

  DMA results are available in the Python driver through the
	  variable('DMA DISTRIBUTED MULTIPOLES')
  and
	  variable('DMA TOTAL MULTIPOLES')
  commands.

    Psi4 stopped on: Monday, 27 April 2020 12:18AM
    Psi4 wall time for execution: 0:08:07.06

*** Psi4 exiting successfully. Buy a developer a beer!
