                               Psi4 1.3.2 release

  ==> Input File <==

--------------------------------------------------------------------------
import numpy as np
set {scf_type pk
basis cc-pvdz
d_convergence 10
gdma_switch   0
gdma_limit    0
gdma_origin   [ 0.0,  0.0,  0.0 ]
}
molecule test {
    units Angstrom
    0 1
    --
    0 1
    C               -0.455855169699496     1.716585863570978     2.855186187388543
    C               -2.197855169699496     2.000585863570977    -0.308813812611457
    C               -1.466855169699496     1.825585863570978     1.755186187388543
    C               -2.810855169699496     1.988585863570978     1.804186187388543
    N               -1.098855169699496     1.879585863570978     0.427186187388543
    N               -3.245855169699496     2.080585863570978     0.499186187388543
    H               -2.224855169699496     2.070585863570978    -1.387813812611457
    H               -4.206855169699495     2.133585863570978     0.187186187388543
    H               -3.418855169699496     2.020585863570977     2.699186187388543
    H                0.195144830300504     0.869585863570978     2.637186187388543
    H               -0.961855169699496     1.522585863570978     3.801186187388544
    H                0.152194830300504     2.630475863570978     2.926376187388543
    C                1.526144830300504    -4.179414136429022    -1.965813812611457
    C                0.308144830300504    -0.691414136429022    -1.107813812611457
    C                0.343144830300504    -2.000414136429022    -1.588813812611457
    C                1.398144830300504    -0.175414136429022    -0.403813812611457
    C                1.461144830300504    -2.798414136429022    -1.381813812611457
    C                2.519144830300504    -0.948414136429022    -0.223813812611457
    C                2.550144830300505    -2.260414136429022    -0.692813812611457
    O                1.398144830300504     1.101585863570978     0.072186187388543
    H               -0.565855169699496    -0.082414136429022    -1.280813812611457
    H               -0.499855169699496    -2.390414136429022    -2.140813812611456
    H                0.490144830300504     1.459585863570978     0.065186187388543
    H                3.369144830300505    -0.537414136429022     0.300186187388543
    H                0.588144830300504    -4.696414136429023    -1.760813812611457
    H                2.328144830300505    -4.737414136429022    -1.482813812611457
    H                3.438144830300504    -2.859414136429022    -0.537813812611457
    H                1.695084830300504    -4.154364136429023    -3.052474812611456

}
e, wfn = energy('scf', return_wfn=True)
gdma(wfn)
dmavals = variable('DMA DISTRIBUTED MULTIPOLES')
charges = np.array(dmavals)
print(charges)
np.save('SSI-050HIE-087TYR-1-dimer.npy', np.array(charges))--------------------------------------------------------------------------

*** tstart() called on ds3
*** at Tue Apr 28 15:36:27 2020

   => Loading Basis Set <=

    Name: CC-PVDZ
    Role: ORBITAL
    Keyword: BASIS
    atoms 1-4, 13-19  entry C          line   138 file /theoryfs2/ds/metcalf/miniconda2/envs/tf2gpu/share/psi4/basis/cc-pvdz.gbs
    atoms 5-6         entry N          line   168 file /theoryfs2/ds/metcalf/miniconda2/envs/tf2gpu/share/psi4/basis/cc-pvdz.gbs
    atoms 7-12, 21-28 entry H          line    22 file /theoryfs2/ds/metcalf/miniconda2/envs/tf2gpu/share/psi4/basis/cc-pvdz.gbs
    atoms 20          entry O          line   198 file /theoryfs2/ds/metcalf/miniconda2/envs/tf2gpu/share/psi4/basis/cc-pvdz.gbs

         ---------------------------------------------------------
                                   SCF
               by Justin Turney, Rob Parrish, Andy Simmonett
                          and Daniel G. A. Smith
                              RHF Reference
                        1 Threads,    500 MiB Core
         ---------------------------------------------------------

  ==> Geometry <==

    Molecular point group: c1
    Full point group: C1

    Geometry (in Angstrom), charge = 0, multiplicity = 1:

       Center              X                  Y                   Z               Mass
    ------------   -----------------  -----------------  -----------------  -----------------
         C           -0.455855169699     1.716585863571     2.855186187389    12.000000000000
         C           -2.197855169699     2.000585863571    -0.308813812611    12.000000000000
         C           -1.466855169699     1.825585863571     1.755186187389    12.000000000000
         C           -2.810855169699     1.988585863571     1.804186187389    12.000000000000
         N           -1.098855169699     1.879585863571     0.427186187389    14.003074004430
         N           -3.245855169699     2.080585863571     0.499186187389    14.003074004430
         H           -2.224855169699     2.070585863571    -1.387813812611     1.007825032230
         H           -4.206855169699     2.133585863571     0.187186187389     1.007825032230
         H           -3.418855169699     2.020585863571     2.699186187389     1.007825032230
         H            0.195144830301     0.869585863571     2.637186187389     1.007825032230
         H           -0.961855169699     1.522585863571     3.801186187389     1.007825032230
         H            0.152194830301     2.630475863571     2.926376187389     1.007825032230
         C            1.526144830301    -4.179414136429    -1.965813812611    12.000000000000
         C            0.308144830301    -0.691414136429    -1.107813812611    12.000000000000
         C            0.343144830301    -2.000414136429    -1.588813812611    12.000000000000
         C            1.398144830301    -0.175414136429    -0.403813812611    12.000000000000
         C            1.461144830301    -2.798414136429    -1.381813812611    12.000000000000
         C            2.519144830301    -0.948414136429    -0.223813812611    12.000000000000
         C            2.550144830301    -2.260414136429    -0.692813812611    12.000000000000
         O            1.398144830301     1.101585863571     0.072186187389    15.994914619570
         H           -0.565855169699    -0.082414136429    -1.280813812611     1.007825032230
         H           -0.499855169699    -2.390414136429    -2.140813812611     1.007825032230
         H            0.490144830301     1.459585863571     0.065186187389     1.007825032230
         H            3.369144830301    -0.537414136429     0.300186187389     1.007825032230
         H            0.588144830301    -4.696414136429    -1.760813812611     1.007825032230
         H            2.328144830301    -4.737414136429    -1.482813812611     1.007825032230
         H            3.438144830301    -2.859414136429    -0.537813812611     1.007825032230
         H            1.695084830301    -4.154364136429    -3.052474812611     1.007825032230

  Running in c1 symmetry.

  Rotational constants: A =      0.04713  B =      0.01047  C =      0.00945 [cm^-1]
  Rotational constants: A =   1413.02121  B =    313.97022  C =    283.28883 [MHz]
  Nuclear repulsion =  831.065604735349893

  Charge       = 0
  Multiplicity = 1
  Electrons    = 102
  Nalpha       = 51
  Nbeta        = 51

  ==> Algorithm <==

  SCF Algorithm Type is PK.
  DIIS enabled.
  MOM disabled.
  Fractional occupation disabled.
  Guess Type is SAD.
  Energy threshold   = 1.00e-06
  Density threshold  = 1.00e-10
  Integral threshold = 0.00e+00

  ==> Primary Basis <==

  Basis Set: CC-PVDZ
    Blend: CC-PVDZ
    Number of shells: 126
    Number of basis function: 266
    Number of Cartesian functions: 280
    Spherical Harmonics?: true
    Max angular momentum: 2

  ==> Pre-Iterations <==

   -------------------------------------------------------
    Irrep   Nso     Nmo     Nalpha   Nbeta   Ndocc  Nsocc
   -------------------------------------------------------
     A        266     266       0       0       0       0
   -------------------------------------------------------
    Total     266     266      51      51      51       0
   -------------------------------------------------------

  ==> Integral Setup <==

  Using integral reordering PK algorithm.
  Sizing the integral batches needed.
  Building batch lookup table.
   Calculation information:
      Number of atoms:                  28
      Number of AO shells:             126
      Number of primitives:            378
      Number of atomic orbitals:       280
      Number of basis functions:       266

      Integral cutoff                 1.00e-12
      Number of threads:                 1

	Batch   1 pq = [       0,    9405] index = [             0,44231715] size =     44231715
	Batch   2 pq = [    9405,   13301] index = [      44231715,88464951] size =     44233236
	Batch   3 pq = [   13301,   16290] index = [      88464951,132690195] size =     44225244
	Batch   4 pq = [   16290,   18810] index = [     132690195,176917455] size =     44227260
	Batch   5 pq = [   18810,   21030] index = [     176917455,221140965] size =     44223510
	Batch   6 pq = [   21030,   23037] index = [     221140965,265363203] size =     44222238
	Batch   7 pq = [   23037,   24883] index = [     265363203,309594286] size =     44231083
	Batch   8 pq = [   24883,   26601] index = [     309594286,353819901] size =     44225615
	Batch   9 pq = [   26601,   28214] index = [     353819901,398029005] size =     44209104
	Batch  10 pq = [   28214,   29740] index = [     398029005,442248670] size =     44219665
	Batch  11 pq = [   29740,   31191] index = [     442248670,486454836] size =     44206166
	Batch  12 pq = [   31191,   32578] index = [     486454836,530679331] size =     44224495
	Batch  13 pq = [   32578,   33908] index = [     530679331,574893186] size =     44213855
	Batch  14 pq = [   33908,   35188] index = [     574893186,619115266] size =     44222080
	Batch  15 pq = [   35188,   35511] index = [     619115266,630533316] size =     11418050
  Task number: 58
  Buffer size: 11059200
  Buffer per thread: 2
  We computed 28499311 shell quartets total.
  Whereas there are 32012001 unique shell quartets.

  ==> DiskJK: Disk-Based J/K Matrices <==

    J tasked:                  Yes
    K tasked:                  Yes
    wK tasked:                  No
    Memory [MiB]:              375
    Schwarz Cutoff:          1E-12

    OpenMP threads:              1

  Minimum eigenvalue in the overlap matrix is 3.1011368758E-04.
  Using Symmetric Orthogonalization.

  SCF Guess: Superposition of Atomic Densities via on-the-fly atomic UHF.

  ==> Iterations <==

                        Total Energy        Delta E     RMS |[F,P]|

   @RHF iter SAD:  -607.74157635377674   -6.07742e+02   0.00000e+00
   @RHF iter   1:  -608.21129966391493   -4.69723e-01   2.54344e-03 DIIS
   @RHF iter   2:  -608.45975728659573   -2.48458e-01   1.13604e-03 DIIS
   @RHF iter   3:  -608.50255535679116   -4.27981e-02   3.06573e-04 DIIS
   @RHF iter   4:  -608.50674547597782   -4.19012e-03   1.27553e-04 DIIS
   @RHF iter   5:  -608.50738293686231   -6.37461e-04   2.09281e-05 DIIS
   @RHF iter   6:  -608.50741226036462   -2.93235e-05   1.01875e-05 DIIS
   @RHF iter   7:  -608.50741788896403   -5.62860e-06   3.09628e-06 DIIS
   @RHF iter   8:  -608.50741894239059   -1.05343e-06   1.32447e-06 DIIS
   @RHF iter   9:  -608.50741913307468   -1.90684e-07   5.51490e-07 DIIS
   @RHF iter  10:  -608.50741917051937   -3.74447e-08   2.09189e-07 DIIS
   @RHF iter  11:  -608.50741917662958   -6.11021e-09   8.72177e-08 DIIS
   @RHF iter  12:  -608.50741917788514   -1.25556e-09   3.72218e-08 DIIS
   @RHF iter  13:  -608.50741917806511   -1.79966e-10   1.41882e-08 DIIS
   @RHF iter  14:  -608.50741917809898   -3.38787e-11   5.97639e-09 DIIS
   @RHF iter  15:  -608.50741917810274   -3.75167e-12   2.34120e-09 DIIS
   @RHF iter  16:  -608.50741917810478   -2.04636e-12   1.03420e-09 DIIS
   @RHF iter  17:  -608.50741917809887    5.91172e-12   3.64373e-10 DIIS
   @RHF iter  18:  -608.50741917810205   -3.18323e-12   1.31525e-10 DIIS
   @RHF iter  19:  -608.50741917810171    3.41061e-13   6.61314e-11 DIIS
  Energy and wave function converged.

  ==> Post-Iterations <==

    Orbital Energies [Eh]
    ---------------------

    Doubly Occupied:

       1A    -20.523978     2A    -15.644189     3A    -15.558829
       4A    -11.321528     5A    -11.269508     6A    -11.267473
       7A    -11.262997     8A    -11.231672     9A    -11.217652
      10A    -11.217166    11A    -11.213902    12A    -11.211374
      13A    -11.208120    14A    -11.202367    15A     -1.368570
      16A     -1.348961    17A     -1.182892    18A     -1.129355
      19A     -1.052199    20A     -1.017786    21A     -0.994688
      22A     -0.956156    23A     -0.906093    24A     -0.846912
      25A     -0.821294    26A     -0.788242    27A     -0.773223
      28A     -0.761483    29A     -0.699890    30A     -0.643007
      31A     -0.633949    32A     -0.627108    33A     -0.618755
      34A     -0.615204    35A     -0.587096    36A     -0.564949
      37A     -0.563324    38A     -0.562788    39A     -0.554266
      40A     -0.544359    41A     -0.539819    42A     -0.532218
      43A     -0.505274    44A     -0.479014    45A     -0.466613
      46A     -0.439323    47A     -0.433486    48A     -0.406776
      49A     -0.331059    50A     -0.316839    51A     -0.276336

    Virtual:

      52A      0.150450    53A      0.159235    54A      0.162485
      55A      0.179336    56A      0.193724    57A      0.197185
      58A      0.205159    59A      0.207828    60A      0.229440
      61A      0.235295    62A      0.243360    63A      0.268205
      64A      0.274900    65A      0.285452    66A      0.294312
      67A      0.307621    68A      0.310398    69A      0.347026
      70A      0.367966    71A      0.379452    72A      0.389606
      73A      0.395003    74A      0.431145    75A      0.455653
      76A      0.463750    77A      0.475814    78A      0.489452
      79A      0.511821    80A      0.522680    81A      0.534867
      82A      0.589596    83A      0.598778    84A      0.626137
      85A      0.633452    86A      0.641214    87A      0.649517
      88A      0.673891    89A      0.679472    90A      0.689328
      91A      0.705305    92A      0.712732    93A      0.717801
      94A      0.731233    95A      0.735211    96A      0.752082
      97A      0.755583    98A      0.757101    99A      0.763812
     100A      0.771283   101A      0.787266   102A      0.798677
     103A      0.802148   104A      0.808123   105A      0.812160
     106A      0.835436   107A      0.843371   108A      0.860727
     109A      0.864902   110A      0.877988   111A      0.886403
     112A      0.889927   113A      0.898333   114A      0.906351
     115A      0.910020   116A      0.913835   117A      0.926982
     118A      0.936335   119A      0.953381   120A      0.955851
     121A      0.959327   122A      0.966912   123A      0.985972
     124A      0.992242   125A      1.019990   126A      1.033901
     127A      1.043417   128A      1.073600   129A      1.084189
     130A      1.100622   131A      1.110372   132A      1.130275
     133A      1.151402   134A      1.166748   135A      1.176300
     136A      1.184647   137A      1.217172   138A      1.228901
     139A      1.243076   140A      1.255915   141A      1.260542
     142A      1.268630   143A      1.291865   144A      1.298502
     145A      1.301590   146A      1.313900   147A      1.329820
     148A      1.338580   149A      1.352005   150A      1.359529
     151A      1.374851   152A      1.394908   153A      1.408183
     154A      1.423165   155A      1.458181   156A      1.473398
     157A      1.488274   158A      1.527057   159A      1.537848
     160A      1.560905   161A      1.578659   162A      1.585724
     163A      1.596241   164A      1.605479   165A      1.624326
     166A      1.659337   167A      1.685999   168A      1.690186
     169A      1.713122   170A      1.717016   171A      1.747043
     172A      1.766924   173A      1.767901   174A      1.777735
     175A      1.797018   176A      1.805760   177A      1.825784
     178A      1.827173   179A      1.840931   180A      1.854409
     181A      1.890768   182A      1.898071   183A      1.910332
     184A      1.916828   185A      1.922745   186A      1.931331
     187A      1.936798   188A      1.945749   189A      1.953175
     190A      1.961665   191A      1.966875   192A      1.972474
     193A      1.984405   194A      1.995181   195A      1.999092
     196A      2.018640   197A      2.037443   198A      2.058042
     199A      2.066964   200A      2.082711   201A      2.085074
     202A      2.093805   203A      2.101496   204A      2.108637
     205A      2.120783   206A      2.154035   207A      2.160254
     208A      2.167917   209A      2.197858   210A      2.209159
     211A      2.224587   212A      2.242193   213A      2.250099
     214A      2.281175   215A      2.284045   216A      2.296769
     217A      2.322654   218A      2.338561   219A      2.364930
     220A      2.391629   221A      2.414523   222A      2.421173
     223A      2.428949   224A      2.434978   225A      2.469670
     226A      2.495573   227A      2.521472   228A      2.534912
     229A      2.550824   230A      2.582711   231A      2.601788
     232A      2.629847   233A      2.651068   234A      2.676201
     235A      2.715956   236A      2.726701   237A      2.760943
     238A      2.767635   239A      2.774085   240A      2.786016
     241A      2.808407   242A      2.819832   243A      2.833935
     244A      2.839938   245A      2.852557   246A      2.869781
     247A      2.893325   248A      2.923066   249A      2.940140
     250A      2.947992   251A      2.994124   252A      3.034256
     253A      3.085516   254A      3.123486   255A      3.134400
     256A      3.153831   257A      3.230407   258A      3.311697
     259A      3.333422   260A      3.436072   261A      3.471931
     262A      3.630251   263A      3.746089   264A      3.787407
     265A      4.000933   266A      4.310255

    Final Occupation by Irrep:
              A
    DOCC [    51 ]

  @RHF Final Energy:  -608.50741917810171

   => Energetics <=

    Nuclear Repulsion Energy =            831.0656047353498934
    One-Electron Energy =               -2476.6659218811664687
    Two-Electron Energy =                1037.0928979677146344
    Total Energy =                       -608.5074191781018271

Computation Completed

Properties will be evaluated at   0.000000,   0.000000,   0.000000 [a0]

Properties computed using the SCF density matrix

  Nuclear Dipole Moment: [e a0]
     X:     0.3737      Y:    -6.3349      Z:     0.9099

  Electronic Dipole Moment: [e a0]
     X:    -2.8532      Y:     6.8156      Z:    -0.7460

  Dipole Moment: [e a0]
     X:    -2.4795      Y:     0.4807      Z:     0.1640     Total:     2.5310

  Dipole Moment: [D]
     X:    -6.3023      Y:     1.2219      Z:     0.4168     Total:     6.4332

*** tstop() called on ds3 at Tue Apr 28 15:45:46 2020
Module time:
	user time   =     242.58 seconds =       4.04 minutes
	system time =      97.16 seconds =       1.62 minutes
	total time  =        559 seconds =       9.32 minutes
Total time:
	user time   =     242.58 seconds =       4.04 minutes
	system time =      97.16 seconds =       1.62 minutes
	total time  =        559 seconds =       9.32 minutes
                                     G D M A

                                 by Anthony Stone

                           version 2.2.06, 22 June 2011

               Distributed Multipoles from Gaussian wavefunctions

Starting at 15:45:46 on 28 Apr 2020

Using SCF density matrix from file ./SSI/SSI-050HIE-087TYR-1-dimer.test.4941.fchk

                         Distributed Multipole Analysis

Standard DMA

Positions and radii in angstrom
Multipole moments in atomic units, ea_0^k for rank k

C          x = -0.455855  y =  1.716586  z =  2.855186 angstrom
           Maximum rank =  0   Radius =  0.650 angstrom
                   Q00  =  -0.205959

C          x = -2.197855  y =  2.000586  z = -0.308814 angstrom
           Maximum rank =  0   Radius =  0.650 angstrom
                   Q00  =   0.473503

C          x = -1.466855  y =  1.825586  z =  1.755186 angstrom
           Maximum rank =  0   Radius =  0.650 angstrom
                   Q00  =   0.199877

C          x = -2.810855  y =  1.988586  z =  1.804186 angstrom
           Maximum rank =  0   Radius =  0.650 angstrom
                   Q00  =   0.008995

N          x = -1.098855  y =  1.879586  z =  0.427186 angstrom
           Maximum rank =  0   Radius =  0.650 angstrom
                   Q00  =  -0.805995

N          x = -3.245855  y =  2.080586  z =  0.499186 angstrom
           Maximum rank =  0   Radius =  0.650 angstrom
                   Q00  =  -0.459812

H          x = -2.224855  y =  2.070586  z = -1.387814 angstrom
           Maximum rank =  0   Radius =  0.325 angstrom
                   Q00  =   0.132219

H          x = -4.206855  y =  2.133586  z =  0.187186 angstrom
           Maximum rank =  0   Radius =  0.325 angstrom
                   Q00  =   0.228487

H          x = -3.418855  y =  2.020586  z =  2.699186 angstrom
           Maximum rank =  0   Radius =  0.325 angstrom
                   Q00  =   0.111153

H          x =  0.195145  y =  0.869586  z =  2.637186 angstrom
           Maximum rank =  0   Radius =  0.325 angstrom
                   Q00  =   0.136807

H          x = -0.961855  y =  1.522586  z =  3.801186 angstrom
           Maximum rank =  0   Radius =  0.325 angstrom
                   Q00  =   0.093055

H          x =  0.152195  y =  2.630476  z =  2.926376 angstrom
           Maximum rank =  0   Radius =  0.325 angstrom
                   Q00  =   0.118144

C          x =  1.526145  y = -4.179414  z = -1.965814 angstrom
           Maximum rank =  0   Radius =  0.650 angstrom
                   Q00  =  -0.195994

C          x =  0.308145  y = -0.691414  z = -1.107814 angstrom
           Maximum rank =  0   Radius =  0.650 angstrom
                   Q00  =  -0.145644

C          x =  0.343145  y = -2.000414  z = -1.588814 angstrom
           Maximum rank =  0   Radius =  0.650 angstrom
                   Q00  =  -0.061022

C          x =  1.398145  y = -0.175414  z = -0.403814 angstrom
           Maximum rank =  0   Radius =  0.650 angstrom
                   Q00  =   0.356099

C          x =  1.461145  y = -2.798414  z = -1.381814 angstrom
           Maximum rank =  0   Radius =  0.650 angstrom
                   Q00  =  -0.140019

C          x =  2.519145  y = -0.948414  z = -0.223814 angstrom
           Maximum rank =  0   Radius =  0.650 angstrom
                   Q00  =  -0.115020

C          x =  2.550145  y = -2.260414  z = -0.692814 angstrom
           Maximum rank =  0   Radius =  0.650 angstrom
                   Q00  =   0.008301

O          x =  1.398145  y =  1.101586  z =  0.072186 angstrom
           Maximum rank =  0   Radius =  0.650 angstrom
                   Q00  =  -0.787829

H          x = -0.565855  y = -0.082414  z = -1.280814 angstrom
           Maximum rank =  0   Radius =  0.325 angstrom
                   Q00  =   0.063327

H          x = -0.499855  y = -2.390414  z = -2.140814 angstrom
           Maximum rank =  0   Radius =  0.325 angstrom
                   Q00  =   0.052377

H          x =  0.490145  y =  1.459586  z =  0.065186 angstrom
           Maximum rank =  0   Radius =  0.325 angstrom
                   Q00  =   0.534197

H          x =  3.369145  y = -0.537414  z =  0.300186 angstrom
           Maximum rank =  0   Radius =  0.325 angstrom
                   Q00  =   0.069573

H          x =  0.588145  y = -4.696414  z = -1.760814 angstrom
           Maximum rank =  0   Radius =  0.325 angstrom
                   Q00  =   0.089224

H          x =  2.328145  y = -4.737414  z = -1.482814 angstrom
           Maximum rank =  0   Radius =  0.325 angstrom
                   Q00  =   0.093109

H          x =  3.438145  y = -2.859414  z = -0.537814 angstrom
           Maximum rank =  0   Radius =  0.325 angstrom
                   Q00  =   0.055461

H          x =  1.695085  y = -4.154364  z = -3.052475 angstrom
           Maximum rank =  0   Radius =  0.325 angstrom
                   Q00  =   0.093384

Total multipoles referred to origin at
           x =   0.000000,  y =    0.000000,  z =    0.000000 angstrom
                   Q00  =  -0.000000

Finished at 15:45:47 on 28 Apr 2020

  DMA results are available in the Python driver through the
	  variable('DMA DISTRIBUTED MULTIPOLES')
  and
	  variable('DMA TOTAL MULTIPOLES')
  commands.

    Psi4 stopped on: Tuesday, 28 April 2020 03:45PM
    Psi4 wall time for execution: 0:09:19.94

*** Psi4 exiting successfully. Buy a developer a beer!
