                               Psi4 1.3.2 release

  ==> Input File <==

--------------------------------------------------------------------------
import numpy as np
set {scf_type pk
basis cc-pvdz
d_convergence 10
gdma_switch   0
gdma_limit    0
gdma_origin   [ 0.0,  0.0,  0.0 ]
}
molecule test {
    units Angstrom
    0 1
    --
    0 1
    C                0.045729017427906     0.162213175579864     2.363811000891668
    C                1.073729017427906     2.523213175579864     1.368811000891668
    S                1.609729017427906     1.039213175579864     2.230811000891668
    H               -0.439270982572094     0.105213175579864     1.391811000891668
    H                0.227729017427906    -0.841786824420136     2.741811000891668
    H               -0.612270982572094     0.708213175579864     3.039811000891668
    H                0.406729017427906     2.225213175579864     0.558811000891668
    H                1.930729017427906     3.005213175579864     0.902811000891668
    H                0.543319017427906     3.247283175579864     2.004721000891668
    C               -1.637270982572094    -2.527786824420136    -0.287188999108332
    C                0.131729017427906    -0.756786824420136    -0.976188999108332
    C               -1.039270982572094    -1.431786824420136    -1.123188999108332
    C               -0.908270982572094     0.059213175579864    -2.736188999108332
    N                0.187729017427906     0.170213175579864    -1.994188999108332
    N               -1.672270982572094    -0.905786824420136    -2.232188999108332
    H                0.873729017427906    -0.915786824420136    -0.204188999108332
    H                0.930729017427906     0.860213175579864    -2.151188999108332
    H               -2.632270982572094    -2.214786824420136     0.033811000891668
    H               -1.023270982572094    -2.621786824420136     0.597811000891668
    H               -1.142270982572094     0.666213175579864    -3.604188999108332
    H               -1.717550982572094    -3.493976824420136    -0.806838999108332

}
e, wfn = energy('scf', return_wfn=True)
gdma(wfn)
dmavals = variable('DMA DISTRIBUTED MULTIPOLES')
charges = np.array(dmavals)
print(charges)
np.save('SSI-028MET-040HIE-1-dimer.npy', np.array(charges))--------------------------------------------------------------------------

*** tstart() called on ds3
*** at Sun Apr 26 18:52:40 2020

   => Loading Basis Set <=

    Name: CC-PVDZ
    Role: ORBITAL
    Keyword: BASIS
    atoms 1-2, 10-13 entry C          line   138 file /theoryfs2/ds/metcalf/miniconda2/envs/tf2gpu/share/psi4/basis/cc-pvdz.gbs
    atoms 3          entry S          line   598 file /theoryfs2/ds/metcalf/miniconda2/envs/tf2gpu/share/psi4/basis/cc-pvdz.gbs
    atoms 4-9, 16-21 entry H          line    22 file /theoryfs2/ds/metcalf/miniconda2/envs/tf2gpu/share/psi4/basis/cc-pvdz.gbs
    atoms 14-15      entry N          line   168 file /theoryfs2/ds/metcalf/miniconda2/envs/tf2gpu/share/psi4/basis/cc-pvdz.gbs

         ---------------------------------------------------------
                                   SCF
               by Justin Turney, Rob Parrish, Andy Simmonett
                          and Daniel G. A. Smith
                              RHF Reference
                        1 Threads,    500 MiB Core
         ---------------------------------------------------------

  ==> Geometry <==

    Molecular point group: c1
    Full point group: C1

    Geometry (in Angstrom), charge = 0, multiplicity = 1:

       Center              X                  Y                   Z               Mass
    ------------   -----------------  -----------------  -----------------  -----------------
         C            0.045729017428     0.162213175580     2.363811000892    12.000000000000
         C            1.073729017428     2.523213175580     1.368811000892    12.000000000000
         S            1.609729017428     1.039213175580     2.230811000892    31.972071174400
         H           -0.439270982572     0.105213175580     1.391811000892     1.007825032230
         H            0.227729017428    -0.841786824420     2.741811000892     1.007825032230
         H           -0.612270982572     0.708213175580     3.039811000892     1.007825032230
         H            0.406729017428     2.225213175580     0.558811000892     1.007825032230
         H            1.930729017428     3.005213175580     0.902811000892     1.007825032230
         H            0.543319017428     3.247283175580     2.004721000892     1.007825032230
         C           -1.637270982572    -2.527786824420    -0.287188999108    12.000000000000
         C            0.131729017428    -0.756786824420    -0.976188999108    12.000000000000
         C           -1.039270982572    -1.431786824420    -1.123188999108    12.000000000000
         C           -0.908270982572     0.059213175580    -2.736188999108    12.000000000000
         N            0.187729017428     0.170213175580    -1.994188999108    14.003074004430
         N           -1.672270982572    -0.905786824420    -2.232188999108    14.003074004430
         H            0.873729017428    -0.915786824420    -0.204188999108     1.007825032230
         H            0.930729017428     0.860213175580    -2.151188999108     1.007825032230
         H           -2.632270982572    -2.214786824420     0.033811000892     1.007825032230
         H           -1.023270982572    -2.621786824420     0.597811000892     1.007825032230
         H           -1.142270982572     0.666213175580    -3.604188999108     1.007825032230
         H           -1.717550982572    -3.493976824420    -0.806838999108     1.007825032230

  Running in c1 symmetry.

  Rotational constants: A =      0.07016  B =      0.02046  C =      0.01699 [cm^-1]
  Rotational constants: A =   2103.23940  B =    613.32337  C =    509.33935 [MHz]
  Nuclear repulsion =  502.362983767167350

  Charge       = 0
  Multiplicity = 1
  Electrons    = 78
  Nalpha       = 39
  Nbeta        = 39

  ==> Algorithm <==

  SCF Algorithm Type is PK.
  DIIS enabled.
  MOM disabled.
  Fractional occupation disabled.
  Guess Type is SAD.
  Energy threshold   = 1.00e-06
  Density threshold  = 1.00e-10
  Integral threshold = 0.00e+00

  ==> Primary Basis <==

  Basis Set: CC-PVDZ
    Blend: CC-PVDZ
    Number of shells: 92
    Number of basis function: 190
    Number of Cartesian functions: 199
    Spherical Harmonics?: true
    Max angular momentum: 2

  ==> Pre-Iterations <==

   -------------------------------------------------------
    Irrep   Nso     Nmo     Nalpha   Nbeta   Ndocc  Nsocc
   -------------------------------------------------------
     A        190     190       0       0       0       0
   -------------------------------------------------------
    Total     190     190      39      39      39       0
   -------------------------------------------------------

  ==> Integral Setup <==

  Using integral reordering PK algorithm.
  Sizing the integral batches needed.
  Building batch lookup table.
   Calculation information:
      Number of atoms:                  21
      Number of AO shells:              92
      Number of primitives:            286
      Number of atomic orbitals:       199
      Number of basis functions:       190

      Integral cutoff                 1.00e-12
      Number of threads:                 1

	Batch   1 pq = [       0,    9405] index = [             0,44231715] size =     44231715
	Batch   2 pq = [    9405,   13301] index = [      44231715,88464951] size =     44233236
	Batch   3 pq = [   13301,   16290] index = [      88464951,132690195] size =     44225244
	Batch   4 pq = [   16290,   18145] index = [     132690195,164629585] size =     31939390
  Task number: 15
  Buffer size: 11059200
  Buffer per thread: 2
  We computed 7996291 shell quartets total.
  Whereas there are 9152781 unique shell quartets.

  ==> DiskJK: Disk-Based J/K Matrices <==

    J tasked:                  Yes
    K tasked:                  Yes
    wK tasked:                  No
    Memory [MiB]:              375
    Schwarz Cutoff:          1E-12

    OpenMP threads:              1

  Minimum eigenvalue in the overlap matrix is 1.1628941545E-03.
  Using Symmetric Orthogonalization.

  SCF Guess: Superposition of Atomic Densities via on-the-fly atomic UHF.

  ==> Iterations <==

                        Total Energy        Delta E     RMS |[F,P]|

   @RHF iter SAD:  -739.78087633259418   -7.39781e+02   0.00000e+00
   @RHF iter   1:  -740.42687209330586   -6.45996e-01   2.87655e-03 DIIS
   @RHF iter   2:  -740.58830554193412   -1.61433e-01   1.43627e-03 DIIS
   @RHF iter   3:  -740.62312972958728   -3.48242e-02   4.17996e-04 DIIS
   @RHF iter   4:  -740.62706453282192   -3.93480e-03   1.48314e-04 DIIS
   @RHF iter   5:  -740.62753854814787   -4.74015e-04   2.70898e-05 DIIS
   @RHF iter   6:  -740.62756254825854   -2.40001e-05   1.07943e-05 DIIS
   @RHF iter   7:  -740.62756681253950   -4.26428e-06   4.05488e-06 DIIS
   @RHF iter   8:  -740.62756777418497   -9.61645e-07   1.64887e-06 DIIS
   @RHF iter   9:  -740.62756798752525   -2.13340e-07   5.83752e-07 DIIS
   @RHF iter  10:  -740.62756800684690   -1.93216e-08   1.88933e-07 DIIS
   @RHF iter  11:  -740.62756800915110   -2.30420e-09   7.65762e-08 DIIS
   @RHF iter  12:  -740.62756800945135   -3.00247e-10   3.15669e-08 DIIS
   @RHF iter  13:  -740.62756800949785   -4.64979e-11   9.80663e-09 DIIS
   @RHF iter  14:  -740.62756800950433   -6.48015e-12   3.08911e-09 DIIS
   @RHF iter  15:  -740.62756800950740   -3.06954e-12   1.16256e-09 DIIS
   @RHF iter  16:  -740.62756800950365    3.75167e-12   4.25904e-10 DIIS
   @RHF iter  17:  -740.62756800950342    2.27374e-13   1.49596e-10 DIIS
   @RHF iter  18:  -740.62756800950683   -3.41061e-12   4.81341e-11 DIIS
  Energy and wave function converged.

  ==> Post-Iterations <==

    Orbital Energies [Eh]
    ---------------------

    Doubly Occupied:

       1A    -91.940987     2A    -15.624415     3A    -15.529886
       4A    -11.295051     5A    -11.261177     6A    -11.254425
       7A    -11.251872     8A    -11.243886     9A    -11.226355
      10A     -8.944847    11A     -6.626937    12A     -6.625362
      13A     -6.623146    14A     -1.342654    15A     -1.153656
      16A     -1.068049    17A     -1.033153    18A     -0.955513
      19A     -0.943417    20A     -0.817527    21A     -0.810092
      22A     -0.763143    23A     -0.742296    24A     -0.615633
      25A     -0.611148    26A     -0.606029    27A     -0.602827
      28A     -0.591455    29A     -0.578287    30A     -0.561265
      31A     -0.554930    32A     -0.543602    33A     -0.523711
      34A     -0.503403    35A     -0.431994    36A     -0.412122
      37A     -0.379465    38A     -0.336919    39A     -0.311441

    Virtual:

      40A      0.155886    41A      0.170902    42A      0.185923
      43A      0.195229    44A      0.218524    45A      0.222650
      46A      0.225492    47A      0.227772    48A      0.241963
      49A      0.244650    50A      0.259269    51A      0.268450
      52A      0.278799    53A      0.297134    54A      0.307366
      55A      0.336880    56A      0.378264    57A      0.392486
      58A      0.411943    59A      0.473172    60A      0.483303
      61A      0.516937    62A      0.560081    63A      0.594224
      64A      0.601862    65A      0.608990    66A      0.614317
      67A      0.637133    68A      0.662079    69A      0.691156
      70A      0.692390    71A      0.698285    72A      0.718376
      73A      0.731707    74A      0.744133    75A      0.768624
      76A      0.774611    77A      0.792181    78A      0.808579
      79A      0.809769    80A      0.829067    81A      0.836123
      82A      0.848710    83A      0.859374    84A      0.869527
      85A      0.873605    86A      0.878437    87A      0.890347
      88A      0.899920    89A      0.913317    90A      0.918266
      91A      0.932478    92A      0.939658    93A      0.955135
      94A      0.970962    95A      0.981452    96A      0.997760
      97A      1.018902    98A      1.045367    99A      1.085469
     100A      1.098457   101A      1.101051   102A      1.134625
     103A      1.141173   104A      1.177146   105A      1.202177
     106A      1.254336   107A      1.259703   108A      1.272537
     109A      1.299368   110A      1.311982   111A      1.325152
     112A      1.332286   113A      1.337917   114A      1.373697
     115A      1.387198   116A      1.425019   117A      1.441667
     118A      1.479218   119A      1.485763   120A      1.491066
     121A      1.526647   122A      1.570999   123A      1.592612
     124A      1.640576   125A      1.671553   126A      1.684926
     127A      1.690492   128A      1.717188   129A      1.768758
     130A      1.801025   131A      1.810395   132A      1.856868
     133A      1.874509   134A      1.882741   135A      1.898057
     136A      1.907694   137A      1.918404   138A      1.926429
     139A      1.937292   140A      1.959254   141A      1.964563
     142A      1.971395   143A      1.980433   144A      1.990363
     145A      1.994479   146A      2.023504   147A      2.028300
     148A      2.038544   149A      2.064009   150A      2.096279
     151A      2.119338   152A      2.127892   153A      2.178224
     154A      2.204275   155A      2.222903   156A      2.226843
     157A      2.243926   158A      2.323867   159A      2.350375
     160A      2.393698   161A      2.403782   162A      2.432058
     163A      2.433390   164A      2.441830   165A      2.445713
     166A      2.478960   167A      2.494953   168A      2.547515
     169A      2.608638   170A      2.684636   171A      2.729311
     172A      2.735869   173A      2.748011   174A      2.766264
     175A      2.778105   176A      2.781867   177A      2.785933
     178A      2.790087   179A      2.817477   180A      2.832741
     181A      2.854595   182A      2.878478   183A      2.901029
     184A      2.902456   185A      2.954111   186A      3.064801
     187A      3.158144   188A      3.234958   189A      3.469183
     190A      3.786026

    Final Occupation by Irrep:
              A
    DOCC [    39 ]

  @RHF Final Energy:  -740.62756800950683

   => Energetics <=

    Nuclear Repulsion Energy =            502.3629837671673499
    One-Electron Energy =               -2011.4969467097305369
    Two-Electron Energy =                 768.5063949330562991
    Total Energy =                       -740.6275680095068310

Computation Completed

Properties will be evaluated at   0.000000,   0.000000,   0.000000 [a0]

Properties computed using the SCF density matrix

  Nuclear Dipole Moment: [e a0]
     X:    -2.4412      Y:     0.7134      Z:     4.2944

  Electronic Dipole Moment: [e a0]
     X:     2.9508      Y:     0.1585      Z:    -4.4157

  Dipole Moment: [e a0]
     X:     0.5096      Y:     0.8719      Z:    -0.1213     Total:     1.0171

  Dipole Moment: [D]
     X:     1.2952      Y:     2.2161      Z:    -0.3083     Total:     2.5853

*** tstop() called on ds3 at Sun Apr 26 18:54:46 2020
Module time:
	user time   =      67.24 seconds =       1.12 minutes
	system time =      22.49 seconds =       0.37 minutes
	total time  =        126 seconds =       2.10 minutes
Total time:
	user time   =      67.24 seconds =       1.12 minutes
	system time =      22.49 seconds =       0.37 minutes
	total time  =        126 seconds =       2.10 minutes
                                     G D M A

                                 by Anthony Stone

                           version 2.2.06, 22 June 2011

               Distributed Multipoles from Gaussian wavefunctions

Starting at 18:54:46 on 26 Apr 2020

Using SCF density matrix from file ./SSI/SSI-028MET-040HIE-1-dimer.test.23506.fchk

                         Distributed Multipole Analysis

Standard DMA

Positions and radii in angstrom
Multipole moments in atomic units, ea_0^k for rank k

C          x =  0.045729  y =  0.162213  z =  2.363811 angstrom
           Maximum rank =  0   Radius =  0.650 angstrom
                   Q00  =  -0.350358

C          x =  1.073729  y =  2.523213  z =  1.368811 angstrom
           Maximum rank =  0   Radius =  0.650 angstrom
                   Q00  =  -0.358830

S          x =  1.609729  y =  1.039213  z =  2.230811 angstrom
           Maximum rank =  0   Radius =  0.650 angstrom
                   Q00  =   0.107201

H          x = -0.439271  y =  0.105213  z =  1.391811 angstrom
           Maximum rank =  0   Radius =  0.325 angstrom
                   Q00  =   0.099327

H          x =  0.227729  y = -0.841787  z =  2.741811 angstrom
           Maximum rank =  0   Radius =  0.325 angstrom
                   Q00  =   0.117971

H          x = -0.612271  y =  0.708213  z =  3.039811 angstrom
           Maximum rank =  0   Radius =  0.325 angstrom
                   Q00  =   0.090549

H          x =  0.406729  y =  2.225213  z =  0.558811 angstrom
           Maximum rank =  0   Radius =  0.325 angstrom
                   Q00  =   0.080192

H          x =  1.930729  y =  3.005213  z =  0.902811 angstrom
           Maximum rank =  0   Radius =  0.325 angstrom
                   Q00  =   0.115082

H          x =  0.543319  y =  3.247283  z =  2.004721 angstrom
           Maximum rank =  0   Radius =  0.325 angstrom
                   Q00  =   0.093382

C          x = -1.637271  y = -2.527787  z = -0.287189 angstrom
           Maximum rank =  0   Radius =  0.650 angstrom
                   Q00  =  -0.188066

C          x =  0.131729  y = -0.756787  z = -0.976189 angstrom
           Maximum rank =  0   Radius =  0.650 angstrom
                   Q00  =   0.003812

C          x = -1.039271  y = -1.431787  z = -1.123189 angstrom
           Maximum rank =  0   Radius =  0.650 angstrom
                   Q00  =   0.214968

C          x = -0.908271  y =  0.059213  z = -2.736189 angstrom
           Maximum rank =  0   Radius =  0.650 angstrom
                   Q00  =   0.460482

N          x =  0.187729  y =  0.170213  z = -1.994189 angstrom
           Maximum rank =  0   Radius =  0.650 angstrom
                   Q00  =  -0.486253

N          x = -1.672271  y = -0.905787  z = -2.232189 angstrom
           Maximum rank =  0   Radius =  0.650 angstrom
                   Q00  =  -0.766705

H          x =  0.873729  y = -0.915787  z = -0.204189 angstrom
           Maximum rank =  0   Radius =  0.325 angstrom
                   Q00  =   0.105434

H          x =  0.930729  y =  0.860213  z = -2.151189 angstrom
           Maximum rank =  0   Radius =  0.325 angstrom
                   Q00  =   0.225368

H          x = -2.632271  y = -2.214787  z =  0.033811 angstrom
           Maximum rank =  0   Radius =  0.325 angstrom
                   Q00  =   0.110004

H          x = -1.023271  y = -2.621787  z =  0.597811 angstrom
           Maximum rank =  0   Radius =  0.325 angstrom
                   Q00  =   0.089543

H          x = -1.142271  y =  0.666213  z = -3.604189 angstrom
           Maximum rank =  0   Radius =  0.325 angstrom
                   Q00  =   0.123967

H          x = -1.717551  y = -3.493977  z = -0.806839 angstrom
           Maximum rank =  0   Radius =  0.325 angstrom
                   Q00  =   0.112928

Total multipoles referred to origin at
           x =   0.000000,  y =    0.000000,  z =    0.000000 angstrom
                   Q00  =  -0.000000

Finished at 18:54:46 on 26 Apr 2020

  DMA results are available in the Python driver through the
	  variable('DMA DISTRIBUTED MULTIPOLES')
  and
	  variable('DMA TOTAL MULTIPOLES')
  commands.

    Psi4 stopped on: Sunday, 26 April 2020 06:54PM
    Psi4 wall time for execution: 0:02:06.13

*** Psi4 exiting successfully. Buy a developer a beer!
