                               Psi4 1.3.2 release

  ==> Input File <==

--------------------------------------------------------------------------
import numpy as np
set {scf_type pk
basis cc-pvdz
d_convergence 10
gdma_switch   0
gdma_limit    0
gdma_origin   [ 0.0,  0.0,  0.0 ]
}
molecule test {
    units Angstrom
    0 1
    --
    0 1
    C               -1.308182433465610     2.046860806974774    -0.340134676060237
    C               -2.781182433465610     1.910860806974775    -0.711134676060237
    H               -0.752182433465610     1.186860806974775    -0.692134676060237
    H               -0.903182433465610     2.941860806974775    -0.809134676060237
    H               -1.179182433465610     2.158860806974774     0.736865323939763
    H               -3.299182433465610     2.768860806974775    -0.290134676060237
    H               -3.223342433465610     0.982179806974774    -0.321204676060237
    H               -2.913762433465610     1.937521806974774    -1.802794676060236
    C                1.187817566534390    -0.745139193025226     0.374865323939763
    C                0.990817566534390    -1.606139193025226    -0.874134676060237
    O                1.730817566534390    -1.495139193025226     1.449865323939763
    H                1.846817566534390     0.094860806974774     0.148865323939763
    H                0.222817566534390    -0.352139193025226     0.690865323939763
    H                0.325817566534390    -2.428139193025225    -0.605134676060237
    H                2.681817566534390    -1.630139193025226     1.295865323939763
    H                1.955107566534390    -2.017150193025226    -1.207614676060237
    H                0.519857566534390    -1.042138193025226    -1.692724676060237

}
e, wfn = energy('scf', return_wfn=True)
gdma(wfn)
dmavals = variable('DMA DISTRIBUTED MULTIPOLES')
charges = np.array(dmavals)
print(charges)
np.save('SSI-082VAL-126SER-1-dimer.npy', np.array(charges))--------------------------------------------------------------------------

*** tstart() called on ds3
*** at Mon Apr 27 11:58:11 2020

   => Loading Basis Set <=

    Name: CC-PVDZ
    Role: ORBITAL
    Keyword: BASIS
    atoms 1-2, 9-10  entry C          line   138 file /theoryfs2/ds/metcalf/miniconda2/envs/tf2gpu/share/psi4/basis/cc-pvdz.gbs
    atoms 3-8, 12-17 entry H          line    22 file /theoryfs2/ds/metcalf/miniconda2/envs/tf2gpu/share/psi4/basis/cc-pvdz.gbs
    atoms 11         entry O          line   198 file /theoryfs2/ds/metcalf/miniconda2/envs/tf2gpu/share/psi4/basis/cc-pvdz.gbs

         ---------------------------------------------------------
                                   SCF
               by Justin Turney, Rob Parrish, Andy Simmonett
                          and Daniel G. A. Smith
                              RHF Reference
                        1 Threads,    500 MiB Core
         ---------------------------------------------------------

  ==> Geometry <==

    Molecular point group: c1
    Full point group: C1

    Geometry (in Angstrom), charge = 0, multiplicity = 1:

       Center              X                  Y                   Z               Mass
    ------------   -----------------  -----------------  -----------------  -----------------
         C           -1.308182433466     2.046860806975    -0.340134676060    12.000000000000
         C           -2.781182433466     1.910860806975    -0.711134676060    12.000000000000
         H           -0.752182433466     1.186860806975    -0.692134676060     1.007825032230
         H           -0.903182433466     2.941860806975    -0.809134676060     1.007825032230
         H           -1.179182433466     2.158860806975     0.736865323940     1.007825032230
         H           -3.299182433466     2.768860806975    -0.290134676060     1.007825032230
         H           -3.223342433466     0.982179806975    -0.321204676060     1.007825032230
         H           -2.913762433466     1.937521806975    -1.802794676060     1.007825032230
         C            1.187817566534    -0.745139193025     0.374865323940    12.000000000000
         C            0.990817566534    -1.606139193025    -0.874134676060    12.000000000000
         O            1.730817566534    -1.495139193025     1.449865323940    15.994914619570
         H            1.846817566534     0.094860806975     0.148865323940     1.007825032230
         H            0.222817566534    -0.352139193025     0.690865323940     1.007825032230
         H            0.325817566534    -2.428139193025    -0.605134676060     1.007825032230
         H            2.681817566534    -1.630139193025     1.295865323940     1.007825032230
         H            1.955107566534    -2.017150193025    -1.207614676060     1.007825032230
         H            0.519857566534    -1.042138193025    -1.692724676060     1.007825032230

  Running in c1 symmetry.

  Rotational constants: A =      0.25423  B =      0.03665  C =      0.03407 [cm^-1]
  Rotational constants: A =   7621.48538  B =   1098.84457  C =   1021.47077 [MHz]
  Nuclear repulsion =  175.668889834044847

  Charge       = 0
  Multiplicity = 1
  Electrons    = 44
  Nalpha       = 22
  Nbeta        = 22

  ==> Algorithm <==

  SCF Algorithm Type is PK.
  DIIS enabled.
  MOM disabled.
  Fractional occupation disabled.
  Guess Type is SAD.
  Energy threshold   = 1.00e-06
  Density threshold  = 1.00e-10
  Integral threshold = 0.00e+00

  ==> Primary Basis <==

  Basis Set: CC-PVDZ
    Blend: CC-PVDZ
    Number of shells: 66
    Number of basis function: 130
    Number of Cartesian functions: 135
    Spherical Harmonics?: true
    Max angular momentum: 2

  ==> Pre-Iterations <==

   -------------------------------------------------------
    Irrep   Nso     Nmo     Nalpha   Nbeta   Ndocc  Nsocc
   -------------------------------------------------------
     A        130     130       0       0       0       0
   -------------------------------------------------------
    Total     130     130      22      22      22       0
   -------------------------------------------------------

  ==> Integral Setup <==

  Using integral reordering PK algorithm.
  Sizing the integral batches needed.
  Building batch lookup table.
   Calculation information:
      Number of atoms:                  17
      Number of AO shells:              66
      Number of primitives:            170
      Number of atomic orbitals:       135
      Number of basis functions:       130

      Integral cutoff                 1.00e-12
      Number of threads:                 1

	Batch   1 pq = [       0,    8515] index = [             0,36256870] size =     36256870
  Task number: 4
  Buffer size: 11059200
  Buffer per thread: 2
  We computed 1923100 shell quartets total.
  Whereas there are 2445366 unique shell quartets.

  ==> DiskJK: Disk-Based J/K Matrices <==

    J tasked:                  Yes
    K tasked:                  Yes
    wK tasked:                  No
    Memory [MiB]:              375
    Schwarz Cutoff:          1E-12

    OpenMP threads:              1

  Minimum eigenvalue in the overlap matrix is 6.4156114191E-03.
  Using Symmetric Orthogonalization.

  SCF Guess: Superposition of Atomic Densities via on-the-fly atomic UHF.

  ==> Iterations <==

                        Total Energy        Delta E     RMS |[F,P]|

   @RHF iter SAD:  -232.07295450444565   -2.32073e+02   0.00000e+00
   @RHF iter   1:  -233.14241973847840   -1.06947e+00   4.20753e-03 DIIS
   @RHF iter   2:  -233.29220869426956   -1.49789e-01   1.94314e-03 DIIS
   @RHF iter   3:  -233.32060661043050   -2.83979e-02   3.82442e-04 DIIS
   @RHF iter   4:  -233.32269543515753   -2.08882e-03   1.24626e-04 DIIS
   @RHF iter   5:  -233.32283954110633   -1.44106e-04   2.50778e-05 DIIS
   @RHF iter   6:  -233.32284811123012   -8.57012e-06   4.59820e-06 DIIS
   @RHF iter   7:  -233.32284853213793   -4.20908e-07   1.11638e-06 DIIS
   @RHF iter   8:  -233.32284855725106   -2.51131e-08   3.81787e-07 DIIS
   @RHF iter   9:  -233.32284856019132   -2.94025e-09   1.00314e-07 DIIS
   @RHF iter  10:  -233.32284856043879   -2.47468e-10   2.12580e-08 DIIS
   @RHF iter  11:  -233.32284856044942   -1.06297e-11   5.71422e-09 DIIS
   @RHF iter  12:  -233.32284856044978   -3.69482e-13   1.66942e-09 DIIS
   @RHF iter  13:  -233.32284856045072   -9.37916e-13   3.80482e-10 DIIS
   @RHF iter  14:  -233.32284856044993    7.95808e-13   1.01171e-10 DIIS
   @RHF iter  15:  -233.32284856045109   -1.16529e-12   3.61372e-11 DIIS
  Energy and wave function converged.

  ==> Post-Iterations <==

    Orbital Energies [Eh]
    ---------------------

    Doubly Occupied:

       1A    -20.548052     2A    -11.274518     3A    -11.222297
       4A    -11.220762     5A    -11.218631     6A     -1.348507
       7A     -1.022114     8A     -1.006304     9A     -0.842521
      10A     -0.837858    11A     -0.684338    12A     -0.624229
      13A     -0.602046    14A     -0.597564    15A     -0.589433
      16A     -0.540133    17A     -0.521417    18A     -0.505697
      19A     -0.490153    20A     -0.486040    21A     -0.472434
      22A     -0.432344

    Virtual:

      23A      0.169247    24A      0.186967    25A      0.217092
      26A      0.224313    27A      0.234788    28A      0.252339
      29A      0.259470    30A      0.264222    31A      0.275521
      32A      0.284709    33A      0.309068    34A      0.322732
      35A      0.394851    36A      0.398429    37A      0.445763
      38A      0.582898    39A      0.595950    40A      0.602278
      41A      0.616310    42A      0.638025    43A      0.664949
      44A      0.677765    45A      0.711060    46A      0.731209
      47A      0.803304    48A      0.809344    49A      0.847517
      50A      0.859992    51A      0.881989    52A      0.889378
      53A      0.892318    54A      0.894869    55A      0.899268
      56A      0.906589    57A      0.914449    58A      0.923711
      59A      0.941740    60A      0.966858    61A      1.027596
      62A      1.117064    63A      1.122023    64A      1.144641
      65A      1.157508    66A      1.192211    67A      1.259884
      68A      1.274954    69A      1.336650    70A      1.371935
      71A      1.469516    72A      1.473007    73A      1.487349
      74A      1.529888    75A      1.578774    76A      1.616156
      77A      1.622378    78A      1.681719    79A      1.682229
      80A      1.694524    81A      1.739225    82A      1.848136
      83A      1.865077    84A      1.874062    85A      1.883214
      86A      1.883877    87A      1.914684    88A      1.932535
      89A      1.938372    90A      1.944078    91A      1.952101
      92A      1.957838    93A      1.964620    94A      1.972366
      95A      1.986057    96A      1.999918    97A      2.055833
      98A      2.082914    99A      2.105886   100A      2.121107
     101A      2.188350   102A      2.249790   103A      2.278110
     104A      2.302318   105A      2.315330   106A      2.378868
     107A      2.420785   108A      2.454116   109A      2.474974
     110A      2.517545   111A      2.540608   112A      2.552065
     113A      2.564199   114A      2.584166   115A      2.754522
     116A      2.761783   117A      2.773510   118A      2.795274
     119A      2.805748   120A      2.855208   121A      2.864736
     122A      2.876945   123A      2.915858   124A      2.956259
     125A      2.993001   126A      3.321835   127A      3.399285
     128A      3.460911   129A      3.653364   130A      4.089749

    Final Occupation by Irrep:
              A
    DOCC [    22 ]

  @RHF Final Energy:  -233.32284856045109

   => Energetics <=

    Nuclear Repulsion Energy =            175.6688898340448475
    One-Electron Energy =                -663.8086871619980229
    Two-Electron Energy =                 254.8169487675020548
    Total Energy =                       -233.3228485604510922

Computation Completed

Properties will be evaluated at   0.000000,   0.000000,   0.000000 [a0]

Properties computed using the SCF density matrix

  Nuclear Dipole Moment: [e a0]
     X:    -4.4152      Y:     4.3064      Z:    -4.2570

  Electronic Dipole Moment: [e a0]
     X:     4.7488      Y:    -4.0601      Z:     3.7342

  Dipole Moment: [e a0]
     X:     0.3336      Y:     0.2463      Z:    -0.5228     Total:     0.6673

  Dipole Moment: [D]
     X:     0.8480      Y:     0.6260      Z:    -1.3288     Total:     1.6961

*** tstop() called on ds3 at Mon Apr 27 11:58:34 2020
Module time:
	user time   =      10.64 seconds =       0.18 minutes
	system time =       4.61 seconds =       0.08 minutes
	total time  =         23 seconds =       0.38 minutes
Total time:
	user time   =      10.64 seconds =       0.18 minutes
	system time =       4.61 seconds =       0.08 minutes
	total time  =         23 seconds =       0.38 minutes
                                     G D M A

                                 by Anthony Stone

                           version 2.2.06, 22 June 2011

               Distributed Multipoles from Gaussian wavefunctions

Starting at 11:58:34 on 27 Apr 2020

Using SCF density matrix from file ./SSI/SSI-082VAL-126SER-1-dimer.test.3188.fchk

                         Distributed Multipole Analysis

Standard DMA

Positions and radii in angstrom
Multipole moments in atomic units, ea_0^k for rank k

C          x = -1.308182  y =  2.046861  z = -0.340135 angstrom
           Maximum rank =  0   Radius =  0.650 angstrom
                   Q00  =  -0.248999

C          x = -2.781182  y =  1.910861  z = -0.711135 angstrom
           Maximum rank =  0   Radius =  0.650 angstrom
                   Q00  =  -0.227253

H          x = -0.752182  y =  1.186861  z = -0.692135 angstrom
           Maximum rank =  0   Radius =  0.325 angstrom
                   Q00  =   0.076401

H          x = -0.903182  y =  2.941861  z = -0.809135 angstrom
           Maximum rank =  0   Radius =  0.325 angstrom
                   Q00  =   0.078725

H          x = -1.179182  y =  2.158861  z =  0.736865 angstrom
           Maximum rank =  0   Radius =  0.325 angstrom
                   Q00  =   0.082073

H          x = -3.299182  y =  2.768861  z = -0.290135 angstrom
           Maximum rank =  0   Radius =  0.325 angstrom
                   Q00  =   0.078951

H          x = -3.223342  y =  0.982180  z = -0.321205 angstrom
           Maximum rank =  0   Radius =  0.325 angstrom
                   Q00  =   0.080547

H          x = -2.913762  y =  1.937522  z = -1.802795 angstrom
           Maximum rank =  0   Radius =  0.325 angstrom
                   Q00  =   0.077882

C          x =  1.187818  y = -0.745139  z =  0.374865 angstrom
           Maximum rank =  0   Radius =  0.650 angstrom
                   Q00  =   0.121223

C          x =  0.990818  y = -1.606139  z = -0.874135 angstrom
           Maximum rank =  0   Radius =  0.650 angstrom
                   Q00  =  -0.265623

O          x =  1.730818  y = -1.495139  z =  1.449865 angstrom
           Maximum rank =  0   Radius =  0.650 angstrom
                   Q00  =  -0.607766

H          x =  1.846818  y =  0.094861  z =  0.148865 angstrom
           Maximum rank =  0   Radius =  0.325 angstrom
                   Q00  =   0.031188

H          x =  0.222818  y = -0.352139  z =  0.690865 angstrom
           Maximum rank =  0   Radius =  0.325 angstrom
                   Q00  =   0.086682

H          x =  0.325818  y = -2.428139  z = -0.605135 angstrom
           Maximum rank =  0   Radius =  0.325 angstrom
                   Q00  =   0.091443

H          x =  2.681818  y = -1.630139  z =  1.295865 angstrom
           Maximum rank =  0   Radius =  0.325 angstrom
                   Q00  =   0.383910

H          x =  1.955108  y = -2.017150  z = -1.207615 angstrom
           Maximum rank =  0   Radius =  0.325 angstrom
                   Q00  =   0.077211

H          x =  0.519858  y = -1.042138  z = -1.692725 angstrom
           Maximum rank =  0   Radius =  0.325 angstrom
                   Q00  =   0.083405

Total multipoles referred to origin at
           x =   0.000000,  y =    0.000000,  z =    0.000000 angstrom
                   Q00  =  -0.000000

Finished at 11:58:34 on 27 Apr 2020

  DMA results are available in the Python driver through the
	  variable('DMA DISTRIBUTED MULTIPOLES')
  and
	  variable('DMA TOTAL MULTIPOLES')
  commands.

    Psi4 stopped on: Monday, 27 April 2020 11:58AM
    Psi4 wall time for execution: 0:00:22.64

*** Psi4 exiting successfully. Buy a developer a beer!
