                               Psi4 1.3.2 release

  ==> Input File <==

--------------------------------------------------------------------------
import numpy as np
set {scf_type pk
basis cc-pvdz
d_convergence 10
gdma_switch   0
gdma_limit    0
gdma_origin   [ 0.0,  0.0,  0.0 ]
}
molecule test {
    units Angstrom
    0 1
    --
    0 1
    C                0.450879690542059    -0.038084274313665    -1.202695325034733
    C               -0.040120309457941     1.255915725686335    -1.848695325034734
    C               -0.317120309457941    -1.273084274313665    -1.678695325034733
    C                1.951879690542059    -0.175084274313665    -1.492695325034733
    H                0.317879690542059     0.041915725686335    -0.128695325034733
    H                0.503879690542059     1.319915725686335    -2.783695325034734
    H                0.306879690542059     2.096915725686335    -1.248695325034733
    H               -0.293120309457941    -1.328084274313665    -2.766695325034733
    H                0.149879690542059    -2.168084274313665    -1.266695325034733
    H               -1.346120309457941    -1.242084274313665    -1.321695325034733
    H                2.486879690542058     0.682915725686335    -1.082695325034734
    H                2.334879690542059    -1.079084274313665    -1.015695325034733
    H                2.138879690542058    -0.232084274313665    -2.563695325034733
    H               -1.100770309457941     1.395135725686335    -2.104888325034734
    C               -0.504120309457941     0.341915725686335     2.498304674965267
    C               -1.501120309457942    -0.118084274313665     3.563304674965267
    H                0.278879690542059     0.952915725686335     2.946304674965266
    H               -0.036120309457941    -0.536084274313665     2.053304674965267
    H               -1.018120309457941     0.910915725686335     1.726304674965267
    H               -0.925120309457941    -0.630084274313665     4.324304674965267
    H               -2.052130309457942     0.724635725686335     4.006271674965267
    H               -2.226120309457942    -0.832214274313665     3.145702674965266

}
e, wfn = energy('scf', return_wfn=True)
gdma(wfn)
dmavals = variable('DMA DISTRIBUTED MULTIPOLES')
charges = np.array(dmavals)
print(charges)
np.save('SSI-031LEU-125LEU-1-dimer.npy', np.array(charges))--------------------------------------------------------------------------

*** tstart() called on ds3
*** at Mon Apr 27 22:07:33 2020

   => Loading Basis Set <=

    Name: CC-PVDZ
    Role: ORBITAL
    Keyword: BASIS
    atoms 1-4, 15-16  entry C          line   138 file /theoryfs2/ds/metcalf/miniconda2/envs/tf2gpu/share/psi4/basis/cc-pvdz.gbs
    atoms 5-14, 17-22 entry H          line    22 file /theoryfs2/ds/metcalf/miniconda2/envs/tf2gpu/share/psi4/basis/cc-pvdz.gbs

         ---------------------------------------------------------
                                   SCF
               by Justin Turney, Rob Parrish, Andy Simmonett
                          and Daniel G. A. Smith
                              RHF Reference
                        1 Threads,    500 MiB Core
         ---------------------------------------------------------

  ==> Geometry <==

    Molecular point group: c1
    Full point group: C1

    Geometry (in Angstrom), charge = 0, multiplicity = 1:

       Center              X                  Y                   Z               Mass
    ------------   -----------------  -----------------  -----------------  -----------------
         C            0.450879690542    -0.038084274314    -1.202695325035    12.000000000000
         C           -0.040120309458     1.255915725686    -1.848695325035    12.000000000000
         C           -0.317120309458    -1.273084274314    -1.678695325035    12.000000000000
         C            1.951879690542    -0.175084274314    -1.492695325035    12.000000000000
         H            0.317879690542     0.041915725686    -0.128695325035     1.007825032230
         H            0.503879690542     1.319915725686    -2.783695325035     1.007825032230
         H            0.306879690542     2.096915725686    -1.248695325035     1.007825032230
         H           -0.293120309458    -1.328084274314    -2.766695325035     1.007825032230
         H            0.149879690542    -2.168084274314    -1.266695325035     1.007825032230
         H           -1.346120309458    -1.242084274314    -1.321695325035     1.007825032230
         H            2.486879690542     0.682915725686    -1.082695325035     1.007825032230
         H            2.334879690542    -1.079084274314    -1.015695325035     1.007825032230
         H            2.138879690542    -0.232084274314    -2.563695325035     1.007825032230
         H           -1.100770309458     1.395135725686    -2.104888325035     1.007825032230
         C           -0.504120309458     0.341915725686     2.498304674965    12.000000000000
         C           -1.501120309458    -0.118084274314     3.563304674965    12.000000000000
         H            0.278879690542     0.952915725686     2.946304674965     1.007825032230
         H           -0.036120309458    -0.536084274314     2.053304674965     1.007825032230
         H           -1.018120309458     0.910915725686     1.726304674965     1.007825032230
         H           -0.925120309458    -0.630084274314     4.324304674965     1.007825032230
         H           -2.052130309458     0.724635725686     4.006271674965     1.007825032230
         H           -2.226120309458    -0.832214274314     3.145702674965     1.007825032230

  Running in c1 symmetry.

  Rotational constants: A =      0.14040  B =      0.03065  C =      0.03026 [cm^-1]
  Rotational constants: A =   4208.96903  B =    918.83890  C =    907.31239 [MHz]
  Nuclear repulsion =  242.845269764628625

  Charge       = 0
  Multiplicity = 1
  Electrons    = 52
  Nalpha       = 26
  Nbeta        = 26

  ==> Algorithm <==

  SCF Algorithm Type is PK.
  DIIS enabled.
  MOM disabled.
  Fractional occupation disabled.
  Guess Type is SAD.
  Energy threshold   = 1.00e-06
  Density threshold  = 1.00e-10
  Integral threshold = 0.00e+00

  ==> Primary Basis <==

  Basis Set: CC-PVDZ
    Blend: CC-PVDZ
    Number of shells: 84
    Number of basis function: 164
    Number of Cartesian functions: 170
    Spherical Harmonics?: true
    Max angular momentum: 2

  ==> Pre-Iterations <==

   -------------------------------------------------------
    Irrep   Nso     Nmo     Nalpha   Nbeta   Ndocc  Nsocc
   -------------------------------------------------------
     A        164     164       0       0       0       0
   -------------------------------------------------------
    Total     164     164      26      26      26       0
   -------------------------------------------------------

  ==> Integral Setup <==

  Using integral reordering PK algorithm.
  Sizing the integral batches needed.
  Building batch lookup table.
   Calculation information:
      Number of atoms:                  22
      Number of AO shells:              84
      Number of primitives:            212
      Number of atomic orbitals:       170
      Number of basis functions:       164

      Integral cutoff                 1.00e-12
      Number of threads:                 1

	Batch   1 pq = [       0,    9405] index = [             0,44231715] size =     44231715
	Batch   2 pq = [    9405,   13530] index = [      44231715,91537215] size =     47305500
  Task number: 9
  Buffer size: 11059200
  Buffer per thread: 2
  We computed 5505686 shell quartets total.
  Whereas there are 6374235 unique shell quartets.

  ==> DiskJK: Disk-Based J/K Matrices <==

    J tasked:                  Yes
    K tasked:                  Yes
    wK tasked:                  No
    Memory [MiB]:              375
    Schwarz Cutoff:          1E-12

    OpenMP threads:              1

  Minimum eigenvalue in the overlap matrix is 4.5216655742E-03.
  Using Symmetric Orthogonalization.

  SCF Guess: Superposition of Atomic Densities via on-the-fly atomic UHF.

  ==> Iterations <==

                        Total Energy        Delta E     RMS |[F,P]|

   @RHF iter SAD:  -235.43510431138168   -2.35435e+02   0.00000e+00
   @RHF iter   1:  -236.30849561299237   -8.73391e-01   3.53155e-03 DIIS
   @RHF iter   2:  -236.49879984034865   -1.90304e-01   1.52700e-03 DIIS
   @RHF iter   3:  -236.53243190372859   -3.36321e-02   3.13159e-04 DIIS
   @RHF iter   4:  -236.53505630210313   -2.62440e-03   6.96366e-05 DIIS
   @RHF iter   5:  -236.53514293376088   -8.66317e-05   1.58993e-05 DIIS
   @RHF iter   6:  -236.53514870548395   -5.77172e-06   2.74899e-06 DIIS
   @RHF iter   7:  -236.53514889817760   -1.92694e-07   6.80350e-07 DIIS
   @RHF iter   8:  -236.53514891171335   -1.35358e-08   1.67746e-07 DIIS
   @RHF iter   9:  -236.53514891254997   -8.36621e-10   4.83230e-08 DIIS
   @RHF iter  10:  -236.53514891262887   -7.88987e-11   1.07480e-08 DIIS
   @RHF iter  11:  -236.53514891263296   -4.09273e-12   2.15948e-09 DIIS
   @RHF iter  12:  -236.53514891263379   -8.24230e-13   4.07458e-10 DIIS
   @RHF iter  13:  -236.53514891263154    2.24532e-12   9.46947e-11 DIIS
  Energy and wave function converged.

  ==> Post-Iterations <==

    Orbital Energies [Eh]
    ---------------------

    Doubly Occupied:

       1A    -11.221180     2A    -11.219439     3A    -11.218125
       4A    -11.213758     5A    -11.212685     6A    -11.211185
       7A     -1.080778     8A     -1.019937     9A     -0.929605
      10A     -0.921566    11A     -0.839029    12A     -0.765225
      13A     -0.631554    14A     -0.602657    15A     -0.596592
      16A     -0.591094    17A     -0.581488    18A     -0.540100
      19A     -0.527880    20A     -0.506532    21A     -0.503453
      22A     -0.488430    23A     -0.486943    24A     -0.459079
      25A     -0.454848    26A     -0.451069

    Virtual:

      27A      0.167101    28A      0.194338    29A      0.214977
      30A      0.223644    31A      0.230342    32A      0.247773
      33A      0.253323    34A      0.260836    35A      0.264644
      36A      0.267794    37A      0.284950    38A      0.288215
      39A      0.301255    40A      0.311542    41A      0.321698
      42A      0.332381    43A      0.368861    44A      0.408389
      45A      0.413468    46A      0.427223    47A      0.568823
      48A      0.576596    49A      0.591090    50A      0.601501
      51A      0.612656    52A      0.622453    53A      0.626701
      54A      0.654795    55A      0.682752    56A      0.712186
      57A      0.751649    58A      0.787340    59A      0.802006
      60A      0.834970    61A      0.864819    62A      0.871081
      63A      0.881842    64A      0.885774    65A      0.889747
      66A      0.892978    67A      0.895812    68A      0.896104
      69A      0.906673    70A      0.910761    71A      0.913255
      72A      0.915200    73A      0.924082    74A      0.939922
      75A      0.949583    76A      0.957877    77A      0.981449
      78A      0.989115    79A      0.990772    80A      1.030044
      81A      1.117135    82A      1.119947    83A      1.127556
      84A      1.152640    85A      1.222912    86A      1.309403
      87A      1.369774    88A      1.398796    89A      1.419505
      90A      1.471844    91A      1.479831    92A      1.525215
      93A      1.556801    94A      1.578471    95A      1.611485
      96A      1.663561    97A      1.680735    98A      1.688921
      99A      1.691742   100A      1.695333   101A      1.711237
     102A      1.749297   103A      1.754230   104A      1.836378
     105A      1.845296   106A      1.863302   107A      1.865134
     108A      1.883023   109A      1.906804   110A      1.922505
     111A      1.934424   112A      1.941281   113A      1.945557
     114A      1.948438   115A      1.954467   116A      1.971602
     117A      1.975616   118A      1.980742   119A      1.991480
     120A      1.993058   121A      2.013553   122A      2.040375
     123A      2.068015   124A      2.078455   125A      2.091724
     126A      2.106337   127A      2.123896   128A      2.142737
     129A      2.165249   130A      2.227113   131A      2.286440
     132A      2.298348   133A      2.304967   134A      2.317119
     135A      2.323563   136A      2.343358   137A      2.367823
     138A      2.390472   139A      2.454653   140A      2.473740
     141A      2.483594   142A      2.550770   143A      2.579139
     144A      2.592617   145A      2.600485   146A      2.640229
     147A      2.658871   148A      2.744782   149A      2.759669
     150A      2.764010   151A      2.781627   152A      2.796282
     153A      2.800664   154A      2.818336   155A      2.839445
     156A      2.848076   157A      2.855745   158A      2.860908
     159A      2.871924   160A      2.949717   161A      2.962235
     162A      3.002137   163A      3.033033   164A      3.172291

    Final Occupation by Irrep:
              A
    DOCC [    26 ]

  @RHF Final Energy:  -236.53514891263154

   => Energetics <=

    Nuclear Repulsion Energy =            242.8452697646286254
    One-Electron Energy =                -798.2123778777013285
    Two-Electron Energy =                 318.8319592004411902
    Total Energy =                       -236.5351489126315414

Computation Completed

Properties will be evaluated at   0.000000,   0.000000,   0.000000 [a0]

Properties computed using the SCF density matrix

  Nuclear Dipole Moment: [e a0]
     X:    -0.4496      Y:     0.0726      Z:     1.7990

  Electronic Dipole Moment: [e a0]
     X:     0.4591      Y:    -0.0724      Z:    -1.7237

  Dipole Moment: [e a0]
     X:     0.0096      Y:     0.0002      Z:     0.0754     Total:     0.0760

  Dipole Moment: [D]
     X:     0.0243      Y:     0.0005      Z:     0.1915     Total:     0.1931

*** tstop() called on ds3 at Mon Apr 27 22:08:10 2020
Module time:
	user time   =      27.38 seconds =       0.46 minutes
	system time =      11.43 seconds =       0.19 minutes
	total time  =         37 seconds =       0.62 minutes
Total time:
	user time   =      27.38 seconds =       0.46 minutes
	system time =      11.43 seconds =       0.19 minutes
	total time  =         37 seconds =       0.62 minutes
                                     G D M A

                                 by Anthony Stone

                           version 2.2.06, 22 June 2011

               Distributed Multipoles from Gaussian wavefunctions

Starting at 22:8:10 on 27 Apr 2020

Using SCF density matrix from file ./SSI/SSI-031LEU-125LEU-1-dimer.test.32519.fchk

                         Distributed Multipole Analysis

Standard DMA

Positions and radii in angstrom
Multipole moments in atomic units, ea_0^k for rank k

C          x =  0.450880  y = -0.038084  z = -1.202695 angstrom
           Maximum rank =  0   Radius =  0.650 angstrom
                   Q00  =   0.000963

C          x = -0.040120  y =  1.255916  z = -1.848695 angstrom
           Maximum rank =  0   Radius =  0.650 angstrom
                   Q00  =  -0.236709

C          x = -0.317120  y = -1.273084  z = -1.678695 angstrom
           Maximum rank =  0   Radius =  0.650 angstrom
                   Q00  =  -0.241512

C          x =  1.951880  y = -0.175084  z = -1.492695 angstrom
           Maximum rank =  0   Radius =  0.650 angstrom
                   Q00  =  -0.248938

H          x =  0.317880  y =  0.041916  z = -0.128695 angstrom
           Maximum rank =  0   Radius =  0.325 angstrom
                   Q00  =   0.019825

H          x =  0.503880  y =  1.319916  z = -2.783695 angstrom
           Maximum rank =  0   Radius =  0.325 angstrom
                   Q00  =   0.065660

H          x =  0.306880  y =  2.096916  z = -1.248695 angstrom
           Maximum rank =  0   Radius =  0.325 angstrom
                   Q00  =   0.079141

H          x = -0.293120  y = -1.328084  z = -2.766695 angstrom
           Maximum rank =  0   Radius =  0.325 angstrom
                   Q00  =   0.076017

H          x =  0.149880  y = -2.168084  z = -1.266695 angstrom
           Maximum rank =  0   Radius =  0.325 angstrom
                   Q00  =   0.076612

H          x = -1.346120  y = -1.242084  z = -1.321695 angstrom
           Maximum rank =  0   Radius =  0.325 angstrom
                   Q00  =   0.084053

H          x =  2.486880  y =  0.682916  z = -1.082695 angstrom
           Maximum rank =  0   Radius =  0.325 angstrom
                   Q00  =   0.080330

H          x =  2.334880  y = -1.079084  z = -1.015695 angstrom
           Maximum rank =  0   Radius =  0.325 angstrom
                   Q00  =   0.080234

H          x =  2.138880  y = -0.232084  z = -2.563695 angstrom
           Maximum rank =  0   Radius =  0.325 angstrom
                   Q00  =   0.078531

H          x = -1.100770  y =  1.395136  z = -2.104888 angstrom
           Maximum rank =  0   Radius =  0.325 angstrom
                   Q00  =   0.084070

C          x = -0.504120  y =  0.341916  z =  2.498305 angstrom
           Maximum rank =  0   Radius =  0.650 angstrom
                   Q00  =  -0.240231

C          x = -1.501120  y = -0.118084  z =  3.563305 angstrom
           Maximum rank =  0   Radius =  0.650 angstrom
                   Q00  =  -0.233205

H          x =  0.278880  y =  0.952916  z =  2.946305 angstrom
           Maximum rank =  0   Radius =  0.325 angstrom
                   Q00  =   0.081959

H          x = -0.036120  y = -0.536084  z =  2.053305 angstrom
           Maximum rank =  0   Radius =  0.325 angstrom
                   Q00  =   0.076355

H          x = -1.018120  y =  0.910916  z =  1.726305 angstrom
           Maximum rank =  0   Radius =  0.325 angstrom
                   Q00  =   0.078447

H          x = -0.925120  y = -0.630084  z =  4.324305 angstrom
           Maximum rank =  0   Radius =  0.325 angstrom
                   Q00  =   0.078824

H          x = -2.052130  y =  0.724636  z =  4.006272 angstrom
           Maximum rank =  0   Radius =  0.325 angstrom
                   Q00  =   0.081127

H          x = -2.226120  y = -0.832214  z =  3.145703 angstrom
           Maximum rank =  0   Radius =  0.325 angstrom
                   Q00  =   0.078446

Total multipoles referred to origin at
           x =   0.000000,  y =    0.000000,  z =    0.000000 angstrom
                   Q00  =  -0.000000

Finished at 22:8:10 on 27 Apr 2020

  DMA results are available in the Python driver through the
	  variable('DMA DISTRIBUTED MULTIPOLES')
  and
	  variable('DMA TOTAL MULTIPOLES')
  commands.

    Psi4 stopped on: Monday, 27 April 2020 10:08PM
    Psi4 wall time for execution: 0:00:37.55

*** Psi4 exiting successfully. Buy a developer a beer!
