                               Psi4 1.3.2 release

  ==> Input File <==

--------------------------------------------------------------------------
import numpy as np
set {scf_type pk
basis cc-pvdz
d_convergence 10
gdma_switch   0
gdma_limit    0
gdma_origin   [ 0.0,  0.0,  0.0 ]
}
molecule test {
    units Angstrom
    0 1
    --
    0 1
    C               -0.916003885997620     0.023487608697868    -2.911974729357613
    C               -1.522003885997619     1.198487608697868    -3.625974729357613
    H               -0.731003885997620    -0.802512391302132    -3.599974729357613
    H                0.028996114002380     0.320487608697868    -2.455974729357613
    H               -1.575003885997620    -0.324512391302132    -2.116974729357613
    H               -1.813003885997620     1.928487608697868    -2.877974729357613
    H               -2.412063885997620     0.863187608697868    -4.178574729357614
    H               -0.810913885997620     1.697897608697867    -4.300464729357613
    C                0.481996114002380    -1.932512391302132    -0.057974729357614
    C               -0.360003885997620    -3.040512391302133     0.585025270642386
    C                0.452996114002380    -0.591512391302132     0.625025270642386
    C                1.647996114002380     0.034487608697868     0.948025270642386
    C               -0.741003885997620     0.090487608697868     0.828025270642386
    C                1.652996114002380     1.295487608697868     1.489025270642386
    C               -0.739003885997620     1.349487608697868     1.396025270642386
    C                0.462996114002380     1.965487608697867     1.713025270642387
    H                1.512996114002380    -2.285512391302133    -0.093974729357614
    H                0.158996114002380    -1.795512391302132    -1.086974729357614
    H               -0.061003885997620    -3.981512391302133     0.159025270642386
    H                2.587996114002380    -0.460512391302132     0.763025270642386
    H               -1.675003885997620    -0.353512391302132     0.532025270642386
    H                2.591996114002380     1.773487608697867     1.732025270642386
    H               -1.671003885997620     1.867487608697868     1.570025270642387
    H                0.473996114002380     2.961487608697868     2.131025270642386
    H               -1.439333885997620    -2.955442391302133     0.390575270642386
    H               -0.178953885997620    -3.131402391302132     1.666205270642386

}
e, wfn = energy('scf', return_wfn=True)
gdma(wfn)
dmavals = variable('DMA DISTRIBUTED MULTIPOLES')
charges = np.array(dmavals)
print(charges)
np.save('SSI-214ILE-217PHE-1-dimer.npy', np.array(charges))--------------------------------------------------------------------------

*** tstart() called on ds3
*** at Mon Apr 27 16:42:34 2020

   => Loading Basis Set <=

    Name: CC-PVDZ
    Role: ORBITAL
    Keyword: BASIS
    atoms 1-2, 9-16  entry C          line   138 file /theoryfs2/ds/metcalf/miniconda2/envs/tf2gpu/share/psi4/basis/cc-pvdz.gbs
    atoms 3-8, 17-26 entry H          line    22 file /theoryfs2/ds/metcalf/miniconda2/envs/tf2gpu/share/psi4/basis/cc-pvdz.gbs

         ---------------------------------------------------------
                                   SCF
               by Justin Turney, Rob Parrish, Andy Simmonett
                          and Daniel G. A. Smith
                              RHF Reference
                        1 Threads,    500 MiB Core
         ---------------------------------------------------------

  ==> Geometry <==

    Molecular point group: c1
    Full point group: C1

    Geometry (in Angstrom), charge = 0, multiplicity = 1:

       Center              X                  Y                   Z               Mass
    ------------   -----------------  -----------------  -----------------  -----------------
         C           -0.916003885998     0.023487608698    -2.911974729358    12.000000000000
         C           -1.522003885998     1.198487608698    -3.625974729358    12.000000000000
         H           -0.731003885998    -0.802512391302    -3.599974729358     1.007825032230
         H            0.028996114002     0.320487608698    -2.455974729358     1.007825032230
         H           -1.575003885998    -0.324512391302    -2.116974729358     1.007825032230
         H           -1.813003885998     1.928487608698    -2.877974729358     1.007825032230
         H           -2.412063885998     0.863187608698    -4.178574729358     1.007825032230
         H           -0.810913885998     1.697897608698    -4.300464729358     1.007825032230
         C            0.481996114002    -1.932512391302    -0.057974729358    12.000000000000
         C           -0.360003885998    -3.040512391302     0.585025270642    12.000000000000
         C            0.452996114002    -0.591512391302     0.625025270642    12.000000000000
         C            1.647996114002     0.034487608698     0.948025270642    12.000000000000
         C           -0.741003885998     0.090487608698     0.828025270642    12.000000000000
         C            1.652996114002     1.295487608698     1.489025270642    12.000000000000
         C           -0.739003885998     1.349487608698     1.396025270642    12.000000000000
         C            0.462996114002     1.965487608698     1.713025270642    12.000000000000
         H            1.512996114002    -2.285512391302    -0.093974729358     1.007825032230
         H            0.158996114002    -1.795512391302    -1.086974729358     1.007825032230
         H           -0.061003885998    -3.981512391302     0.159025270642     1.007825032230
         H            2.587996114002    -0.460512391302     0.763025270642     1.007825032230
         H           -1.675003885998    -0.353512391302     0.532025270642     1.007825032230
         H            2.591996114002     1.773487608698     1.732025270642     1.007825032230
         H           -1.671003885998     1.867487608698     1.570025270642     1.007825032230
         H            0.473996114002     2.961487608698     2.131025270642     1.007825032230
         H           -1.439333885998    -2.955442391302     0.390575270642     1.007825032230
         H           -0.178953885998    -3.131402391302     1.666205270642     1.007825032230

  Running in c1 symmetry.

  Rotational constants: A =      0.03997  B =      0.02726  C =      0.01954 [cm^-1]
  Rotational constants: A =   1198.37416  B =    817.16400  C =    585.85540 [MHz]
  Nuclear repulsion =  497.486906952112747

  Charge       = 0
  Multiplicity = 1
  Electrons    = 76
  Nalpha       = 38
  Nbeta        = 38

  ==> Algorithm <==

  SCF Algorithm Type is PK.
  DIIS enabled.
  MOM disabled.
  Fractional occupation disabled.
  Guess Type is SAD.
  Energy threshold   = 1.00e-06
  Density threshold  = 1.00e-10
  Integral threshold = 0.00e+00

  ==> Primary Basis <==

  Basis Set: CC-PVDZ
    Blend: CC-PVDZ
    Number of shells: 108
    Number of basis function: 220
    Number of Cartesian functions: 230
    Spherical Harmonics?: true
    Max angular momentum: 2

  ==> Pre-Iterations <==

   -------------------------------------------------------
    Irrep   Nso     Nmo     Nalpha   Nbeta   Ndocc  Nsocc
   -------------------------------------------------------
     A        220     220       0       0       0       0
   -------------------------------------------------------
    Total     220     220      38      38      38       0
   -------------------------------------------------------

  ==> Integral Setup <==

  Using integral reordering PK algorithm.
  Sizing the integral batches needed.
  Building batch lookup table.
   Calculation information:
      Number of atoms:                  26
      Number of AO shells:             108
      Number of primitives:            300
      Number of atomic orbitals:       230
      Number of basis functions:       220

      Integral cutoff                 1.00e-12
      Number of threads:                 1

	Batch   1 pq = [       0,    9405] index = [             0,44231715] size =     44231715
	Batch   2 pq = [    9405,   13301] index = [      44231715,88464951] size =     44233236
	Batch   3 pq = [   13301,   16290] index = [      88464951,132690195] size =     44225244
	Batch   4 pq = [   16290,   18810] index = [     132690195,176917455] size =     44227260
	Batch   5 pq = [   18810,   21030] index = [     176917455,221140965] size =     44223510
	Batch   6 pq = [   21030,   23037] index = [     221140965,265363203] size =     44222238
	Batch   7 pq = [   23037,   24310] index = [     265363203,295500205] size =     30137002
  Task number: 27
  Buffer size: 11059200
  Buffer per thread: 2
  We computed 16223668 shell quartets total.
  Whereas there are 17325441 unique shell quartets.

  ==> DiskJK: Disk-Based J/K Matrices <==

    J tasked:                  Yes
    K tasked:                  Yes
    wK tasked:                  No
    Memory [MiB]:              375
    Schwarz Cutoff:          1E-12

    OpenMP threads:              1

  Minimum eigenvalue in the overlap matrix is 2.9570033623E-04.
  Using Symmetric Orthogonalization.

  SCF Guess: Superposition of Atomic Densities via on-the-fly atomic UHF.

  ==> Iterations <==

                        Total Energy        Delta E     RMS |[F,P]|

   @RHF iter SAD:  -387.03390387012297   -3.87034e+02   0.00000e+00
   @RHF iter   1:  -387.76788112113150   -7.33977e-01   2.76870e-03 DIIS
   @RHF iter   2:  -387.98759764579836   -2.19717e-01   1.16143e-03 DIIS
   @RHF iter   3:  -388.02309348111123   -3.54958e-02   2.48053e-04 DIIS
   @RHF iter   4:  -388.02597962995014   -2.88615e-03   5.23667e-05 DIIS
   @RHF iter   5:  -388.02606650484688   -8.68749e-05   2.05720e-05 DIIS
   @RHF iter   6:  -388.02607958644188   -1.30816e-05   4.09335e-06 DIIS
   @RHF iter   7:  -388.02608025954754   -6.73106e-07   1.18019e-06 DIIS
   @RHF iter   8:  -388.02608031193853   -5.23910e-08   2.64276e-07 DIIS
   @RHF iter   9:  -388.02608031656001   -4.62148e-09   9.01108e-08 DIIS
   @RHF iter  10:  -388.02608031725276   -6.92751e-10   4.35804e-08 DIIS
   @RHF iter  11:  -388.02608031745939   -2.06626e-10   1.74031e-08 DIIS
   @RHF iter  12:  -388.02608031749946   -4.00746e-11   8.74558e-09 DIIS
   @RHF iter  13:  -388.02608031750697   -7.50333e-12   3.87689e-09 DIIS
   @RHF iter  14:  -388.02608031751163   -4.66116e-12   9.31180e-10 DIIS
   @RHF iter  15:  -388.02608031751066    9.66338e-13   3.13782e-10 DIIS
   @RHF iter  16:  -388.02608031751458   -3.92220e-12   1.11482e-10 DIIS
   @RHF iter  17:  -388.02608031751151    3.06954e-12   4.71733e-11 DIIS
  Energy and wave function converged.

  ==> Post-Iterations <==

    Orbital Energies [Eh]
    ---------------------

    Doubly Occupied:

       1A    -11.235069     2A    -11.232809     3A    -11.230429
       4A    -11.228172     5A    -11.227653     6A    -11.227218
       7A    -11.225509     8A    -11.221301     9A    -11.214296
      10A    -11.211839    11A     -1.158258    12A     -1.061973
      13A     -1.022255    14A     -1.015871    15A     -0.982655
      16A     -0.866399    17A     -0.833416    18A     -0.823386
      19A     -0.786532    20A     -0.693160    21A     -0.639057
      22A     -0.630314    23A     -0.600672    24A     -0.597172
      25A     -0.595503    26A     -0.586772    27A     -0.578868
      28A     -0.538364    29A     -0.519717    30A     -0.505360
      31A     -0.499933    32A     -0.484031    33A     -0.480265
      34A     -0.478484    35A     -0.473614    36A     -0.467081
      37A     -0.334793    38A     -0.320804

    Virtual:

      39A      0.137297    40A      0.143296    41A      0.175498
      42A      0.195470    43A      0.199393    44A      0.208099
      45A      0.231212    46A      0.236956    47A      0.239302
      48A      0.256371    49A      0.261711    50A      0.266284
      51A      0.273193    52A      0.290813    53A      0.295490
      54A      0.302247    55A      0.317842    56A      0.332931
      57A      0.365166    58A      0.395208    59A      0.407982
      60A      0.437406    61A      0.454514    62A      0.472118
      63A      0.488896    64A      0.500880    65A      0.572704
      66A      0.584354    67A      0.595091    68A      0.604916
      69A      0.610191    70A      0.627272    71A      0.636017
      72A      0.661234    73A      0.692235    74A      0.693936
      75A      0.698396    76A      0.718116    77A      0.720024
      78A      0.731638    79A      0.742984    80A      0.746719
      81A      0.753230    82A      0.774095    83A      0.808074
      84A      0.809107    85A      0.833414    86A      0.853854
      87A      0.857757    88A      0.863829    89A      0.881375
      90A      0.885400    91A      0.886410    92A      0.893373
      93A      0.895187    94A      0.903600    95A      0.909918
      96A      0.916785    97A      0.925791    98A      0.930532
      99A      0.933970   100A      0.947073   101A      0.952445
     102A      0.964406   103A      0.977640   104A      1.000401
     105A      1.008969   106A      1.015251   107A      1.053296
     108A      1.092415   109A      1.125729   110A      1.129782
     111A      1.146583   112A      1.148802   113A      1.153220
     114A      1.167279   115A      1.196886   116A      1.224853
     117A      1.244238   118A      1.255058   119A      1.263707
     120A      1.268934   121A      1.304610   122A      1.314686
     123A      1.327761   124A      1.331839   125A      1.381473
     126A      1.434270   127A      1.450090   128A      1.478202
     129A      1.495147   130A      1.510663   131A      1.527146
     132A      1.568610   133A      1.594961   134A      1.611509
     135A      1.677338   136A      1.686077   137A      1.705975
     138A      1.709195   139A      1.724315   140A      1.754265
     141A      1.764206   142A      1.772411   143A      1.815249
     144A      1.847191   145A      1.854742   146A      1.865373
     147A      1.883820   148A      1.891805   149A      1.902811
     150A      1.913165   151A      1.918038   152A      1.927935
     153A      1.934910   154A      1.943301   155A      1.948887
     156A      1.954188   157A      1.956175   158A      1.957760
     159A      1.965023   160A      1.968325   161A      1.978478
     162A      1.981917   163A      2.000027   164A      2.014885
     165A      2.016628   166A      2.047433   167A      2.050928
     168A      2.084254   169A      2.089651   170A      2.103688
     171A      2.107325   172A      2.114875   173A      2.137695
     174A      2.159076   175A      2.174105   176A      2.176165
     177A      2.185884   178A      2.226852   179A      2.243024
     180A      2.274698   181A      2.281640   182A      2.310521
     183A      2.321611   184A      2.324284   185A      2.345001
     186A      2.356880   187A      2.365307   188A      2.440488
     189A      2.453465   190A      2.462314   191A      2.467572
     192A      2.499499   193A      2.548255   194A      2.562995
     195A      2.574616   196A      2.593416   197A      2.602332
     198A      2.652748   199A      2.744007   200A      2.761576
     201A      2.771960   202A      2.778768   203A      2.796657
     204A      2.799542   205A      2.815625   206A      2.863214
     207A      2.868926   208A      2.870861   209A      2.899040
     210A      2.935878   211A      2.959693   212A      2.971192
     213A      2.973530   214A      3.015041   215A      3.041942
     216A      3.069883   217A      3.198294   218A      3.229098
     219A      3.330891   220A      4.005933

    Final Occupation by Irrep:
              A
    DOCC [    38 ]

  @RHF Final Energy:  -388.02608031751151

   => Energetics <=

    Nuclear Repulsion Energy =            497.4869069521127471
    One-Electron Energy =               -1509.3679643970872348
    Two-Electron Energy =                 623.8549771274629165
    Total Energy =                       -388.0260803175115143

Computation Completed

Properties will be evaluated at   0.000000,   0.000000,   0.000000 [a0]

Properties computed using the SCF density matrix

  Nuclear Dipole Moment: [e a0]
     X:    -4.6989      Y:    -4.3854      Z:   -11.0312

  Electronic Dipole Moment: [e a0]
     X:     4.7252      Y:     4.2894      Z:    10.9586

  Dipole Moment: [e a0]
     X:     0.0263      Y:    -0.0960      Z:    -0.0725     Total:     0.1232

  Dipole Moment: [D]
     X:     0.0668      Y:    -0.2440      Z:    -0.1844     Total:     0.3131

*** tstop() called on ds3 at Mon Apr 27 16:45:33 2020
Module time:
	user time   =     120.57 seconds =       2.01 minutes
	system time =      53.16 seconds =       0.89 minutes
	total time  =        179 seconds =       2.98 minutes
Total time:
	user time   =     120.57 seconds =       2.01 minutes
	system time =      53.16 seconds =       0.89 minutes
	total time  =        179 seconds =       2.98 minutes
                                     G D M A

                                 by Anthony Stone

                           version 2.2.06, 22 June 2011

               Distributed Multipoles from Gaussian wavefunctions

Starting at 16:45:33 on 27 Apr 2020

Using SCF density matrix from file ./SSI/SSI-214ILE-217PHE-1-dimer.test.27797.fchk

                         Distributed Multipole Analysis

Standard DMA

Positions and radii in angstrom
Multipole moments in atomic units, ea_0^k for rank k

C          x = -0.916004  y =  0.023488  z = -2.911975 angstrom
           Maximum rank =  0   Radius =  0.650 angstrom
                   Q00  =  -0.234444

C          x = -1.522004  y =  1.198488  z = -3.625975 angstrom
           Maximum rank =  0   Radius =  0.650 angstrom
                   Q00  =  -0.221163

H          x = -0.731004  y = -0.802512  z = -3.599975 angstrom
           Maximum rank =  0   Radius =  0.325 angstrom
                   Q00  =   0.070876

H          x =  0.028996  y =  0.320488  z = -2.455975 angstrom
           Maximum rank =  0   Radius =  0.325 angstrom
                   Q00  =   0.082610

H          x = -1.575004  y = -0.324512  z = -2.116975 angstrom
           Maximum rank =  0   Radius =  0.325 angstrom
                   Q00  =   0.072641

H          x = -1.813004  y =  1.928488  z = -2.877975 angstrom
           Maximum rank =  0   Radius =  0.325 angstrom
                   Q00  =   0.078815

H          x = -2.412064  y =  0.863188  z = -4.178575 angstrom
           Maximum rank =  0   Radius =  0.325 angstrom
                   Q00  =   0.073817

H          x = -0.810914  y =  1.697898  z = -4.300465 angstrom
           Maximum rank =  0   Radius =  0.325 angstrom
                   Q00  =   0.079766

C          x =  0.481996  y = -1.932512  z = -0.057975 angstrom
           Maximum rank =  0   Radius =  0.650 angstrom
                   Q00  =  -0.033112

C          x = -0.360004  y = -3.040512  z =  0.585025 angstrom
           Maximum rank =  0   Radius =  0.650 angstrom
                   Q00  =  -0.259526

C          x =  0.452996  y = -0.591512  z =  0.625025 angstrom
           Maximum rank =  0   Radius =  0.650 angstrom
                   Q00  =  -0.102105

C          x =  1.647996  y =  0.034488  z =  0.948025 angstrom
           Maximum rank =  0   Radius =  0.650 angstrom
                   Q00  =   0.001633

C          x = -0.741004  y =  0.090488  z =  0.828025 angstrom
           Maximum rank =  0   Radius =  0.650 angstrom
                   Q00  =  -0.102278

C          x =  1.652996  y =  1.295488  z =  1.489025 angstrom
           Maximum rank =  0   Radius =  0.650 angstrom
                   Q00  =  -0.036460

C          x = -0.739004  y =  1.349488  z =  1.396025 angstrom
           Maximum rank =  0   Radius =  0.650 angstrom
                   Q00  =  -0.075090

C          x =  0.462996  y =  1.965488  z =  1.713025 angstrom
           Maximum rank =  0   Radius =  0.650 angstrom
                   Q00  =  -0.081532

H          x =  1.512996  y = -2.285512  z = -0.093975 angstrom
           Maximum rank =  0   Radius =  0.325 angstrom
                   Q00  =   0.059601

H          x =  0.158996  y = -1.795512  z = -1.086975 angstrom
           Maximum rank =  0   Radius =  0.325 angstrom
                   Q00  =   0.078814

H          x = -0.061004  y = -3.981512  z =  0.159025 angstrom
           Maximum rank =  0   Radius =  0.325 angstrom
                   Q00  =   0.085702

H          x =  2.587996  y = -0.460512  z =  0.763025 angstrom
           Maximum rank =  0   Radius =  0.325 angstrom
                   Q00  =   0.054684

H          x = -1.675004  y = -0.353512  z =  0.532025 angstrom
           Maximum rank =  0   Radius =  0.325 angstrom
                   Q00  =   0.056994

H          x =  2.591996  y =  1.773488  z =  1.732025 angstrom
           Maximum rank =  0   Radius =  0.325 angstrom
                   Q00  =   0.060633

H          x = -1.671004  y =  1.867488  z =  1.570025 angstrom
           Maximum rank =  0   Radius =  0.325 angstrom
                   Q00  =   0.062122

H          x =  0.473996  y =  2.961488  z =  2.131025 angstrom
           Maximum rank =  0   Radius =  0.325 angstrom
                   Q00  =   0.059873

H          x = -1.439334  y = -2.955442  z =  0.390575 angstrom
           Maximum rank =  0   Radius =  0.325 angstrom
                   Q00  =   0.082320

H          x = -0.178954  y = -3.131402  z =  1.666205 angstrom
           Maximum rank =  0   Radius =  0.325 angstrom
                   Q00  =   0.084809

Total multipoles referred to origin at
           x =   0.000000,  y =    0.000000,  z =    0.000000 angstrom
                   Q00  =  -0.000000

Finished at 16:45:33 on 27 Apr 2020

  DMA results are available in the Python driver through the
	  variable('DMA DISTRIBUTED MULTIPOLES')
  and
	  variable('DMA TOTAL MULTIPOLES')
  commands.

    Psi4 stopped on: Monday, 27 April 2020 04:45PM
    Psi4 wall time for execution: 0:02:59.18

*** Psi4 exiting successfully. Buy a developer a beer!
