                               Psi4 1.3.2 release

  ==> Input File <==

--------------------------------------------------------------------------
import numpy as np
set {scf_type pk
basis cc-pvdz
d_convergence 10
gdma_switch   0
gdma_limit    0
gdma_origin   [ 0.0,  0.0,  0.0 ]
}
molecule test {
    units Angstrom
    0 1
    --
    0 1
    C               -1.419799360151316     0.462193694148532     1.004000334249904
    C               -0.394799360151317     1.361193694148531     1.646000334249904
    C               -2.716799360151317     1.237193694148532     1.203000334249904
    H               -1.438799360151317    -0.529806305851468     1.458000334249904
    H               -1.235799360151316     0.402193694148532    -0.063999665750096
    H               -0.423799360151317     1.226193694148532     2.728000334249904
    H                0.610200639848683     1.163193694148531     1.275000334249904
    H               -3.383799360151317     1.054193694148531     0.358000334249904
    H               -0.721359360151317     2.381133694148532     1.394858334249904
    H               -2.396799360151316     2.289473694148532     1.220399334249904
    H               -3.215549360151317     0.938673694148532     2.136882334249904
    C                1.233200639848684    -0.768806305851468    -0.891999665750096
    C                2.657200639848683    -0.415806305851468    -1.264999665750096
    C                0.637200639848683    -1.916806305851469    -1.682999665750096
    H                1.199200639848683    -1.001806305851468     0.174000334249904
    H                0.624200639848683     0.113193694148532    -1.079999665750096
    H                2.680200639848684    -0.240806305851468    -2.342999665750096
    H                0.435200639848683    -1.595806305851468    -2.705999665750096
    H                1.323200639848684    -2.761806305851468    -1.720999665750096
    H                3.341230639848683    -1.242086305851468    -1.021352665750096
    H                2.937390639848683     0.529923694148532    -0.778087665750096
    H               -0.289719360151317    -2.239806305851468    -1.186515665750096

}
e, wfn = energy('scf', return_wfn=True)
gdma(wfn)
dmavals = variable('DMA DISTRIBUTED MULTIPOLES')
charges = np.array(dmavals)
print(charges)
np.save('SSI-063PRO-090GLN-1-dimer.npy', np.array(charges))--------------------------------------------------------------------------

*** tstart() called on ds3
*** at Tue Apr 28 13:20:12 2020

   => Loading Basis Set <=

    Name: CC-PVDZ
    Role: ORBITAL
    Keyword: BASIS
    atoms 1-3, 12-14  entry C          line   138 file /theoryfs2/ds/metcalf/miniconda2/envs/tf2gpu/share/psi4/basis/cc-pvdz.gbs
    atoms 4-11, 15-22 entry H          line    22 file /theoryfs2/ds/metcalf/miniconda2/envs/tf2gpu/share/psi4/basis/cc-pvdz.gbs

         ---------------------------------------------------------
                                   SCF
               by Justin Turney, Rob Parrish, Andy Simmonett
                          and Daniel G. A. Smith
                              RHF Reference
                        1 Threads,    500 MiB Core
         ---------------------------------------------------------

  ==> Geometry <==

    Molecular point group: c1
    Full point group: C1

    Geometry (in Angstrom), charge = 0, multiplicity = 1:

       Center              X                  Y                   Z               Mass
    ------------   -----------------  -----------------  -----------------  -----------------
         C           -1.419799360151     0.462193694149     1.004000334250    12.000000000000
         C           -0.394799360151     1.361193694149     1.646000334250    12.000000000000
         C           -2.716799360151     1.237193694149     1.203000334250    12.000000000000
         H           -1.438799360151    -0.529806305851     1.458000334250     1.007825032230
         H           -1.235799360151     0.402193694149    -0.063999665750     1.007825032230
         H           -0.423799360151     1.226193694149     2.728000334250     1.007825032230
         H            0.610200639849     1.163193694149     1.275000334250     1.007825032230
         H           -3.383799360151     1.054193694149     0.358000334250     1.007825032230
         H           -0.721359360151     2.381133694149     1.394858334250     1.007825032230
         H           -2.396799360151     2.289473694149     1.220399334250     1.007825032230
         H           -3.215549360151     0.938673694149     2.136882334250     1.007825032230
         C            1.233200639849    -0.768806305851    -0.891999665750    12.000000000000
         C            2.657200639849    -0.415806305851    -1.264999665750    12.000000000000
         C            0.637200639849    -1.916806305851    -1.682999665750    12.000000000000
         H            1.199200639849    -1.001806305851     0.174000334250     1.007825032230
         H            0.624200639849     0.113193694149    -1.079999665750     1.007825032230
         H            2.680200639849    -0.240806305851    -2.342999665750     1.007825032230
         H            0.435200639849    -1.595806305851    -2.705999665750     1.007825032230
         H            1.323200639849    -2.761806305851    -1.720999665750     1.007825032230
         H            3.341230639849    -1.242086305851    -1.021352665750     1.007825032230
         H            2.937390639849     0.529923694149    -0.778087665750     1.007825032230
         H           -0.289719360151    -2.239806305851    -1.186515665750     1.007825032230

  Running in c1 symmetry.

  Rotational constants: A =      0.16532  B =      0.03414  C =      0.02974 [cm^-1]
  Rotational constants: A =   4956.28406  B =   1023.35774  C =    891.44169 [MHz]
  Nuclear repulsion =  245.462170672455329

  Charge       = 0
  Multiplicity = 1
  Electrons    = 52
  Nalpha       = 26
  Nbeta        = 26

  ==> Algorithm <==

  SCF Algorithm Type is PK.
  DIIS enabled.
  MOM disabled.
  Fractional occupation disabled.
  Guess Type is SAD.
  Energy threshold   = 1.00e-06
  Density threshold  = 1.00e-10
  Integral threshold = 0.00e+00

  ==> Primary Basis <==

  Basis Set: CC-PVDZ
    Blend: CC-PVDZ
    Number of shells: 84
    Number of basis function: 164
    Number of Cartesian functions: 170
    Spherical Harmonics?: true
    Max angular momentum: 2

  ==> Pre-Iterations <==

   -------------------------------------------------------
    Irrep   Nso     Nmo     Nalpha   Nbeta   Ndocc  Nsocc
   -------------------------------------------------------
     A        164     164       0       0       0       0
   -------------------------------------------------------
    Total     164     164      26      26      26       0
   -------------------------------------------------------

  ==> Integral Setup <==

  Using integral reordering PK algorithm.
  Sizing the integral batches needed.
  Building batch lookup table.
   Calculation information:
      Number of atoms:                  22
      Number of AO shells:              84
      Number of primitives:            212
      Number of atomic orbitals:       170
      Number of basis functions:       164

      Integral cutoff                 1.00e-12
      Number of threads:                 1

	Batch   1 pq = [       0,    9405] index = [             0,44231715] size =     44231715
	Batch   2 pq = [    9405,   13530] index = [      44231715,91537215] size =     47305500
  Task number: 9
  Buffer size: 11059200
  Buffer per thread: 2
  We computed 5708174 shell quartets total.
  Whereas there are 6374235 unique shell quartets.

  ==> DiskJK: Disk-Based J/K Matrices <==

    J tasked:                  Yes
    K tasked:                  Yes
    wK tasked:                  No
    Memory [MiB]:              375
    Schwarz Cutoff:          1E-12

    OpenMP threads:              1

  Minimum eigenvalue in the overlap matrix is 4.5411623922E-03.
  Using Symmetric Orthogonalization.

  SCF Guess: Superposition of Atomic Densities via on-the-fly atomic UHF.

  ==> Iterations <==

                        Total Energy        Delta E     RMS |[F,P]|

   @RHF iter SAD:  -235.60487015014814   -2.35605e+02   0.00000e+00
   @RHF iter   1:  -236.28802084569344   -6.83151e-01   3.56386e-03 DIIS
   @RHF iter   2:  -236.47955374644181   -1.91533e-01   1.56297e-03 DIIS
   @RHF iter   3:  -236.51474221339964   -3.51885e-02   3.10674e-04 DIIS
   @RHF iter   4:  -236.51740023848407   -2.65803e-03   4.89082e-05 DIIS
   @RHF iter   5:  -236.51745211549701   -5.18770e-05   1.37443e-05 DIIS
   @RHF iter   6:  -236.51745638025483   -4.26476e-06   2.40801e-06 DIIS
   @RHF iter   7:  -236.51745652058776   -1.40333e-07   4.66794e-07 DIIS
   @RHF iter   8:  -236.51745652717224   -6.58449e-09   9.47793e-08 DIIS
   @RHF iter   9:  -236.51745652744219   -2.69949e-10   3.25240e-08 DIIS
   @RHF iter  10:  -236.51745652746877   -2.65743e-11   7.48320e-09 DIIS
   @RHF iter  11:  -236.51745652747013   -1.36424e-12   1.50155e-09 DIIS
   @RHF iter  12:  -236.51745652747042   -2.84217e-13   4.70166e-10 DIIS
   @RHF iter  13:  -236.51745652747081   -3.97904e-13   8.88924e-11 DIIS
  Energy and wave function converged.

  ==> Post-Iterations <==

    Orbital Energies [Eh]
    ---------------------

    Doubly Occupied:

       1A    -11.216380     2A    -11.215758     3A    -11.215115
       4A    -11.213476     5A    -11.212659     6A    -11.211087
       7A     -1.068263     8A     -1.057834     9A     -0.926199
      10A     -0.912299    11A     -0.800891    12A     -0.791297
      13A     -0.639684    14A     -0.629151    15A     -0.613881
      16A     -0.593219    17A     -0.552827    18A     -0.538937
      19A     -0.533639    20A     -0.513021    21A     -0.486891
      22A     -0.475456    23A     -0.471195    24A     -0.465423
      25A     -0.458378    26A     -0.454947

    Virtual:

      27A      0.172020    28A      0.195358    29A      0.208271
      30A      0.215577    31A      0.228672    32A      0.236756
      33A      0.240467    34A      0.261619    35A      0.265426
      36A      0.279555    37A      0.285362    38A      0.298231
      39A      0.315351    40A      0.325857    41A      0.337228
      42A      0.359911    43A      0.375299    44A      0.399386
      45A      0.423557    46A      0.448047    47A      0.560149
      48A      0.572500    49A      0.590419    50A      0.609385
      51A      0.613618    52A      0.626222    53A      0.631645
      54A      0.657666    55A      0.689193    56A      0.759403
      57A      0.773237    58A      0.785471    59A      0.806697
      60A      0.823283    61A      0.843720    62A      0.860891
      63A      0.872888    64A      0.884829    65A      0.892791
      66A      0.894805    67A      0.897378    68A      0.902928
      69A      0.906168    70A      0.907804    71A      0.913606
      72A      0.924924    73A      0.936171    74A      0.944772
      75A      0.956992    76A      0.965762    77A      0.975309
      78A      0.985728    79A      0.992689    80A      1.039409
      81A      1.095162    82A      1.119152    83A      1.125302
      84A      1.168211    85A      1.198074    86A      1.221493
      87A      1.381625    88A      1.422463    89A      1.462403
      90A      1.475140    91A      1.482729    92A      1.489038
      93A      1.573104    94A      1.611704    95A      1.629906
      96A      1.643971    97A      1.653764    98A      1.681664
      99A      1.684327   100A      1.708584   101A      1.735881
     102A      1.760295   103A      1.809351   104A      1.860952
     105A      1.866843   106A      1.871123   107A      1.876117
     108A      1.899261   109A      1.905185   110A      1.915141
     111A      1.922171   112A      1.927823   113A      1.938010
     114A      1.949062   115A      1.964848   116A      1.980690
     117A      1.985358   118A      1.994365   119A      2.003657
     120A      2.010093   121A      2.017700   122A      2.027894
     123A      2.039495   124A      2.047582   125A      2.092192
     126A      2.127530   127A      2.148133   128A      2.165195
     129A      2.175448   130A      2.206018   131A      2.256011
     132A      2.286917   133A      2.306151   134A      2.312159
     135A      2.348293   136A      2.358207   137A      2.363576
     138A      2.437992   139A      2.467305   140A      2.508369
     141A      2.516764   142A      2.529022   143A      2.550769
     144A      2.595389   145A      2.622868   146A      2.638071
     147A      2.643288   148A      2.708067   149A      2.752875
     150A      2.762168   151A      2.765206   152A      2.782925
     153A      2.785765   154A      2.798823   155A      2.814836
     156A      2.835125   157A      2.878371   158A      2.916320
     159A      2.931072   160A      2.952405   161A      2.974310
     162A      2.982325   163A      3.046074   164A      3.083360

    Final Occupation by Irrep:
              A
    DOCC [    26 ]

  @RHF Final Energy:  -236.51745652747081

   => Energetics <=

    Nuclear Repulsion Energy =            245.4621706724553292
    One-Electron Energy =                -803.4234367758419921
    Two-Electron Energy =                 321.4438095759157932
    Total Energy =                       -236.5174565274708129

Computation Completed

Properties will be evaluated at   0.000000,   0.000000,   0.000000 [a0]

Properties computed using the SCF density matrix

  Nuclear Dipole Moment: [e a0]
     X:     0.0424      Y:     0.4558      Z:    -0.1451

  Electronic Dipole Moment: [e a0]
     X:    -0.0514      Y:    -0.4802      Z:     0.1366

  Dipole Moment: [e a0]
     X:    -0.0091      Y:    -0.0244      Z:    -0.0086     Total:     0.0274

  Dipole Moment: [D]
     X:    -0.0231      Y:    -0.0620      Z:    -0.0218     Total:     0.0697

*** tstop() called on ds3 at Tue Apr 28 13:21:49 2020
Module time:
	user time   =      30.45 seconds =       0.51 minutes
	system time =      11.84 seconds =       0.20 minutes
	total time  =         97 seconds =       1.62 minutes
Total time:
	user time   =      30.45 seconds =       0.51 minutes
	system time =      11.84 seconds =       0.20 minutes
	total time  =         97 seconds =       1.62 minutes
                                     G D M A

                                 by Anthony Stone

                           version 2.2.06, 22 June 2011

               Distributed Multipoles from Gaussian wavefunctions

Starting at 13:21:49 on 28 Apr 2020

Using SCF density matrix from file ./SSI/SSI-063PRO-090GLN-1-dimer.test.15922.fchk

                         Distributed Multipole Analysis

Standard DMA

Positions and radii in angstrom
Multipole moments in atomic units, ea_0^k for rank k

C          x = -1.419799  y =  0.462194  z =  1.004000 angstrom
           Maximum rank =  0   Radius =  0.650 angstrom
                   Q00  =  -0.105345

C          x = -0.394799  y =  1.361194  z =  1.646000 angstrom
           Maximum rank =  0   Radius =  0.650 angstrom
                   Q00  =  -0.203811

C          x = -2.716799  y =  1.237194  z =  1.203000 angstrom
           Maximum rank =  0   Radius =  0.650 angstrom
                   Q00  =  -0.234114

H          x = -1.438799  y = -0.529806  z =  1.458000 angstrom
           Maximum rank =  0   Radius =  0.325 angstrom
                   Q00  =   0.057695

H          x = -1.235799  y =  0.402194  z = -0.064000 angstrom
           Maximum rank =  0   Radius =  0.325 angstrom
                   Q00  =   0.052680

H          x = -0.423799  y =  1.226194  z =  2.728000 angstrom
           Maximum rank =  0   Radius =  0.325 angstrom
                   Q00  =   0.075846

H          x =  0.610201  y =  1.163194  z =  1.275000 angstrom
           Maximum rank =  0   Radius =  0.325 angstrom
                   Q00  =   0.080989

H          x = -3.383799  y =  1.054194  z =  0.358000 angstrom
           Maximum rank =  0   Radius =  0.325 angstrom
                   Q00  =   0.082976

H          x = -0.721359  y =  2.381134  z =  1.394858 angstrom
           Maximum rank =  0   Radius =  0.325 angstrom
                   Q00  =   0.049108

H          x = -2.396799  y =  2.289474  z =  1.220399 angstrom
           Maximum rank =  0   Radius =  0.325 angstrom
                   Q00  =   0.063165

H          x = -3.215549  y =  0.938674  z =  2.136882 angstrom
           Maximum rank =  0   Radius =  0.325 angstrom
                   Q00  =   0.079542

C          x =  1.233201  y = -0.768806  z = -0.892000 angstrom
           Maximum rank =  0   Radius =  0.650 angstrom
                   Q00  =  -0.079258

C          x =  2.657201  y = -0.415806  z = -1.265000 angstrom
           Maximum rank =  0   Radius =  0.650 angstrom
                   Q00  =  -0.218980

C          x =  0.637201  y = -1.916806  z = -1.683000 angstrom
           Maximum rank =  0   Radius =  0.650 angstrom
                   Q00  =  -0.244234

H          x =  1.199201  y = -1.001806  z =  0.174000 angstrom
           Maximum rank =  0   Radius =  0.325 angstrom
                   Q00  =   0.041126

H          x =  0.624201  y =  0.113194  z = -1.080000 angstrom
           Maximum rank =  0   Radius =  0.325 angstrom
                   Q00  =   0.036620

H          x =  2.680201  y = -0.240806  z = -2.343000 angstrom
           Maximum rank =  0   Radius =  0.325 angstrom
                   Q00  =   0.070650

H          x =  0.435201  y = -1.595806  z = -2.706000 angstrom
           Maximum rank =  0   Radius =  0.325 angstrom
                   Q00  =   0.076749

H          x =  1.323201  y = -2.761806  z = -1.721000 angstrom
           Maximum rank =  0   Radius =  0.325 angstrom
                   Q00  =   0.075495

H          x =  3.341231  y = -1.242086  z = -1.021353 angstrom
           Maximum rank =  0   Radius =  0.325 angstrom
                   Q00  =   0.077857

H          x =  2.937391  y =  0.529924  z = -0.778088 angstrom
           Maximum rank =  0   Radius =  0.325 angstrom
                   Q00  =   0.082380

H          x = -0.289719  y = -2.239806  z = -1.186516 angstrom
           Maximum rank =  0   Radius =  0.325 angstrom
                   Q00  =   0.082863

Total multipoles referred to origin at
           x =   0.000000,  y =    0.000000,  z =    0.000000 angstrom
                   Q00  =  -0.000000

Finished at 13:21:49 on 28 Apr 2020

  DMA results are available in the Python driver through the
	  variable('DMA DISTRIBUTED MULTIPOLES')
  and
	  variable('DMA TOTAL MULTIPOLES')
  commands.

    Psi4 stopped on: Tuesday, 28 April 2020 01:21PM
    Psi4 wall time for execution: 0:01:36.79

*** Psi4 exiting successfully. Buy a developer a beer!
