                               Psi4 1.3.2 release

  ==> Input File <==

--------------------------------------------------------------------------
import numpy as np
set {scf_type pk
basis cc-pvdz
d_convergence 10
gdma_switch   0
gdma_limit    0
gdma_origin   [ 0.0,  0.0,  0.0 ]
}
molecule test {
    units Angstrom
    0 1
    --
    0 1
    C               -1.087640224497793     0.512654725158996     3.052416309205678
    C               -0.396640224497793     1.471654725158996     2.104416309205678
    O               -0.332640224497793     1.207654725158996     0.880416309205678
    O                0.111359775502207     2.500654725158995     2.606416309205678
    H               -1.727640224497793     1.067654725158996     3.738416309205678
    H               -0.319640224497793     0.007654725158996     3.642416309205678
    H               -1.679080224497793    -0.250755274841004     2.525726309205678
    C                2.331359775502207    -1.204345274841004    -1.839583690794322
    C               -0.149640224497793    -1.117345274841004    -1.689583690794322
    N               -1.212640224497793    -0.711345274841004    -1.026583690794322
    N                1.056359775502207    -0.832345274841004    -1.215583690794322
    N               -0.295640224497793    -1.800345274841004    -2.808583690794322
    H               -1.058640224497793    -0.051345274841004    -0.262583690794322
    H               -2.145640224497793    -0.839345274841004    -1.404583690794322
    H                1.090359775502207    -0.264345274841004    -0.378583690794322
    H                0.519359775502207    -2.137345274841004    -3.291583690794322
    H               -1.212640224497793    -2.078345274841004    -3.125583690794322
    H                3.079359775502208    -0.471345274841004    -1.528583690794322
    H                2.266359775502207    -1.153345274841004    -2.927583690794322
    H                2.674579775502207    -2.202355274841004    -1.529463690794322

}
e, wfn = energy('scf', return_wfn=True)
gdma(wfn)
dmavals = variable('DMA DISTRIBUTED MULTIPOLES')
charges = np.array(dmavals)
print(charges)
np.save('SSI-035ASP-046ARG-1-dimer.npy', np.array(charges))--------------------------------------------------------------------------

*** tstart() called on ds3
*** at Mon Apr 27 13:02:45 2020

   => Loading Basis Set <=

    Name: CC-PVDZ
    Role: ORBITAL
    Keyword: BASIS
    atoms 1-2, 8-9   entry C          line   138 file /theoryfs2/ds/metcalf/miniconda2/envs/tf2gpu/share/psi4/basis/cc-pvdz.gbs
    atoms 3-4        entry O          line   198 file /theoryfs2/ds/metcalf/miniconda2/envs/tf2gpu/share/psi4/basis/cc-pvdz.gbs
    atoms 5-7, 13-20 entry H          line    22 file /theoryfs2/ds/metcalf/miniconda2/envs/tf2gpu/share/psi4/basis/cc-pvdz.gbs
    atoms 10-12      entry N          line   168 file /theoryfs2/ds/metcalf/miniconda2/envs/tf2gpu/share/psi4/basis/cc-pvdz.gbs

         ---------------------------------------------------------
                                   SCF
               by Justin Turney, Rob Parrish, Andy Simmonett
                          and Daniel G. A. Smith
                              RHF Reference
                        1 Threads,    500 MiB Core
         ---------------------------------------------------------

  ==> Geometry <==

    Molecular point group: c1
    Full point group: C1

    Geometry (in Angstrom), charge = 0, multiplicity = 1:

       Center              X                  Y                   Z               Mass
    ------------   -----------------  -----------------  -----------------  -----------------
         C           -1.087640224498     0.512654725159     3.052416309206    12.000000000000
         C           -0.396640224498     1.471654725159     2.104416309206    12.000000000000
         O           -0.332640224498     1.207654725159     0.880416309206    15.994914619570
         O            0.111359775502     2.500654725159     2.606416309206    15.994914619570
         H           -1.727640224498     1.067654725159     3.738416309206     1.007825032230
         H           -0.319640224498     0.007654725159     3.642416309206     1.007825032230
         H           -1.679080224498    -0.250755274841     2.525726309206     1.007825032230
         C            2.331359775502    -1.204345274841    -1.839583690794    12.000000000000
         C           -0.149640224498    -1.117345274841    -1.689583690794    12.000000000000
         N           -1.212640224498    -0.711345274841    -1.026583690794    14.003074004430
         N            1.056359775502    -0.832345274841    -1.215583690794    14.003074004430
         N           -0.295640224498    -1.800345274841    -2.808583690794    14.003074004430
         H           -1.058640224498    -0.051345274841    -0.262583690794     1.007825032230
         H           -2.145640224498    -0.839345274841    -1.404583690794     1.007825032230
         H            1.090359775502    -0.264345274841    -0.378583690794     1.007825032230
         H            0.519359775502    -2.137345274841    -3.291583690794     1.007825032230
         H           -1.212640224498    -2.078345274841    -3.125583690794     1.007825032230
         H            3.079359775502    -0.471345274841    -1.528583690794     1.007825032230
         H            2.266359775502    -1.153345274841    -2.927583690794     1.007825032230
         H            2.674579775502    -2.202355274841    -1.529463690794     1.007825032230

  Running in c1 symmetry.

  Rotational constants: A =      0.09570  B =      0.01962  C =      0.01751 [cm^-1]
  Rotational constants: A =   2869.05759  B =    588.23019  C =    524.91435 [MHz]
  Nuclear repulsion =  449.547671133385393

  Charge       = 0
  Multiplicity = 1
  Electrons    = 72
  Nalpha       = 36
  Nbeta        = 36

  ==> Algorithm <==

  SCF Algorithm Type is PK.
  DIIS enabled.
  MOM disabled.
  Fractional occupation disabled.
  Guess Type is SAD.
  Energy threshold   = 1.00e-06
  Density threshold  = 1.00e-10
  Integral threshold = 0.00e+00

  ==> Primary Basis <==

  Basis Set: CC-PVDZ
    Blend: CC-PVDZ
    Number of shells: 87
    Number of basis function: 181
    Number of Cartesian functions: 190
    Spherical Harmonics?: true
    Max angular momentum: 2

  ==> Pre-Iterations <==

   -------------------------------------------------------
    Irrep   Nso     Nmo     Nalpha   Nbeta   Ndocc  Nsocc
   -------------------------------------------------------
     A        181     181       0       0       0       0
   -------------------------------------------------------
    Total     181     181      36      36      36       0
   -------------------------------------------------------

  ==> Integral Setup <==

  Using integral reordering PK algorithm.
  Sizing the integral batches needed.
  Building batch lookup table.
   Calculation information:
      Number of atoms:                  20
      Number of AO shells:              87
      Number of primitives:            253
      Number of atomic orbitals:       190
      Number of basis functions:       181

      Integral cutoff                 1.00e-12
      Number of threads:                 1

	Batch   1 pq = [       0,    9405] index = [             0,44231715] size =     44231715
	Batch   2 pq = [    9405,   13301] index = [      44231715,88464951] size =     44233236
	Batch   3 pq = [   13301,   16471] index = [      88464951,135655156] size =     47190205
  Task number: 13
  Buffer size: 11059200
  Buffer per thread: 2
  We computed 5639676 shell quartets total.
  Whereas there are 7328706 unique shell quartets.

  ==> DiskJK: Disk-Based J/K Matrices <==

    J tasked:                  Yes
    K tasked:                  Yes
    wK tasked:                  No
    Memory [MiB]:              375
    Schwarz Cutoff:          1E-12

    OpenMP threads:              1

  Minimum eigenvalue in the overlap matrix is 3.8247787968E-03.
  Using Symmetric Orthogonalization.

  SCF Guess: Superposition of Atomic Densities via on-the-fly atomic UHF.

  ==> Iterations <==

                        Total Energy        Delta E     RMS |[F,P]|

   @RHF iter SAD:  -469.67444599735023   -4.69674e+02   0.00000e+00
   @RHF iter   1:  -470.68820079008327   -1.01375e+00   4.25399e-03 DIIS
   @RHF iter   2:  -470.91500645517942   -2.26806e-01   2.26729e-03 DIIS
   @RHF iter   3:  -470.97574009286410   -6.07336e-02   4.08167e-04 DIIS
   @RHF iter   4:  -470.97915099820449   -3.41091e-03   1.52546e-04 DIIS
   @RHF iter   5:  -470.97960606650014   -4.55068e-04   3.10272e-05 DIIS
   @RHF iter   6:  -470.97963193577033   -2.58693e-05   1.59972e-05 DIIS
   @RHF iter   7:  -470.97963725893669   -5.32317e-06   4.04403e-06 DIIS
   @RHF iter   8:  -470.97963802851064   -7.69574e-07   1.86124e-06 DIIS
   @RHF iter   9:  -470.97963816023235   -1.31722e-07   6.77319e-07 DIIS
   @RHF iter  10:  -470.97963818431890   -2.40865e-08   2.16195e-07 DIIS
   @RHF iter  11:  -470.97963818646696   -2.14806e-09   5.42931e-08 DIIS
   @RHF iter  12:  -470.97963818656825   -1.01295e-10   1.84831e-08 DIIS
   @RHF iter  13:  -470.97963818658087   -1.26192e-11   5.29678e-09 DIIS
   @RHF iter  14:  -470.97963818658042    4.54747e-13   1.35234e-09 DIIS
   @RHF iter  15:  -470.97963818657951    9.09495e-13   5.73342e-10 DIIS
   @RHF iter  16:  -470.97963818658116   -1.64846e-12   2.16490e-10 DIIS
   @RHF iter  17:  -470.97963818658013    1.02318e-12   9.06776e-11 DIIS
  Energy and wave function converged.

  ==> Post-Iterations <==

    Orbital Energies [Eh]
    ---------------------

    Doubly Occupied:

       1A    -20.419372     2A    -20.386942     3A    -15.668713
       4A    -15.645758     5A    -15.627177     6A    -11.451312
       7A    -11.329621     8A    -11.252654     9A    -11.166669
      10A     -1.409414    11A     -1.291272    12A     -1.270313
      13A     -1.248211    14A     -1.175411    15A     -1.017852
      16A     -0.917090    17A     -0.905839    18A     -0.842044
      19A     -0.801678    20A     -0.731763    21A     -0.711302
      22A     -0.694459    23A     -0.663915    24A     -0.632805
      25A     -0.623626    26A     -0.606405    27A     -0.544077
      28A     -0.531804    29A     -0.531451    30A     -0.486641
      31A     -0.471490    32A     -0.446712    33A     -0.437928
      34A     -0.331557    35A     -0.303740    36A     -0.302199

    Virtual:

      37A      0.108269    38A      0.139869    39A      0.157383
      40A      0.184313    41A      0.190046    42A      0.213677
      43A      0.231270    44A      0.243652    45A      0.255159
      46A      0.284447    47A      0.300986    48A      0.319768
      49A      0.362202    50A      0.373375    51A      0.410894
      52A      0.456464    53A      0.466986    54A      0.475599
      55A      0.566888    56A      0.572156    57A      0.575257
      58A      0.623147    59A      0.645235    60A      0.650303
      61A      0.658383    62A      0.672873    63A      0.701628
      64A      0.703560    65A      0.708513    66A      0.762738
      67A      0.786269    68A      0.801382    69A      0.805829
      70A      0.817072    71A      0.838123    72A      0.853069
      73A      0.873671    74A      0.894909    75A      0.896448
      76A      0.906328    77A      0.921931    78A      0.926146
      79A      0.937559    80A      0.954622    81A      0.980004
      82A      1.003493    83A      1.033302    84A      1.046352
      85A      1.055319    86A      1.093623    87A      1.106452
      88A      1.124225    89A      1.179059    90A      1.224322
      91A      1.230310    92A      1.234460    93A      1.262262
      94A      1.272431    95A      1.304333    96A      1.308019
      97A      1.350920    98A      1.394805    99A      1.427145
     100A      1.438110   101A      1.451120   102A      1.476080
     103A      1.517329   104A      1.536513   105A      1.553668
     106A      1.583407   107A      1.586314   108A      1.605314
     109A      1.626011   110A      1.650395   111A      1.671051
     112A      1.690777   113A      1.727935   114A      1.734662
     115A      1.767307   116A      1.789323   117A      1.835868
     118A      1.856418   119A      1.873529   120A      1.891475
     121A      1.904692   122A      1.917782   123A      1.923096
     124A      1.940636   125A      1.949545   126A      1.977509
     127A      1.983897   128A      1.992166   129A      2.011800
     130A      2.029074   131A      2.087087   132A      2.135334
     133A      2.138302   134A      2.163324   135A      2.171534
     136A      2.222582   137A      2.251960   138A      2.273214
     139A      2.289321   140A      2.295084   141A      2.314179
     142A      2.359927   143A      2.396507   144A      2.442655
     145A      2.445673   146A      2.456714   147A      2.486869
     148A      2.538462   149A      2.568719   150A      2.577208
     151A      2.597677   152A      2.608093   153A      2.634936
     154A      2.696040   155A      2.705276   156A      2.734496
     157A      2.769501   158A      2.808181   159A      2.850326
     160A      2.853714   161A      2.872859   162A      2.889471
     163A      2.908749   164A      2.958858   165A      2.973390
     166A      3.025570   167A      3.093588   168A      3.138256
     169A      3.155922   170A      3.193886   171A      3.219709
     172A      3.245681   173A      3.303078   174A      3.489685
     175A      3.642379   176A      3.689888   177A      3.718168
     178A      3.779841   179A      3.931767   180A      3.975687
     181A      4.052553

    Final Occupation by Irrep:
              A
    DOCC [    36 ]

  @RHF Final Energy:  -470.97963818658013

   => Energetics <=

    Nuclear Repulsion Energy =            449.5476711333853927
    One-Electron Energy =               -1535.2961799206830165
    Two-Electron Energy =                 614.7688706007174915
    Total Energy =                       -470.9796381865801322

Computation Completed

Properties will be evaluated at   0.000000,   0.000000,   0.000000 [a0]

Properties computed using the SCF density matrix

  Nuclear Dipole Moment: [e a0]
     X:     1.3940      Y:    -7.8221      Z:    -4.2266

  Electronic Dipole Moment: [e a0]
     X:    -1.3472      Y:     3.0318      Z:    -0.8926

  Dipole Moment: [e a0]
     X:     0.0468      Y:    -4.7903      Z:    -5.1191     Total:     7.0110

  Dipole Moment: [D]
     X:     0.1190      Y:   -12.1757      Z:   -13.0115     Total:    17.8203

*** tstop() called on ds3 at Mon Apr 27 13:03:51 2020
Module time:
	user time   =      43.84 seconds =       0.73 minutes
	system time =      24.47 seconds =       0.41 minutes
	total time  =         66 seconds =       1.10 minutes
Total time:
	user time   =      43.84 seconds =       0.73 minutes
	system time =      24.47 seconds =       0.41 minutes
	total time  =         66 seconds =       1.10 minutes
                                     G D M A

                                 by Anthony Stone

                           version 2.2.06, 22 June 2011

               Distributed Multipoles from Gaussian wavefunctions

Starting at 13:3:51 on 27 Apr 2020

Using SCF density matrix from file ./SSI/SSI-035ASP-046ARG-1-dimer.test.5103.fchk

                         Distributed Multipole Analysis

Standard DMA

Positions and radii in angstrom
Multipole moments in atomic units, ea_0^k for rank k

C          x = -1.087640  y =  0.512655  z =  3.052416 angstrom
           Maximum rank =  0   Radius =  0.650 angstrom
                   Q00  =  -0.287934

C          x = -0.396640  y =  1.471655  z =  2.104416 angstrom
           Maximum rank =  0   Radius =  0.650 angstrom
                   Q00  =   0.915976

O          x = -0.332640  y =  1.207655  z =  0.880416 angstrom
           Maximum rank =  0   Radius =  0.650 angstrom
                   Q00  =  -0.973369

O          x =  0.111360  y =  2.500655  z =  2.606416 angstrom
           Maximum rank =  0   Radius =  0.650 angstrom
                   Q00  =  -0.866676

H          x = -1.727640  y =  1.067655  z =  3.738416 angstrom
           Maximum rank =  0   Radius =  0.325 angstrom
                   Q00  =   0.101809

H          x = -0.319640  y =  0.007655  z =  3.642416 angstrom
           Maximum rank =  0   Radius =  0.325 angstrom
                   Q00  =   0.100088

H          x = -1.679080  y = -0.250755  z =  2.525726 angstrom
           Maximum rank =  0   Radius =  0.325 angstrom
                   Q00  =   0.040776

C          x =  2.331360  y = -1.204345  z = -1.839584 angstrom
           Maximum rank =  0   Radius =  0.650 angstrom
                   Q00  =  -0.114641

C          x = -0.149640  y = -1.117345  z = -1.689584 angstrom
           Maximum rank =  0   Radius =  0.650 angstrom
                   Q00  =   1.067297

N          x = -1.212640  y = -0.711345  z = -1.026584 angstrom
           Maximum rank =  0   Radius =  0.650 angstrom
                   Q00  =  -0.584844

N          x =  1.056360  y = -0.832345  z = -1.215584 angstrom
           Maximum rank =  0   Radius =  0.650 angstrom
                   Q00  =  -0.490899

N          x = -0.295640  y = -1.800345  z = -2.808584 angstrom
           Maximum rank =  0   Radius =  0.650 angstrom
                   Q00  =  -0.582931

H          x = -1.058640  y = -0.051345  z = -0.262584 angstrom
           Maximum rank =  0   Radius =  0.325 angstrom
                   Q00  =   0.338665

H          x = -2.145640  y = -0.839345  z = -1.404584 angstrom
           Maximum rank =  0   Radius =  0.325 angstrom
                   Q00  =   0.232806

H          x =  1.090360  y = -0.264345  z = -0.378584 angstrom
           Maximum rank =  0   Radius =  0.325 angstrom
                   Q00  =   0.255622

H          x =  0.519360  y = -2.137345  z = -3.291584 angstrom
           Maximum rank =  0   Radius =  0.325 angstrom
                   Q00  =   0.244323

H          x = -1.212640  y = -2.078345  z = -3.125584 angstrom
           Maximum rank =  0   Radius =  0.325 angstrom
                   Q00  =   0.249068

H          x =  3.079360  y = -0.471345  z = -1.528584 angstrom
           Maximum rank =  0   Radius =  0.325 angstrom
                   Q00  =   0.156947

H          x =  2.266360  y = -1.153345  z = -2.927584 angstrom
           Maximum rank =  0   Radius =  0.325 angstrom
                   Q00  =   0.090608

H          x =  2.674580  y = -2.202355  z = -1.529464 angstrom
           Maximum rank =  0   Radius =  0.325 angstrom
                   Q00  =   0.107308

Total multipoles referred to origin at
           x =   0.000000,  y =    0.000000,  z =    0.000000 angstrom
                   Q00  =  -0.000000

Finished at 13:3:51 on 27 Apr 2020

  DMA results are available in the Python driver through the
	  variable('DMA DISTRIBUTED MULTIPOLES')
  and
	  variable('DMA TOTAL MULTIPOLES')
  commands.

    Psi4 stopped on: Monday, 27 April 2020 01:03PM
    Psi4 wall time for execution: 0:01:05.58

*** Psi4 exiting successfully. Buy a developer a beer!
