                               Psi4 1.3.2 release

  ==> Input File <==

--------------------------------------------------------------------------
import numpy as np
set {scf_type pk
basis cc-pvdz
d_convergence 10
gdma_switch   0
gdma_limit    0
gdma_origin   [ 0.0,  0.0,  0.0 ]
}
molecule test {
    units Angstrom
    1 1
    --
    1 1
    C                0.991838949440837    -0.231118242968681     2.101080664563731
    C                0.675838949440837    -0.856118242968681     3.473080664563732
    H                1.985838949440837    -0.517118242968681     1.758080664563731
    H                0.270838949440837    -0.605118242968681     1.377080664563731
    H                0.918838949440837     0.855881757031319     2.155080664563731
    H                0.814838949440837    -1.933118242968681     3.388080664563731
    H                1.386768949440837    -0.457738242968681     4.211910664563731
    H               -0.368081050559163    -0.675478242968681     3.769060664563731
    C               -0.180161050559163    -1.661118242968681    -1.814919335436269
    C               -0.367161050559163     0.677881757031319    -0.973919335436269
    N               -0.864161050559163    -0.531118242968681    -1.208919335436269
    N                0.866838949440837     1.029881757031319    -1.269919335436269
    N               -1.170161050559163     1.553881757031319    -0.396919335436269
    H               -1.824161050559163    -0.670118242968681    -0.891919335436269
    H                1.485838949440837     0.366881757031319    -1.703919335436269
    H                1.190838949440837     1.964881757031319    -1.075919335436269
    H               -2.103161050559163     1.228881757031319    -0.148919335436269
    H               -0.870161050559163     2.491881757031318    -0.187919335436269
    H               -0.723161050559163    -2.573118242968682    -1.559919335436269
    H                0.820838949440837    -1.747118242968681    -1.387919335436269
    H               -0.104381050559163    -1.596888242968681    -2.910429335436269

}
e, wfn = energy('scf', return_wfn=True)
gdma(wfn)
dmavals = variable('DMA DISTRIBUTED MULTIPOLES')
charges = np.array(dmavals)
print(charges)
np.save('SSI-115VAL-130ARG-1-dimer.npy', np.array(charges))--------------------------------------------------------------------------

*** tstart() called on ds3
*** at Mon Apr 27 12:43:31 2020

   => Loading Basis Set <=

    Name: CC-PVDZ
    Role: ORBITAL
    Keyword: BASIS
    atoms 1-2, 9-10  entry C          line   138 file /theoryfs2/ds/metcalf/miniconda2/envs/tf2gpu/share/psi4/basis/cc-pvdz.gbs
    atoms 3-8, 14-21 entry H          line    22 file /theoryfs2/ds/metcalf/miniconda2/envs/tf2gpu/share/psi4/basis/cc-pvdz.gbs
    atoms 11-13      entry N          line   168 file /theoryfs2/ds/metcalf/miniconda2/envs/tf2gpu/share/psi4/basis/cc-pvdz.gbs

         ---------------------------------------------------------
                                   SCF
               by Justin Turney, Rob Parrish, Andy Simmonett
                          and Daniel G. A. Smith
                              RHF Reference
                        1 Threads,    500 MiB Core
         ---------------------------------------------------------

  ==> Geometry <==

    Molecular point group: c1
    Full point group: C1

    Geometry (in Angstrom), charge = 1, multiplicity = 1:

       Center              X                  Y                   Z               Mass
    ------------   -----------------  -----------------  -----------------  -----------------
         C            0.991838949441    -0.231118242969     2.101080664564    12.000000000000
         C            0.675838949441    -0.856118242969     3.473080664564    12.000000000000
         H            1.985838949441    -0.517118242969     1.758080664564     1.007825032230
         H            0.270838949441    -0.605118242969     1.377080664564     1.007825032230
         H            0.918838949441     0.855881757031     2.155080664564     1.007825032230
         H            0.814838949441    -1.933118242969     3.388080664564     1.007825032230
         H            1.386768949441    -0.457738242969     4.211910664564     1.007825032230
         H           -0.368081050559    -0.675478242969     3.769060664564     1.007825032230
         C           -0.180161050559    -1.661118242969    -1.814919335436    12.000000000000
         C           -0.367161050559     0.677881757031    -0.973919335436    12.000000000000
         N           -0.864161050559    -0.531118242969    -1.208919335436    14.003074004430
         N            0.866838949441     1.029881757031    -1.269919335436    14.003074004430
         N           -1.170161050559     1.553881757031    -0.396919335436    14.003074004430
         H           -1.824161050559    -0.670118242969    -0.891919335436     1.007825032230
         H            1.485838949441     0.366881757031    -1.703919335436     1.007825032230
         H            1.190838949441     1.964881757031    -1.075919335436     1.007825032230
         H           -2.103161050559     1.228881757031    -0.148919335436     1.007825032230
         H           -0.870161050559     2.491881757031    -0.187919335436     1.007825032230
         H           -0.723161050559    -2.573118242969    -1.559919335436     1.007825032230
         H            0.820838949441    -1.747118242969    -1.387919335436     1.007825032230
         H           -0.104381050559    -1.596888242969    -2.910429335436     1.007825032230

  Running in c1 symmetry.

  Rotational constants: A =      0.09070  B =      0.03747  C =      0.03255 [cm^-1]
  Rotational constants: A =   2718.98260  B =   1123.22130  C =    975.86067 [MHz]
  Nuclear repulsion =  325.432738738915702

  Charge       = 1
  Multiplicity = 1
  Electrons    = 58
  Nalpha       = 29
  Nbeta        = 29

  ==> Algorithm <==

  SCF Algorithm Type is PK.
  DIIS enabled.
  MOM disabled.
  Fractional occupation disabled.
  Guess Type is SAD.
  Energy threshold   = 1.00e-06
  Density threshold  = 1.00e-10
  Integral threshold = 0.00e+00

  ==> Primary Basis <==

  Basis Set: CC-PVDZ
    Blend: CC-PVDZ
    Number of shells: 84
    Number of basis function: 168
    Number of Cartesian functions: 175
    Spherical Harmonics?: true
    Max angular momentum: 2

  ==> Pre-Iterations <==

   -------------------------------------------------------
    Irrep   Nso     Nmo     Nalpha   Nbeta   Ndocc  Nsocc
   -------------------------------------------------------
     A        168     168       0       0       0       0
   -------------------------------------------------------
    Total     168     168      29      29      29       0
   -------------------------------------------------------

  ==> Integral Setup <==

  Using integral reordering PK algorithm.
  Sizing the integral batches needed.
  Building batch lookup table.
   Calculation information:
      Number of atoms:                  21
      Number of AO shells:              84
      Number of primitives:            224
      Number of atomic orbitals:       175
      Number of basis functions:       168

      Integral cutoff                 1.00e-12
      Number of threads:                 1

	Batch   1 pq = [       0,    9405] index = [             0,44231715] size =     44231715
	Batch   2 pq = [    9405,   13301] index = [      44231715,88464951] size =     44233236
	Batch   3 pq = [   13301,   14196] index = [      88464951,100770306] size =     12305355
  Task number: 10
  Buffer size: 11059200
  Buffer per thread: 2
  We computed 5982308 shell quartets total.
  Whereas there are 6374235 unique shell quartets.

  ==> DiskJK: Disk-Based J/K Matrices <==

    J tasked:                  Yes
    K tasked:                  Yes
    wK tasked:                  No
    Memory [MiB]:              375
    Schwarz Cutoff:          1E-12

    OpenMP threads:              1

  Minimum eigenvalue in the overlap matrix is 3.3668864824E-03.
  Using Symmetric Orthogonalization.

  SCF Guess: Superposition of Atomic Densities via on-the-fly atomic UHF.

  ==> Iterations <==

                        Total Energy        Delta E     RMS |[F,P]|

   @RHF iter SAD:  -322.10695192989016   -3.22107e+02   0.00000e+00
   @RHF iter   1:  -322.61498907164082   -5.08037e-01   3.41840e-03 DIIS
   @RHF iter   2:  -322.78701644273792   -1.72027e-01   1.34644e-03 DIIS
   @RHF iter   3:  -322.81234924486120   -2.53328e-02   3.21135e-04 DIIS
   @RHF iter   4:  -322.81476822225022   -2.41898e-03   5.24855e-05 DIIS
   @RHF iter   5:  -322.81483491633435   -6.66941e-05   2.11369e-05 DIIS
   @RHF iter   6:  -322.81484430694309   -9.39061e-06   4.24082e-06 DIIS
   @RHF iter   7:  -322.81484493288036   -6.25937e-07   1.41233e-06 DIIS
   @RHF iter   8:  -322.81484497705452   -4.41742e-08   4.37609e-07 DIIS
   @RHF iter   9:  -322.81484498144596   -4.39144e-09   9.77729e-08 DIIS
   @RHF iter  10:  -322.81484498169442   -2.48463e-10   3.11132e-08 DIIS
   @RHF iter  11:  -322.81484498171824   -2.38174e-11   5.95004e-09 DIIS
   @RHF iter  12:  -322.81484498171892   -6.82121e-13   2.01245e-09 DIIS
   @RHF iter  13:  -322.81484498171966   -7.38964e-13   7.24725e-10 DIIS
   @RHF iter  14:  -322.81484498171898    6.82121e-13   2.35731e-10 DIIS
   @RHF iter  15:  -322.81484498171949   -5.11591e-13   4.88672e-11 DIIS
  Energy and wave function converged.

  ==> Post-Iterations <==

    Orbital Energies [Eh]
    ---------------------

    Doubly Occupied:

       1A    -15.791682     2A    -15.788064     3A    -15.786425
       4A    -11.589980     5A    -11.440392     6A    -11.335130
       7A    -11.320889     8A     -1.546594     9A     -1.405445
      10A     -1.390740    11A     -1.143001    12A     -1.125686
      13A     -1.038306    14A     -0.973758    15A     -0.947207
      16A     -0.941760    17A     -0.866419    18A     -0.853726
      19A     -0.825665    20A     -0.797545    21A     -0.743904
      22A     -0.720533    23A     -0.708853    24A     -0.705498
      25A     -0.619434    26A     -0.606666    27A     -0.597116
      28A     -0.593318    29A     -0.582998

    Virtual:

      30A     -0.016925    31A      0.021109    32A      0.024555
      33A      0.028348    34A      0.063152    35A      0.075079
      36A      0.090149    37A      0.115810    38A      0.119247
      39A      0.133384    40A      0.145215    41A      0.154129
      42A      0.163114    43A      0.182925    44A      0.185364
      45A      0.207103    46A      0.261554    47A      0.294820
      48A      0.320442    49A      0.342854    50A      0.443181
      51A      0.460528    52A      0.473521    53A      0.480941
      54A      0.497286    55A      0.515268    56A      0.528540
      57A      0.531107    58A      0.536089    59A      0.552218
      60A      0.576724    61A      0.603425    62A      0.670035
      63A      0.683745    64A      0.698780    65A      0.702016
      66A      0.707728    67A      0.741453    68A      0.747490
      69A      0.768224    70A      0.780003    71A      0.785653
      72A      0.793667    73A      0.794735    74A      0.802253
      75A      0.818582    76A      0.838563    77A      0.860639
      78A      0.874080    79A      0.880760    80A      0.916190
      81A      0.925233    82A      0.955696    83A      0.997155
      84A      1.011150    85A      1.034619    86A      1.053442
      87A      1.104727    88A      1.120901    89A      1.136070
      90A      1.168835    91A      1.201134    92A      1.213286
      93A      1.226839    94A      1.293965    95A      1.358468
      96A      1.372779    97A      1.404395    98A      1.471047
      99A      1.489384   100A      1.502901   101A      1.527710
     102A      1.543667   103A      1.554711   104A      1.583846
     105A      1.605552   106A      1.618851   107A      1.654542
     108A      1.687136   109A      1.706097   110A      1.718458
     111A      1.737190   112A      1.745063   113A      1.770222
     114A      1.773493   115A      1.791130   116A      1.806319
     117A      1.810871   118A      1.822138   119A      1.837391
     120A      1.840348   121A      1.850498   122A      1.856358
     123A      1.873328   124A      1.896439   125A      1.927415
     126A      1.980569   127A      1.999596   128A      2.019715
     129A      2.034546   130A      2.053109   131A      2.119958
     132A      2.159407   133A      2.173413   134A      2.189051
     135A      2.211616   136A      2.238216   137A      2.271257
     138A      2.273365   139A      2.308988   140A      2.330638
     141A      2.343417   142A      2.352840   143A      2.382377
     144A      2.442293   145A      2.448950   146A      2.460243
     147A      2.481470   148A      2.539200   149A      2.584014
     150A      2.599884   151A      2.626204   152A      2.665933
     153A      2.686163   154A      2.705807   155A      2.736923
     156A      2.742700   157A      2.781912   158A      2.795433
     159A      2.799166   160A      2.840230   161A      2.851253
     162A      2.858959   163A      2.878155   164A      3.070582
     165A      3.121229   166A      3.126928   167A      3.548833
     168A      3.643536

    Final Occupation by Irrep:
              A
    DOCC [    29 ]

  @RHF Final Energy:  -322.81484498171949

   => Energetics <=

    Nuclear Repulsion Energy =            325.4327387389157025
    One-Electron Energy =               -1070.9216965200873801
    Two-Electron Energy =                 422.6741127994521321
    Total Energy =                       -322.8148449817194887

Computation Completed

Properties will be evaluated at   0.000000,   0.000000,   0.000000 [a0]

Properties computed using the SCF density matrix

  Nuclear Dipole Moment: [e a0]
     X:     2.7047      Y:    -3.6315      Z:     6.3760

  Electronic Dipole Moment: [e a0]
     X:    -3.3118      Y:     4.5025      Z:    -8.0591

  Dipole Moment: [e a0]
     X:    -0.6070      Y:     0.8710      Z:    -1.6830     Total:     1.9899

  Dipole Moment: [D]
     X:    -1.5429      Y:     2.2138      Z:    -4.2779     Total:     5.0578

*** tstop() called on ds3 at Mon Apr 27 12:44:39 2020
Module time:
	user time   =      50.31 seconds =       0.84 minutes
	system time =      19.32 seconds =       0.32 minutes
	total time  =         68 seconds =       1.13 minutes
Total time:
	user time   =      50.31 seconds =       0.84 minutes
	system time =      19.32 seconds =       0.32 minutes
	total time  =         68 seconds =       1.13 minutes
                                     G D M A

                                 by Anthony Stone

                           version 2.2.06, 22 June 2011

               Distributed Multipoles from Gaussian wavefunctions

Starting at 12:44:39 on 27 Apr 2020

Using SCF density matrix from file ./SSI/SSI-115VAL-130ARG-1-dimer.test.3884.fchk

                         Distributed Multipole Analysis

Standard DMA

Positions and radii in angstrom
Multipole moments in atomic units, ea_0^k for rank k

C          x =  0.991839  y = -0.231118  z =  2.101081 angstrom
           Maximum rank =  0   Radius =  0.650 angstrom
                   Q00  =  -0.255056

C          x =  0.675839  y = -0.856118  z =  3.473081 angstrom
           Maximum rank =  0   Radius =  0.650 angstrom
                   Q00  =  -0.227574

H          x =  1.985839  y = -0.517118  z =  1.758081 angstrom
           Maximum rank =  0   Radius =  0.325 angstrom
                   Q00  =   0.092926

H          x =  0.270839  y = -0.605118  z =  1.377081 angstrom
           Maximum rank =  0   Radius =  0.325 angstrom
                   Q00  =   0.036696

H          x =  0.918839  y =  0.855882  z =  2.155081 angstrom
           Maximum rank =  0   Radius =  0.325 angstrom
                   Q00  =   0.072722

H          x =  0.814839  y = -1.933118  z =  3.388081 angstrom
           Maximum rank =  0   Radius =  0.325 angstrom
                   Q00  =   0.089989

H          x =  1.386769  y = -0.457738  z =  4.211911 angstrom
           Maximum rank =  0   Radius =  0.325 angstrom
                   Q00  =   0.101084

H          x = -0.368081  y = -0.675478  z =  3.769061 angstrom
           Maximum rank =  0   Radius =  0.325 angstrom
                   Q00  =   0.085212

C          x = -0.180161  y = -1.661118  z = -1.814919 angstrom
           Maximum rank =  0   Radius =  0.650 angstrom
                   Q00  =  -0.133933

C          x = -0.367161  y =  0.677882  z = -0.973919 angstrom
           Maximum rank =  0   Radius =  0.650 angstrom
                   Q00  =   1.071797

N          x = -0.864161  y = -0.531118  z = -1.208919 angstrom
           Maximum rank =  0   Radius =  0.650 angstrom
                   Q00  =  -0.476389

N          x =  0.866839  y =  1.029882  z = -1.269919 angstrom
           Maximum rank =  0   Radius =  0.650 angstrom
                   Q00  =  -0.577356

N          x = -1.170161  y =  1.553882  z = -0.396919 angstrom
           Maximum rank =  0   Radius =  0.650 angstrom
                   Q00  =  -0.591832

H          x = -1.824161  y = -0.670118  z = -0.891919 angstrom
           Maximum rank =  0   Radius =  0.325 angstrom
                   Q00  =   0.228563

H          x =  1.485839  y =  0.366882  z = -1.703919 angstrom
           Maximum rank =  0   Radius =  0.325 angstrom
                   Q00  =   0.271942

H          x =  1.190839  y =  1.964882  z = -1.075919 angstrom
           Maximum rank =  0   Radius =  0.325 angstrom
                   Q00  =   0.272951

H          x = -2.103161  y =  1.228882  z = -0.148919 angstrom
           Maximum rank =  0   Radius =  0.325 angstrom
                   Q00  =   0.261559

H          x = -0.870161  y =  2.491882  z = -0.187919 angstrom
           Maximum rank =  0   Radius =  0.325 angstrom
                   Q00  =   0.271897

H          x = -0.723161  y = -2.573118  z = -1.559919 angstrom
           Maximum rank =  0   Radius =  0.325 angstrom
                   Q00  =   0.164600

H          x =  0.820839  y = -1.747118  z = -1.387919 angstrom
           Maximum rank =  0   Radius =  0.325 angstrom
                   Q00  =   0.112216

H          x = -0.104381  y = -1.596888  z = -2.910429 angstrom
           Maximum rank =  0   Radius =  0.325 angstrom
                   Q00  =   0.127986

Total multipoles referred to origin at
           x =   0.000000,  y =    0.000000,  z =    0.000000 angstrom
                   Q00  =   1.000000

Finished at 12:44:39 on 27 Apr 2020

  DMA results are available in the Python driver through the
	  variable('DMA DISTRIBUTED MULTIPOLES')
  and
	  variable('DMA TOTAL MULTIPOLES')
  commands.

    Psi4 stopped on: Monday, 27 April 2020 12:44PM
    Psi4 wall time for execution: 0:01:08.10

*** Psi4 exiting successfully. Buy a developer a beer!
