                               Psi4 1.3.2 release

  ==> Input File <==

--------------------------------------------------------------------------
import numpy as np
set {scf_type pk
basis cc-pvdz
d_convergence 10
gdma_switch   0
gdma_limit    0
gdma_origin   [ 0.0,  0.0,  0.0 ]
}
molecule test {
    units Angstrom
    0 1
    --
    0 1
    C                2.537528224445215    -1.383331091414912     0.041089049942695
    C                0.464528224445215    -0.022331091414912     0.721089049942695
    C                1.138528224445216    -1.194331091414912     0.549089049942695
    C               -1.006471775554785    -1.586331091414912     1.290089049942695
    C                0.199528224445215    -2.225331091414912     0.901089049942695
    C               -2.120471775554785    -2.312331091414912     1.693089049942695
    C                0.275528224445215    -3.630331091414912     0.917089049942695
    C               -2.021471775554784    -3.689331091414912     1.702089049942695
    C               -0.853471775554784    -4.360331091414912     1.325089049942695
    N               -0.813471775554784    -0.242331091414912     1.171089049942695
    H                0.872528224445215     0.958668908585088     0.501089049942695
    H               -1.545471775554785     0.470668908585088     1.245089049942695
    H                2.553528224445215    -1.063331091414912    -1.000910950057305
    H                2.783528224445216    -2.446331091414911     0.057089049942695
    H               -3.029471775554784    -1.813331091414912     1.984089049942694
    H                1.184528224445215    -4.136331091414911     0.627089049942695
    H               -2.881471775554784    -4.268331091414912     2.000089049942694
    H               -0.811471775554785    -5.435331091414912     1.366089049942695
    H                3.315288224445216    -0.825419091414912     0.583139049942695
    C                2.336528224445216     4.170668908585087    -1.355910950057305
    C               -1.276471775554785     1.954668908585088    -1.540910950057305
    C               -1.223471775554785     3.088668908585088    -0.744910950057305
    C               -0.184471775554785     1.507668908585088    -2.262910950057305
    C               -0.041471775554785     3.805668908585088    -0.664910950057305
    C                1.003528224445215     2.230668908585088    -2.182910950057305
    C                1.070528224445215     3.368668908585088    -1.394910950057305
    H               -2.203471775554784     1.400668908585088    -1.594910950057305
    H               -2.094471775554784     3.409668908585088    -0.192910950057305
    H               -0.253471775554785     0.624668908585088    -2.881910950057305
    H                0.011528224445215     4.697668908585088    -0.056910950057305
    H                1.865528224445216     1.905668908585088    -2.747910950057305
    H                2.072528224445215     5.227668908585088    -1.394910950057305
    H                2.898528224445216     3.952668908585088    -2.265910950057305
    H                3.010838224445215     4.009151908585088    -0.501970950057305

}
e, wfn = energy('scf', return_wfn=True)
gdma(wfn)
dmavals = variable('DMA DISTRIBUTED MULTIPOLES')
charges = np.array(dmavals)
print(charges)
np.save('SSI-030TRP-103PHE-1-dimer.npy', np.array(charges))--------------------------------------------------------------------------

*** tstart() called on ds3
*** at Mon Apr 27 10:56:09 2020

   => Loading Basis Set <=

    Name: CC-PVDZ
    Role: ORBITAL
    Keyword: BASIS
    atoms 1-9, 20-26   entry C          line   138 file /theoryfs2/ds/metcalf/miniconda2/envs/tf2gpu/share/psi4/basis/cc-pvdz.gbs
    atoms 10           entry N          line   168 file /theoryfs2/ds/metcalf/miniconda2/envs/tf2gpu/share/psi4/basis/cc-pvdz.gbs
    atoms 11-19, 27-34 entry H          line    22 file /theoryfs2/ds/metcalf/miniconda2/envs/tf2gpu/share/psi4/basis/cc-pvdz.gbs

         ---------------------------------------------------------
                                   SCF
               by Justin Turney, Rob Parrish, Andy Simmonett
                          and Daniel G. A. Smith
                              RHF Reference
                        1 Threads,    500 MiB Core
         ---------------------------------------------------------

  ==> Geometry <==

    Molecular point group: c1
    Full point group: C1

    Geometry (in Angstrom), charge = 0, multiplicity = 1:

       Center              X                  Y                   Z               Mass
    ------------   -----------------  -----------------  -----------------  -----------------
         C            2.537528224445    -1.383331091415     0.041089049943    12.000000000000
         C            0.464528224445    -0.022331091415     0.721089049943    12.000000000000
         C            1.138528224445    -1.194331091415     0.549089049943    12.000000000000
         C           -1.006471775555    -1.586331091415     1.290089049943    12.000000000000
         C            0.199528224445    -2.225331091415     0.901089049943    12.000000000000
         C           -2.120471775555    -2.312331091415     1.693089049943    12.000000000000
         C            0.275528224445    -3.630331091415     0.917089049943    12.000000000000
         C           -2.021471775555    -3.689331091415     1.702089049943    12.000000000000
         C           -0.853471775555    -4.360331091415     1.325089049943    12.000000000000
         N           -0.813471775555    -0.242331091415     1.171089049943    14.003074004430
         H            0.872528224445     0.958668908585     0.501089049943     1.007825032230
         H           -1.545471775555     0.470668908585     1.245089049943     1.007825032230
         H            2.553528224445    -1.063331091415    -1.000910950057     1.007825032230
         H            2.783528224445    -2.446331091415     0.057089049943     1.007825032230
         H           -3.029471775555    -1.813331091415     1.984089049943     1.007825032230
         H            1.184528224445    -4.136331091415     0.627089049943     1.007825032230
         H           -2.881471775555    -4.268331091415     2.000089049943     1.007825032230
         H           -0.811471775555    -5.435331091415     1.366089049943     1.007825032230
         H            3.315288224445    -0.825419091415     0.583139049943     1.007825032230
         C            2.336528224445     4.170668908585    -1.355910950057    12.000000000000
         C           -1.276471775555     1.954668908585    -1.540910950057    12.000000000000
         C           -1.223471775555     3.088668908585    -0.744910950057    12.000000000000
         C           -0.184471775555     1.507668908585    -2.262910950057    12.000000000000
         C           -0.041471775555     3.805668908585    -0.664910950057    12.000000000000
         C            1.003528224445     2.230668908585    -2.182910950057    12.000000000000
         C            1.070528224445     3.368668908585    -1.394910950057    12.000000000000
         H           -2.203471775555     1.400668908585    -1.594910950057     1.007825032230
         H           -2.094471775555     3.409668908585    -0.192910950057     1.007825032230
         H           -0.253471775555     0.624668908585    -2.881910950057     1.007825032230
         H            0.011528224445     4.697668908585    -0.056910950057     1.007825032230
         H            1.865528224445     1.905668908585    -2.747910950057     1.007825032230
         H            2.072528224445     5.227668908585    -1.394910950057     1.007825032230
         H            2.898528224445     3.952668908585    -2.265910950057     1.007825032230
         H            3.010838224445     4.009151908585    -0.501970950057     1.007825032230

  Running in c1 symmetry.

  Rotational constants: A =      0.03372  B =      0.00785  C =      0.00697 [cm^-1]
  Rotational constants: A =   1010.80566  B =    235.47117  C =    208.85916 [MHz]
  Nuclear repulsion = 1085.600331937907868

  Charge       = 0
  Multiplicity = 1
  Electrons    = 120
  Nalpha       = 60
  Nbeta        = 60

  ==> Algorithm <==

  SCF Algorithm Type is PK.
  DIIS enabled.
  MOM disabled.
  Fractional occupation disabled.
  Guess Type is SAD.
  Energy threshold   = 1.00e-06
  Density threshold  = 1.00e-10
  Integral threshold = 0.00e+00

  ==> Primary Basis <==

  Basis Set: CC-PVDZ
    Blend: CC-PVDZ
    Number of shells: 153
    Number of basis function: 323
    Number of Cartesian functions: 340
    Spherical Harmonics?: true
    Max angular momentum: 2

  ==> Pre-Iterations <==

   -------------------------------------------------------
    Irrep   Nso     Nmo     Nalpha   Nbeta   Ndocc  Nsocc
   -------------------------------------------------------
     A        323     323       0       0       0       0
   -------------------------------------------------------
    Total     323     323      60      60      60       0
   -------------------------------------------------------

  ==> Integral Setup <==

  Using integral reordering PK algorithm.
  Sizing the integral batches needed.
  Building batch lookup table.
   Calculation information:
      Number of atoms:                  34
      Number of AO shells:             153
      Number of primitives:            459
      Number of atomic orbitals:       340
      Number of basis functions:       323

      Integral cutoff                 1.00e-12
      Number of threads:                 1

	Batch   1 pq = [       0,    9405] index = [             0,44231715] size =     44231715
	Batch   2 pq = [    9405,   13301] index = [      44231715,88464951] size =     44233236
	Batch   3 pq = [   13301,   16290] index = [      88464951,132690195] size =     44225244
	Batch   4 pq = [   16290,   18810] index = [     132690195,176917455] size =     44227260
	Batch   5 pq = [   18810,   21030] index = [     176917455,221140965] size =     44223510
	Batch   6 pq = [   21030,   23037] index = [     221140965,265363203] size =     44222238
	Batch   7 pq = [   23037,   24883] index = [     265363203,309594286] size =     44231083
	Batch   8 pq = [   24883,   26601] index = [     309594286,353819901] size =     44225615
	Batch   9 pq = [   26601,   28214] index = [     353819901,398029005] size =     44209104
	Batch  10 pq = [   28214,   29740] index = [     398029005,442248670] size =     44219665
	Batch  11 pq = [   29740,   31191] index = [     442248670,486454836] size =     44206166
	Batch  12 pq = [   31191,   32578] index = [     486454836,530679331] size =     44224495
	Batch  13 pq = [   32578,   33908] index = [     530679331,574893186] size =     44213855
	Batch  14 pq = [   33908,   35188] index = [     574893186,619115266] size =     44222080
	Batch  15 pq = [   35188,   36423] index = [     619115266,663335676] size =     44220410
	Batch  16 pq = [   36423,   37617] index = [     663335676,707538153] size =     44202477
	Batch  17 pq = [   37617,   38775] index = [     707538153,751769700] size =     44231547
	Batch  18 pq = [   38775,   39899] index = [     751769700,795985050] size =     44215350
	Batch  19 pq = [   39899,   40992] index = [     795985050,840192528] size =     44207478
	Batch  20 pq = [   40992,   42057] index = [     840192528,884416653] size =     44224125
	Batch  21 pq = [   42057,   43095] index = [     884416653,928611060] size =     44194407
	Batch  22 pq = [   43095,   44109] index = [     928611060,972823995] size =     44212935
	Batch  23 pq = [   44109,   45100] index = [     972823995,1017027550] size =     44203555
	Batch  24 pq = [   45100,   46070] index = [    1017027550,1061245485] size =     44217935
	Batch  25 pq = [   46070,   47020] index = [    1061245485,1105463710] size =     44218225
	Batch  26 pq = [   47020,   47951] index = [    1105463710,1149673176] size =     44209466
	Batch  27 pq = [   47951,   48864] index = [    1149673176,1193869680] size =     44196504
	Batch  28 pq = [   48864,   49761] index = [    1193869680,1238103441] size =     44233761
	Batch  29 pq = [   49761,   50642] index = [    1238103441,1282331403] size =     44227962
	Batch  30 pq = [   50642,   51508] index = [    1282331403,1326562786] size =     44231383
	Batch  31 pq = [   51508,   52326] index = [    1326562786,1369031301] size =     42468515
  Task number: 124
  Buffer size: 11059200
  Buffer per thread: 2
  We computed 76149733 shell quartets total.
  Whereas there are 69401871 unique shell quartets.
     9.72 percent of shell quartets recomputed by reordering.

  ==> DiskJK: Disk-Based J/K Matrices <==

    J tasked:                  Yes
    K tasked:                  Yes
    wK tasked:                  No
    Memory [MiB]:              375
    Schwarz Cutoff:          1E-12

    OpenMP threads:              1

  Minimum eigenvalue in the overlap matrix is 2.3800031381E-04.
  Using Symmetric Orthogonalization.

  SCF Guess: Superposition of Atomic Densities via on-the-fly atomic UHF.

  ==> Iterations <==

                        Total Energy        Delta E     RMS |[F,P]|

   @RHF iter SAD:  -669.61488161537886   -6.69615e+02   0.00000e+00
   @RHF iter   1:  -669.94749037201905   -3.32609e-01   2.14651e-03 DIIS
   @RHF iter   2:  -670.23921093832189   -2.91721e-01   9.13338e-04 DIIS
   @RHF iter   3:  -670.28570717782054   -4.64962e-02   2.44046e-04 DIIS
   @RHF iter   4:  -670.29004586840801   -4.33869e-03   1.09481e-04 DIIS
   @RHF iter   5:  -670.29073916421828   -6.93296e-04   1.73162e-05 DIIS
   @RHF iter   6:  -670.29077219554074   -3.30313e-05   7.19943e-06 DIIS
   @RHF iter   7:  -670.29077860199800   -6.40646e-06   2.73389e-06 DIIS
   @RHF iter   8:  -670.29078012765694   -1.52566e-06   1.12300e-06 DIIS
   @RHF iter   9:  -670.29078043095910   -3.03302e-07   5.01988e-07 DIIS
   @RHF iter  10:  -670.29078049226700   -6.13079e-08   2.15988e-07 DIIS
   @RHF iter  11:  -670.29078050830412   -1.60371e-08   8.85607e-08 DIIS
   @RHF iter  12:  -670.29078051058877   -2.28465e-09   3.23431e-08 DIIS
   @RHF iter  13:  -670.29078051081888   -2.30102e-10   1.11782e-08 DIIS
   @RHF iter  14:  -670.29078051082229   -3.41061e-12   4.61902e-09 DIIS
   @RHF iter  15:  -670.29078051083286   -1.05729e-11   1.99063e-09 DIIS
   @RHF iter  16:  -670.29078051083127    1.59162e-12   9.87479e-10 DIIS
   @RHF iter  17:  -670.29078051083741   -6.13909e-12   4.42455e-10 DIIS
   @RHF iter  18:  -670.29078051082786    9.54969e-12   1.53762e-10 DIIS
   @RHF iter  19:  -670.29078051082831   -4.54747e-13   6.23305e-11 DIIS
  Energy and wave function converged.

  ==> Post-Iterations <==

    Orbital Energies [Eh]
    ---------------------

    Doubly Occupied:

       1A    -15.594998     2A    -11.255996     3A    -11.253158
       4A    -11.247944     5A    -11.243917     6A    -11.241849
       7A    -11.240249     8A    -11.237699     9A    -11.236774
      10A    -11.233220    11A    -11.226552    12A    -11.223360
      13A    -11.222987    14A    -11.221117    15A    -11.216462
      16A    -11.215640    17A    -11.209352    18A     -1.289689
      19A     -1.164387    20A     -1.120660    21A     -1.066398
      22A     -1.053101    23A     -1.024019    24A     -0.989824
      25A     -0.979576    26A     -0.936708    27A     -0.926081
      28A     -0.835441    29A     -0.832765    30A     -0.803368
      31A     -0.795029    32A     -0.747061    33A     -0.714160
      34A     -0.699938    35A     -0.654290    36A     -0.640849
      37A     -0.639365    38A     -0.635328    39A     -0.597745
      40A     -0.596653    41A     -0.588846    42A     -0.583804
      43A     -0.581969    44A     -0.565653    45A     -0.558703
      46A     -0.547746    47A     -0.538595    48A     -0.532563
      49A     -0.518093    50A     -0.497260    51A     -0.496422
      52A     -0.487697    53A     -0.486152    54A     -0.466142
      55A     -0.454100    56A     -0.367300    57A     -0.343820
      58A     -0.330867    59A     -0.287971    60A     -0.265506

    Virtual:

      61A      0.122967    62A      0.132157    63A      0.134147
      64A      0.166650    65A      0.176553    66A      0.179690
      67A      0.194313    68A      0.200552    69A      0.213395
      70A      0.216021    71A      0.230687    72A      0.236581
      73A      0.240659    74A      0.244486    75A      0.255706
      76A      0.263313    77A      0.270954    78A      0.272654
      79A      0.286919    80A      0.295267    81A      0.315806
      82A      0.324735    83A      0.360111    84A      0.373361
      85A      0.379760    86A      0.389237    87A      0.409786
      88A      0.428800    89A      0.446476    90A      0.449732
      91A      0.455775    92A      0.469229    93A      0.471776
      94A      0.483828    95A      0.487806    96A      0.509682
      97A      0.531306    98A      0.563764    99A      0.579882
     100A      0.606915   101A      0.623020   102A      0.632439
     103A      0.640833   104A      0.645678   105A      0.659678
     106A      0.671372   107A      0.679457   108A      0.684599
     109A      0.696604   110A      0.698496   111A      0.702330
     112A      0.718505   113A      0.727254   114A      0.732621
     115A      0.738562   116A      0.743267   117A      0.745126
     118A      0.750985   119A      0.753166   120A      0.755461
     121A      0.760056   122A      0.768063   123A      0.768285
     124A      0.772955   125A      0.778511   126A      0.791391
     127A      0.806461   128A      0.823873   129A      0.831187
     130A      0.837126   131A      0.845441   132A      0.852701
     133A      0.853716   134A      0.861716   135A      0.868124
     136A      0.874459   137A      0.888177   138A      0.890422
     139A      0.891969   140A      0.896332   141A      0.906824
     142A      0.914800   143A      0.922132   144A      0.926659
     145A      0.933665   146A      0.944145   147A      0.954178
     148A      0.958615   149A      0.972156   150A      0.974625
     151A      0.994519   152A      0.994931   153A      1.003342
     154A      1.031050   155A      1.042564   156A      1.055473
     157A      1.066573   158A      1.093096   159A      1.108244
     160A      1.118671   161A      1.128487   162A      1.130499
     163A      1.139792   164A      1.142973   165A      1.154902
     166A      1.161152   167A      1.166685   168A      1.174254
     169A      1.207804   170A      1.215294   171A      1.219711
     172A      1.225248   173A      1.231345   174A      1.242176
     175A      1.247530   176A      1.258319   177A      1.269206
     178A      1.287419   179A      1.288472   180A      1.289120
     181A      1.305187   182A      1.309310   183A      1.319492
     184A      1.323058   185A      1.334444   186A      1.344369
     187A      1.349648   188A      1.370908   189A      1.390151
     190A      1.408400   191A      1.444827   192A      1.461453
     193A      1.495745   194A      1.505362   195A      1.532416
     196A      1.546171   197A      1.553427   198A      1.576257
     199A      1.591082   200A      1.613880   201A      1.635770
     202A      1.646728   203A      1.669663   204A      1.691636
     205A      1.694957   206A      1.699533   207A      1.707706
     208A      1.728259   209A      1.746435   210A      1.749554
     211A      1.761959   212A      1.763935   213A      1.770062
     214A      1.790225   215A      1.794373   216A      1.817065
     217A      1.826336   218A      1.843954   219A      1.852745
     220A      1.861541   221A      1.880632   222A      1.888490
     223A      1.894205   224A      1.900255   225A      1.906027
     226A      1.908191   227A      1.910306   228A      1.917583
     229A      1.922457   230A      1.931612   231A      1.938795
     232A      1.941954   233A      1.948388   234A      1.955054
     235A      1.970381   236A      1.976118   237A      1.984457
     238A      1.995195   239A      1.996662   240A      2.009100
     241A      2.017333   242A      2.026340   243A      2.028038
     244A      2.044053   245A      2.045827   246A      2.063943
     247A      2.071442   248A      2.082377   249A      2.096755
     250A      2.109795   251A      2.112648   252A      2.120104
     253A      2.136136   254A      2.147773   255A      2.154955
     256A      2.161316   257A      2.168483   258A      2.170805
     259A      2.180514   260A      2.184825   261A      2.192093
     262A      2.197457   263A      2.231086   264A      2.246385
     265A      2.267503   266A      2.275012   267A      2.285145
     268A      2.296629   269A      2.300759   270A      2.313263
     271A      2.319212   272A      2.325100   273A      2.340059
     274A      2.348712   275A      2.362101   276A      2.401168
     277A      2.422577   278A      2.458525   279A      2.464183
     280A      2.467149   281A      2.476087   282A      2.505843
     283A      2.543621   284A      2.554204   285A      2.593658
     286A      2.603539   287A      2.609210   288A      2.640892
     289A      2.672398   290A      2.690816   291A      2.738872
     292A      2.754288   293A      2.762862   294A      2.767402
     295A      2.776201   296A      2.780359   297A      2.785100
     298A      2.795662   299A      2.796539   300A      2.809514
     301A      2.815211   302A      2.860697   303A      2.863933
     304A      2.872488   305A      2.878532   306A      2.952897
     307A      2.977992   308A      2.986623   309A      3.012899
     310A      3.031028   311A      3.045274   312A      3.069150
     313A      3.089648   314A      3.118879   315A      3.150377
     316A      3.201642   317A      3.221284   318A      3.304866
     319A      3.315987   320A      3.371801   321A      3.750167
     322A      3.956975   323A      3.980316

    Final Occupation by Irrep:
              A
    DOCC [    60 ]

  @RHF Final Energy:  -670.29078051082831

   => Energetics <=

    Nuclear Repulsion Energy =           1085.6003319379078675
    One-Electron Energy =               -3062.6563860753240078
    Two-Electron Energy =                1306.7652736265879412
    Total Energy =                       -670.2907805108281991

Computation Completed

Properties will be evaluated at   0.000000,   0.000000,   0.000000 [a0]

Properties computed using the SCF density matrix

  Nuclear Dipole Moment: [e a0]
     X:     7.2669      Y:     6.2525      Z:    -4.0106

  Electronic Dipole Moment: [e a0]
     X:    -7.3014      Y:    -5.2123      Z:     3.7629

  Dipole Moment: [e a0]
     X:    -0.0345      Y:     1.0402      Z:    -0.2477     Total:     1.0698

  Dipole Moment: [D]
     X:    -0.0878      Y:     2.6439      Z:    -0.6295     Total:     2.7193

*** tstop() called on ds3 at Mon Apr 27 12:38:10 2020
Module time:
	user time   =     697.47 seconds =      11.62 minutes
	system time =     260.98 seconds =       4.35 minutes
	total time  =       6121 seconds =     102.02 minutes
Total time:
	user time   =     697.47 seconds =      11.62 minutes
	system time =     260.98 seconds =       4.35 minutes
	total time  =       6121 seconds =     102.02 minutes
                                     G D M A

                                 by Anthony Stone

                           version 2.2.06, 22 June 2011

               Distributed Multipoles from Gaussian wavefunctions

Starting at 12:38:11 on 27 Apr 2020

Using SCF density matrix from file ./SSI/SSI-030TRP-103PHE-1-dimer.test.2772.fchk

                         Distributed Multipole Analysis

Standard DMA

Positions and radii in angstrom
Multipole moments in atomic units, ea_0^k for rank k

C          x =  2.537528  y = -1.383331  z =  0.041089 angstrom
           Maximum rank =  0   Radius =  0.650 angstrom
                   Q00  =  -0.221296

C          x =  0.464528  y = -0.022331  z =  0.721089 angstrom
           Maximum rank =  0   Radius =  0.650 angstrom
                   Q00  =   0.090588

C          x =  1.138528  y = -1.194331  z =  0.549089 angstrom
           Maximum rank =  0   Radius =  0.650 angstrom
                   Q00  =  -0.132829

C          x = -1.006472  y = -1.586331  z =  1.290089 angstrom
           Maximum rank =  0   Radius =  0.650 angstrom
                   Q00  =   0.235341

C          x =  0.199528  y = -2.225331  z =  0.901089 angstrom
           Maximum rank =  0   Radius =  0.650 angstrom
                   Q00  =  -0.045122

C          x = -2.120472  y = -2.312331  z =  1.693089 angstrom
           Maximum rank =  0   Radius =  0.650 angstrom
                   Q00  =  -0.118589

C          x =  0.275528  y = -3.630331  z =  0.917089 angstrom
           Maximum rank =  0   Radius =  0.650 angstrom
                   Q00  =  -0.105488

C          x = -2.021472  y = -3.689331  z =  1.702089 angstrom
           Maximum rank =  0   Radius =  0.650 angstrom
                   Q00  =  -0.002149

C          x = -0.853472  y = -4.360331  z =  1.325089 angstrom
           Maximum rank =  0   Radius =  0.650 angstrom
                   Q00  =  -0.102910

N          x = -0.813472  y = -0.242331  z =  1.171089 angstrom
           Maximum rank =  0   Radius =  0.650 angstrom
                   Q00  =  -0.490236

H          x =  0.872528  y =  0.958669  z =  0.501089 angstrom
           Maximum rank =  0   Radius =  0.325 angstrom
                   Q00  =   0.099719

H          x = -1.545472  y =  0.470669  z =  1.245089 angstrom
           Maximum rank =  0   Radius =  0.325 angstrom
                   Q00  =   0.223419

H          x =  2.553528  y = -1.063331  z = -1.000911 angstrom
           Maximum rank =  0   Radius =  0.325 angstrom
                   Q00  =   0.095757

H          x =  2.783528  y = -2.446331  z =  0.057089 angstrom
           Maximum rank =  0   Radius =  0.325 angstrom
                   Q00  =   0.108567

H          x = -3.029472  y = -1.813331  z =  1.984089 angstrom
           Maximum rank =  0   Radius =  0.325 angstrom
                   Q00  =   0.069490

H          x =  1.184528  y = -4.136331  z =  0.627089 angstrom
           Maximum rank =  0   Radius =  0.325 angstrom
                   Q00  =   0.068856

H          x = -2.881472  y = -4.268331  z =  2.000089 angstrom
           Maximum rank =  0   Radius =  0.325 angstrom
                   Q00  =   0.058553

H          x = -0.811472  y = -5.435331  z =  1.366089 angstrom
           Maximum rank =  0   Radius =  0.325 angstrom
                   Q00  =   0.059873

H          x =  3.315288  y = -0.825419  z =  0.583139 angstrom
           Maximum rank =  0   Radius =  0.325 angstrom
                   Q00  =   0.104676

C          x =  2.336528  y =  4.170669  z = -1.355911 angstrom
           Maximum rank =  0   Radius =  0.650 angstrom
                   Q00  =  -0.197786

C          x = -1.276472  y =  1.954669  z = -1.540911 angstrom
           Maximum rank =  0   Radius =  0.650 angstrom
                   Q00  =   0.004396

C          x = -1.223472  y =  3.088669  z = -0.744911 angstrom
           Maximum rank =  0   Radius =  0.650 angstrom
                   Q00  =  -0.084355

C          x = -0.184472  y =  1.507669  z = -2.262911 angstrom
           Maximum rank =  0   Radius =  0.650 angstrom
                   Q00  =  -0.059858

C          x = -0.041472  y =  3.805669  z = -0.664911 angstrom
           Maximum rank =  0   Radius =  0.650 angstrom
                   Q00  =  -0.102902

C          x =  1.003528  y =  2.230669  z = -2.182911 angstrom
           Maximum rank =  0   Radius =  0.650 angstrom
                   Q00  =  -0.090386

C          x =  1.070528  y =  3.368669  z = -1.394911 angstrom
           Maximum rank =  0   Radius =  0.650 angstrom
                   Q00  =  -0.079856

H          x = -2.203472  y =  1.400669  z = -1.594911 angstrom
           Maximum rank =  0   Radius =  0.325 angstrom
                   Q00  =   0.057499

H          x = -2.094472  y =  3.409669  z = -0.192911 angstrom
           Maximum rank =  0   Radius =  0.325 angstrom
                   Q00  =   0.062465

H          x = -0.253472  y =  0.624669  z = -2.881911 angstrom
           Maximum rank =  0   Radius =  0.325 angstrom
                   Q00  =   0.075255

H          x =  0.011528  y =  4.697669  z = -0.056911 angstrom
           Maximum rank =  0   Radius =  0.325 angstrom
                   Q00  =   0.061711

H          x =  1.865528  y =  1.905669  z = -2.747911 angstrom
           Maximum rank =  0   Radius =  0.325 angstrom
                   Q00  =   0.061356

H          x =  2.072528  y =  5.227669  z = -1.394911 angstrom
           Maximum rank =  0   Radius =  0.325 angstrom
                   Q00  =   0.097279

H          x =  2.898528  y =  3.952669  z = -2.265911 angstrom
           Maximum rank =  0   Radius =  0.325 angstrom
                   Q00  =   0.094769

H          x =  3.010838  y =  4.009152  z = -0.501971 angstrom
           Maximum rank =  0   Radius =  0.325 angstrom
                   Q00  =   0.104192

Total multipoles referred to origin at
           x =   0.000000,  y =    0.000000,  z =    0.000000 angstrom
                   Q00  =  -0.000000

Finished at 12:38:11 on 27 Apr 2020

  DMA results are available in the Python driver through the
	  variable('DMA DISTRIBUTED MULTIPOLES')
  and
	  variable('DMA TOTAL MULTIPOLES')
  commands.

    Psi4 stopped on: Monday, 27 April 2020 12:38PM
    Psi4 wall time for execution: 1:42:02.08

*** Psi4 exiting successfully. Buy a developer a beer!
