                               Psi4 1.3.2 release

  ==> Input File <==

--------------------------------------------------------------------------
import numpy as np
set {scf_type pk
basis cc-pvdz
d_convergence 10
gdma_switch   0
gdma_limit    0
gdma_origin   [ 0.0,  0.0,  0.0 ]
}
molecule test {
    units Angstrom
    1 1
    --
    1 1
    C               -0.613095032457025    -0.105491942482276     2.635523017421182
    C                0.205904967542975     1.489508057517724     0.874523017421182
    C               -0.845095032457025     0.758508057517724     1.426523017421182
    C               -0.001095032457025     2.314508057517723    -0.228476982578818
    C               -2.116095032457025     0.874508057517724     0.871523017421182
    C               -1.267095032457024     2.410508057517724    -0.798476982578818
    C               -2.328095032457025     1.682508057517724    -0.254476982578818
    H                1.198904967542975     1.411508057517724     1.294523017421182
    H                0.822904967542975     2.874508057517724    -0.647476982578818
    H                0.407904967542975    -0.483491942482276     2.600523017421181
    H               -1.275095032457025    -0.969491942482276     2.604523017421181
    H               -2.954095032457024     0.370508057517724     1.317523017421182
    H               -1.428095032457025     3.046508057517724    -1.660476982578818
    H               -3.316095032457025     1.758508057517724    -0.689476982578818
    H               -0.749033032457024     0.420279057517724     3.592123017421182
    C                1.932904967542975    -2.438491942482277     0.814523017421182
    C                1.053904967542975    -1.439491942482276    -1.255476982578818
    N                1.867904967542975    -1.412491942482276    -0.219476982578818
    N                0.262904967542975    -2.474491942482277    -1.453476982578818
    N                1.052904967542976    -0.425491942482276    -2.089476982578818
    H                2.517904967542976    -0.625491942482276    -0.159476982578818
    H                0.303904967542975    -3.263491942482276    -0.831476982578818
    H               -0.346095032457025    -2.501491942482276    -2.255476982578818
    H                1.693904967542976     0.344508057517724    -1.917476982578818
    H                0.432904967542975    -0.404491942482276    -2.881476982578818
    H                2.271904967542975    -3.387491942482276     0.392523017421182
    H                0.936904967542975    -2.578491942482276     1.242523017421182
    H                2.609354967542975    -2.135430942482277     1.627273017421182

}
e, wfn = energy('scf', return_wfn=True)
gdma(wfn)
dmavals = variable('DMA DISTRIBUTED MULTIPOLES')
charges = np.array(dmavals)
print(charges)
np.save('SSI-006PHE-018ARG-1-dimer.npy', np.array(charges))--------------------------------------------------------------------------

*** tstart() called on ds3
*** at Mon Apr 27 22:18:51 2020

   => Loading Basis Set <=

    Name: CC-PVDZ
    Role: ORBITAL
    Keyword: BASIS
    atoms 1-7, 16-17  entry C          line   138 file /theoryfs2/ds/metcalf/miniconda2/envs/tf2gpu/share/psi4/basis/cc-pvdz.gbs
    atoms 8-15, 21-28 entry H          line    22 file /theoryfs2/ds/metcalf/miniconda2/envs/tf2gpu/share/psi4/basis/cc-pvdz.gbs
    atoms 18-20       entry N          line   168 file /theoryfs2/ds/metcalf/miniconda2/envs/tf2gpu/share/psi4/basis/cc-pvdz.gbs

         ---------------------------------------------------------
                                   SCF
               by Justin Turney, Rob Parrish, Andy Simmonett
                          and Daniel G. A. Smith
                              RHF Reference
                        1 Threads,    500 MiB Core
         ---------------------------------------------------------

  ==> Geometry <==

    Molecular point group: c1
    Full point group: C1

    Geometry (in Angstrom), charge = 1, multiplicity = 1:

       Center              X                  Y                   Z               Mass
    ------------   -----------------  -----------------  -----------------  -----------------
         C           -0.613095032457    -0.105491942482     2.635523017421    12.000000000000
         C            0.205904967543     1.489508057518     0.874523017421    12.000000000000
         C           -0.845095032457     0.758508057518     1.426523017421    12.000000000000
         C           -0.001095032457     2.314508057518    -0.228476982579    12.000000000000
         C           -2.116095032457     0.874508057518     0.871523017421    12.000000000000
         C           -1.267095032457     2.410508057518    -0.798476982579    12.000000000000
         C           -2.328095032457     1.682508057518    -0.254476982579    12.000000000000
         H            1.198904967543     1.411508057518     1.294523017421     1.007825032230
         H            0.822904967543     2.874508057518    -0.647476982579     1.007825032230
         H            0.407904967543    -0.483491942482     2.600523017421     1.007825032230
         H           -1.275095032457    -0.969491942482     2.604523017421     1.007825032230
         H           -2.954095032457     0.370508057518     1.317523017421     1.007825032230
         H           -1.428095032457     3.046508057518    -1.660476982579     1.007825032230
         H           -3.316095032457     1.758508057518    -0.689476982579     1.007825032230
         H           -0.749033032457     0.420279057518     3.592123017421     1.007825032230
         C            1.932904967543    -2.438491942482     0.814523017421    12.000000000000
         C            1.053904967543    -1.439491942482    -1.255476982579    12.000000000000
         N            1.867904967543    -1.412491942482    -0.219476982579    14.003074004430
         N            0.262904967543    -2.474491942482    -1.453476982579    14.003074004430
         N            1.052904967543    -0.425491942482    -2.089476982579    14.003074004430
         H            2.517904967543    -0.625491942482    -0.159476982579     1.007825032230
         H            0.303904967543    -3.263491942482    -0.831476982579     1.007825032230
         H           -0.346095032457    -2.501491942482    -2.255476982579     1.007825032230
         H            1.693904967543     0.344508057518    -1.917476982579     1.007825032230
         H            0.432904967543    -0.404491942482    -2.881476982579     1.007825032230
         H            2.271904967543    -3.387491942482     0.392523017421     1.007825032230
         H            0.936904967543    -2.578491942482     1.242523017421     1.007825032230
         H            2.609354967543    -2.135430942482     1.627273017421     1.007825032230

  Running in c1 symmetry.

  Rotational constants: A =      0.03995  B =      0.02033  C =      0.01699 [cm^-1]
  Rotational constants: A =   1197.53243  B =    609.38224  C =    509.30888 [MHz]
  Nuclear repulsion =  704.111008086369338

  Charge       = 1
  Multiplicity = 1
  Electrons    = 90
  Nalpha       = 45
  Nbeta        = 45

  ==> Algorithm <==

  SCF Algorithm Type is PK.
  DIIS enabled.
  MOM disabled.
  Fractional occupation disabled.
  Guess Type is SAD.
  Energy threshold   = 1.00e-06
  Density threshold  = 1.00e-10
  Integral threshold = 0.00e+00

  ==> Primary Basis <==

  Basis Set: CC-PVDZ
    Blend: CC-PVDZ
    Number of shells: 120
    Number of basis function: 248
    Number of Cartesian functions: 260
    Spherical Harmonics?: true
    Max angular momentum: 2

  ==> Pre-Iterations <==

   -------------------------------------------------------
    Irrep   Nso     Nmo     Nalpha   Nbeta   Ndocc  Nsocc
   -------------------------------------------------------
     A        248     248       0       0       0       0
   -------------------------------------------------------
    Total     248     248      45      45      45       0
   -------------------------------------------------------

  ==> Integral Setup <==

  Using integral reordering PK algorithm.
  Sizing the integral batches needed.
  Building batch lookup table.
   Calculation information:
      Number of atoms:                  28
      Number of AO shells:             120
      Number of primitives:            344
      Number of atomic orbitals:       260
      Number of basis functions:       248

      Integral cutoff                 1.00e-12
      Number of threads:                 1

	Batch   1 pq = [       0,    9405] index = [             0,44231715] size =     44231715
	Batch   2 pq = [    9405,   13301] index = [      44231715,88464951] size =     44233236
	Batch   3 pq = [   13301,   16290] index = [      88464951,132690195] size =     44225244
	Batch   4 pq = [   16290,   18810] index = [     132690195,176917455] size =     44227260
	Batch   5 pq = [   18810,   21030] index = [     176917455,221140965] size =     44223510
	Batch   6 pq = [   21030,   23037] index = [     221140965,265363203] size =     44222238
	Batch   7 pq = [   23037,   24883] index = [     265363203,309594286] size =     44231083
	Batch   8 pq = [   24883,   26601] index = [     309594286,353819901] size =     44225615
	Batch   9 pq = [   26601,   28214] index = [     353819901,398029005] size =     44209104
	Batch  10 pq = [   28214,   29740] index = [     398029005,442248670] size =     44219665
	Batch  11 pq = [   29740,   30876] index = [     442248670,476679126] size =     34430456
  Task number: 44
  Buffer size: 11059200
  Buffer per thread: 2
  We computed 29309175 shell quartets total.
  Whereas there are 26357430 unique shell quartets.
    11.20 percent of shell quartets recomputed by reordering.

  ==> DiskJK: Disk-Based J/K Matrices <==

    J tasked:                  Yes
    K tasked:                  Yes
    wK tasked:                  No
    Memory [MiB]:              375
    Schwarz Cutoff:          1E-12

    OpenMP threads:              1

  Minimum eigenvalue in the overlap matrix is 3.1373695779E-04.
  Using Symmetric Orthogonalization.

  SCF Guess: Superposition of Atomic Densities via on-the-fly atomic UHF.

  ==> Iterations <==

                        Total Energy        Delta E     RMS |[F,P]|

   @RHF iter SAD:  -512.66959825464301   -5.12670e+02   0.00000e+00
   @RHF iter   1:  -513.08219993649550   -4.12602e-01   2.58044e-03 DIIS
   @RHF iter   2:  -513.31204998473720   -2.29850e-01   1.00554e-03 DIIS
   @RHF iter   3:  -513.34376699981942   -3.17170e-02   2.49883e-04 DIIS
   @RHF iter   4:  -513.34686151998676   -3.09452e-03   4.89861e-05 DIIS
   @RHF iter   5:  -513.34696672731093   -1.05207e-04   1.83636e-05 DIIS
   @RHF iter   6:  -513.34698139018496   -1.46629e-05   5.59207e-06 DIIS
   @RHF iter   7:  -513.34698291565178   -1.52547e-06   1.76231e-06 DIIS
   @RHF iter   8:  -513.34698311089312   -1.95241e-07   4.09597e-07 DIIS
   @RHF iter   9:  -513.34698312183139   -1.09383e-08   1.34323e-07 DIIS
   @RHF iter  10:  -513.34698312283160   -1.00022e-09   4.68585e-08 DIIS
   @RHF iter  11:  -513.34698312304079   -2.09184e-10   1.87777e-08 DIIS
   @RHF iter  12:  -513.34698312309547   -5.46834e-11   1.05388e-08 DIIS
   @RHF iter  13:  -513.34698312311048   -1.50067e-11   4.45519e-09 DIIS
   @RHF iter  14:  -513.34698312311343   -2.95586e-12   1.35935e-09 DIIS
   @RHF iter  15:  -513.34698312311275    6.82121e-13   5.27358e-10 DIIS
   @RHF iter  16:  -513.34698312311207    6.82121e-13   1.63709e-10 DIIS
   @RHF iter  17:  -513.34698312311457   -2.50111e-12   6.18939e-11 DIIS
  Energy and wave function converged.

  ==> Post-Iterations <==

    Orbital Energies [Eh]
    ---------------------

    Doubly Occupied:

       1A    -15.782144     2A    -15.777989     3A    -15.776885
       4A    -11.578800     5A    -11.437118     6A    -11.348478
       7A    -11.344849     8A    -11.341722     9A    -11.341226
      10A    -11.338110    11A    -11.336183    12A    -11.334221
      13A     -1.540923    14A     -1.395004    15A     -1.386025
      16A     -1.259580    17A     -1.151125    18A     -1.136915
      19A     -1.118275    20A     -1.037625    21A     -1.030358
      22A     -0.969965    23A     -0.934997    24A     -0.932276
      25A     -0.902247    26A     -0.853189    27A     -0.849168
      28A     -0.821504    29A     -0.796912    30A     -0.789468
      31A     -0.740101    32A     -0.737835    33A     -0.735454
      34A     -0.717703    35A     -0.689188    36A     -0.680763
      37A     -0.668997    38A     -0.641457    39A     -0.612620
      40A     -0.593177    41A     -0.590052    42A     -0.587953
      43A     -0.577246    44A     -0.439454    45A     -0.429893

    Virtual:

      46A     -0.006488    47A      0.021280    48A      0.023796
      49A      0.033641    50A      0.035604    51A      0.040866
      52A      0.066819    53A      0.079833    54A      0.097787
      55A      0.106712    56A      0.122552    57A      0.125501
      58A      0.134335    59A      0.135723    60A      0.154541
      61A      0.166956    62A      0.174428    63A      0.181039
      64A      0.196788    65A      0.215964    66A      0.263404
      67A      0.272414    68A      0.286192    69A      0.337709
      70A      0.344350    71A      0.349551    72A      0.356539
      73A      0.377605    74A      0.384390    75A      0.433889
      76A      0.453890    77A      0.477111    78A      0.486503
      79A      0.508016    80A      0.509427    81A      0.529198
      82A      0.537274    83A      0.544758    84A      0.554827
      85A      0.574766    86A      0.579291    87A      0.600007
      88A      0.613388    89A      0.628514    90A      0.634386
      91A      0.634799    92A      0.643031    93A      0.650837
      94A      0.664956    95A      0.670196    96A      0.697838
      97A      0.700713    98A      0.714982    99A      0.719750
     100A      0.733650   101A      0.736785   102A      0.747809
     103A      0.754149   104A      0.759005   105A      0.772931
     106A      0.777432   107A      0.785043   108A      0.790096
     109A      0.799296   110A      0.808933   111A      0.826711
     112A      0.835760   113A      0.864041   114A      0.872130
     115A      0.879413   116A      0.886315   117A      0.895555
     118A      0.918135   119A      0.930786   120A      0.936189
     121A      0.947564   122A      0.962913   123A      1.001111
     124A      1.020207   125A      1.033949   126A      1.044345
     127A      1.050891   128A      1.065514   129A      1.081355
     130A      1.108490   131A      1.122318   132A      1.138009
     133A      1.138834   134A      1.154147   135A      1.155722
     136A      1.162834   137A      1.192914   138A      1.201490
     139A      1.204612   140A      1.211051   141A      1.227780
     142A      1.230676   143A      1.255196   144A      1.297128
     145A      1.308746   146A      1.388148   147A      1.410121
     148A      1.433910   149A      1.448678   150A      1.483908
     151A      1.499271   152A      1.511444   153A      1.522037
     154A      1.534776   155A      1.574263   156A      1.587141
     157A      1.596609   158A      1.618733   159A      1.633891
     160A      1.642315   161A      1.657585   162A      1.671221
     163A      1.688857   164A      1.705212   165A      1.714038
     166A      1.733610   167A      1.736906   168A      1.758688
     169A      1.767275   170A      1.779371   171A      1.785505
     172A      1.792990   173A      1.801171   174A      1.810915
     175A      1.817668   176A      1.821573   177A      1.836158
     178A      1.841366   179A      1.849866   180A      1.858363
     181A      1.865835   182A      1.878288   183A      1.887409
     184A      1.889342   185A      1.900076   186A      1.936758
     187A      1.968987   188A      1.969953   189A      2.007409
     190A      2.034694   191A      2.042839   192A      2.043626
     193A      2.052249   194A      2.056019   195A      2.067339
     196A      2.069291   197A      2.083006   198A      2.112805
     199A      2.146599   200A      2.156568   201A      2.174960
     202A      2.186801   203A      2.198412   204A      2.204779
     205A      2.215041   206A      2.220932   207A      2.256799
     208A      2.272350   209A      2.300263   210A      2.326133
     211A      2.332284   212A      2.360527   213A      2.369268
     214A      2.378766   215A      2.386403   216A      2.444085
     217A      2.451149   218A      2.473592   219A      2.515347
     220A      2.561637   221A      2.595357   222A      2.609760
     223A      2.633756   224A      2.649044   225A      2.658787
     226A      2.676022   227A      2.681921   228A      2.705604
     229A      2.722766   230A      2.753255   231A      2.774515
     232A      2.783035   233A      2.803994   234A      2.831973
     235A      2.850309   236A      2.878760   237A      2.893592
     238A      2.909869   239A      2.925219   240A      3.046587
     241A      3.074626   242A      3.090994   243A      3.115338
     244A      3.145304   245A      3.189710   246A      3.585921
     247A      3.658501   248A      3.854126

    Final Occupation by Irrep:
              A
    DOCC [    45 ]

  @RHF Final Energy:  -513.34698312311457

   => Energetics <=

    Nuclear Repulsion Energy =            704.1110080863693383
    One-Electron Energy =               -2078.7456356013371988
    Two-Electron Energy =                 861.2876443918532914
    Total Energy =                       -513.3469831231145690

Computation Completed

Properties will be evaluated at   0.000000,   0.000000,   0.000000 [a0]

Properties computed using the SCF density matrix

  Nuclear Dipole Moment: [e a0]
     X:     2.9231      Y:    -5.7276      Z:     3.4127

  Electronic Dipole Moment: [e a0]
     X:    -1.1779      Y:     3.0807      Z:    -5.2580

  Dipole Moment: [e a0]
     X:     1.7453      Y:    -2.6470      Z:    -1.8453     Total:     3.6684

  Dipole Moment: [D]
     X:     4.4361      Y:    -6.7279      Z:    -4.6902     Total:     9.3242

*** tstop() called on ds3 at Mon Apr 27 22:24:49 2020
Module time:
	user time   =     220.83 seconds =       3.68 minutes
	system time =      74.16 seconds =       1.24 minutes
	total time  =        358 seconds =       5.97 minutes
Total time:
	user time   =     220.83 seconds =       3.68 minutes
	system time =      74.16 seconds =       1.24 minutes
	total time  =        358 seconds =       5.97 minutes
                                     G D M A

                                 by Anthony Stone

                           version 2.2.06, 22 June 2011

               Distributed Multipoles from Gaussian wavefunctions

Starting at 22:24:49 on 27 Apr 2020

Using SCF density matrix from file ./SSI/SSI-006PHE-018ARG-1-dimer.test.7082.fchk

                         Distributed Multipole Analysis

Standard DMA

Positions and radii in angstrom
Multipole moments in atomic units, ea_0^k for rank k

C          x = -0.613095  y = -0.105492  z =  2.635523 angstrom
           Maximum rank =  0   Radius =  0.650 angstrom
                   Q00  =  -0.201644

C          x =  0.205905  y =  1.489508  z =  0.874523 angstrom
           Maximum rank =  0   Radius =  0.650 angstrom
                   Q00  =  -0.021665

C          x = -0.845095  y =  0.758508  z =  1.426523 angstrom
           Maximum rank =  0   Radius =  0.650 angstrom
                   Q00  =  -0.102994

C          x = -0.001095  y =  2.314508  z = -0.228477 angstrom
           Maximum rank =  0   Radius =  0.650 angstrom
                   Q00  =  -0.100794

C          x = -2.116095  y =  0.874508  z =  0.871523 angstrom
           Maximum rank =  0   Radius =  0.650 angstrom
                   Q00  =  -0.091179

C          x = -1.267095  y =  2.410508  z = -0.798477 angstrom
           Maximum rank =  0   Radius =  0.650 angstrom
                   Q00  =  -0.082844

C          x = -2.328095  y =  1.682508  z = -0.254477 angstrom
           Maximum rank =  0   Radius =  0.650 angstrom
                   Q00  =  -0.059976

H          x =  1.198905  y =  1.411508  z =  1.294523 angstrom
           Maximum rank =  0   Radius =  0.325 angstrom
                   Q00  =   0.047421

H          x =  0.822905  y =  2.874508  z = -0.647477 angstrom
           Maximum rank =  0   Radius =  0.325 angstrom
                   Q00  =   0.066799

H          x =  0.407905  y = -0.483492  z =  2.600523 angstrom
           Maximum rank =  0   Radius =  0.325 angstrom
                   Q00  =   0.071068

H          x = -1.275095  y = -0.969492  z =  2.604523 angstrom
           Maximum rank =  0   Radius =  0.325 angstrom
                   Q00  =   0.098541

H          x = -2.954095  y =  0.370508  z =  1.317523 angstrom
           Maximum rank =  0   Radius =  0.325 angstrom
                   Q00  =   0.074369

H          x = -1.428095  y =  3.046508  z = -1.660477 angstrom
           Maximum rank =  0   Radius =  0.325 angstrom
                   Q00  =   0.077193

H          x = -3.316095  y =  1.758508  z = -0.689477 angstrom
           Maximum rank =  0   Radius =  0.325 angstrom
                   Q00  =   0.085697

H          x = -0.749033  y =  0.420279  z =  3.592123 angstrom
           Maximum rank =  0   Radius =  0.325 angstrom
                   Q00  =   0.133023

C          x =  1.932905  y = -2.438492  z =  0.814523 angstrom
           Maximum rank =  0   Radius =  0.650 angstrom
                   Q00  =  -0.124849

C          x =  1.053905  y = -1.439492  z = -1.255477 angstrom
           Maximum rank =  0   Radius =  0.650 angstrom
                   Q00  =   1.082840

N          x =  1.867905  y = -1.412492  z = -0.219477 angstrom
           Maximum rank =  0   Radius =  0.650 angstrom
                   Q00  =  -0.483289

N          x =  0.262905  y = -2.474492  z = -1.453477 angstrom
           Maximum rank =  0   Radius =  0.650 angstrom
                   Q00  =  -0.581596

N          x =  1.052905  y = -0.425492  z = -2.089477 angstrom
           Maximum rank =  0   Radius =  0.650 angstrom
                   Q00  =  -0.581384

H          x =  2.517905  y = -0.625492  z = -0.159477 angstrom
           Maximum rank =  0   Radius =  0.325 angstrom
                   Q00  =   0.234674

H          x =  0.303905  y = -3.263492  z = -0.831477 angstrom
           Maximum rank =  0   Radius =  0.325 angstrom
                   Q00  =   0.269779

H          x = -0.346095  y = -2.501492  z = -2.255477 angstrom
           Maximum rank =  0   Radius =  0.325 angstrom
                   Q00  =   0.266688

H          x =  1.693905  y =  0.344508  z = -1.917477 angstrom
           Maximum rank =  0   Radius =  0.325 angstrom
                   Q00  =   0.266950

H          x =  0.432905  y = -0.404492  z = -2.881477 angstrom
           Maximum rank =  0   Radius =  0.325 angstrom
                   Q00  =   0.267377

H          x =  2.271905  y = -3.387492  z =  0.392523 angstrom
           Maximum rank =  0   Radius =  0.325 angstrom
                   Q00  =   0.114454

H          x =  0.936905  y = -2.578492  z =  1.242523 angstrom
           Maximum rank =  0   Radius =  0.325 angstrom
                   Q00  =   0.111106

H          x =  2.609355  y = -2.135431  z =  1.627273 angstrom
           Maximum rank =  0   Radius =  0.325 angstrom
                   Q00  =   0.164234

Total multipoles referred to origin at
           x =   0.000000,  y =    0.000000,  z =    0.000000 angstrom
                   Q00  =   1.000000

Finished at 22:24:49 on 27 Apr 2020

  DMA results are available in the Python driver through the
	  variable('DMA DISTRIBUTED MULTIPOLES')
  and
	  variable('DMA TOTAL MULTIPOLES')
  commands.

    Psi4 stopped on: Monday, 27 April 2020 10:24PM
    Psi4 wall time for execution: 0:05:58.21

*** Psi4 exiting successfully. Buy a developer a beer!
