                               Psi4 1.3.2 release

  ==> Input File <==

--------------------------------------------------------------------------
import numpy as np
set {scf_type pk
basis cc-pvdz
d_convergence 10
gdma_switch   0
gdma_limit    0
gdma_origin   [ 0.0,  0.0,  0.0 ]
}
molecule test {
    units Angstrom
    -1 1
    --
    -1 1
    C                1.962045889927376    -2.149787360637332    -1.971142477809115
    C                2.187045889927376    -1.099787360637332    -0.893142477809114
    O                1.220045889927376    -0.841787360637332    -0.138142477809114
    O                3.330045889927375    -0.631787360637332    -0.716142477809114
    H                1.022045889927375    -1.936787360637332    -2.483142477809114
    H                1.847045889927376    -3.126787360637333    -1.507142477809114
    H                2.748389789927375    -2.168613360637333    -2.740112477809114
    C               -1.319954110072624     0.340212639362668     1.529857522190885
    C               -2.285954110072624     0.662212639362668     2.653857522190886
    C               -1.671954110072624     1.067212639362668     0.246857522190885
    O               -2.774954110072624     1.588212639362668     0.081857522190886
    N               -0.738954110072624     1.095212639362668    -0.685142477809114
    H               -0.313954110072624     0.621212639362668     1.839857522190885
    H               -1.320954110072624    -0.727787360637332     1.323857522190885
    H               -3.311954110072624     0.610212639362668     2.291857522190885
    H               -2.095954110072625     1.688212639362668     2.974857522190885
    H               -0.924954110072625     1.545212639362668    -1.566142477809115
    H                0.090045889927376     0.513212639362668    -0.529142477809114
    H               -2.205115110072625    -0.005437360637332     3.524327522190886

}
e, wfn = energy('scf', return_wfn=True)
gdma(wfn)
dmavals = variable('DMA DISTRIBUTED MULTIPOLES')
charges = np.array(dmavals)
print(charges)
np.save('SSI-013GLU-056GLN-1-dimer.npy', np.array(charges))--------------------------------------------------------------------------

*** tstart() called on ds3
*** at Mon Apr 27 23:28:07 2020

   => Loading Basis Set <=

    Name: CC-PVDZ
    Role: ORBITAL
    Keyword: BASIS
    atoms 1-2, 8-10  entry C          line   138 file /theoryfs2/ds/metcalf/miniconda2/envs/tf2gpu/share/psi4/basis/cc-pvdz.gbs
    atoms 3-4, 11    entry O          line   198 file /theoryfs2/ds/metcalf/miniconda2/envs/tf2gpu/share/psi4/basis/cc-pvdz.gbs
    atoms 5-7, 13-19 entry H          line    22 file /theoryfs2/ds/metcalf/miniconda2/envs/tf2gpu/share/psi4/basis/cc-pvdz.gbs
    atoms 12         entry N          line   168 file /theoryfs2/ds/metcalf/miniconda2/envs/tf2gpu/share/psi4/basis/cc-pvdz.gbs

         ---------------------------------------------------------
                                   SCF
               by Justin Turney, Rob Parrish, Andy Simmonett
                          and Daniel G. A. Smith
                              RHF Reference
                        1 Threads,    500 MiB Core
         ---------------------------------------------------------

  ==> Geometry <==

    Molecular point group: c1
    Full point group: C1

    Geometry (in Angstrom), charge = -1, multiplicity = 1:

       Center              X                  Y                   Z               Mass
    ------------   -----------------  -----------------  -----------------  -----------------
         C            1.962045889927    -2.149787360637    -1.971142477809    12.000000000000
         C            2.187045889927    -1.099787360637    -0.893142477809    12.000000000000
         O            1.220045889927    -0.841787360637    -0.138142477809    15.994914619570
         O            3.330045889927    -0.631787360637    -0.716142477809    15.994914619570
         H            1.022045889927    -1.936787360637    -2.483142477809     1.007825032230
         H            1.847045889927    -3.126787360637    -1.507142477809     1.007825032230
         H            2.748389789927    -2.168613360637    -2.740112477809     1.007825032230
         C           -1.319954110073     0.340212639363     1.529857522191    12.000000000000
         C           -2.285954110073     0.662212639363     2.653857522191    12.000000000000
         C           -1.671954110073     1.067212639363     0.246857522191    12.000000000000
         O           -2.774954110073     1.588212639363     0.081857522191    15.994914619570
         N           -0.738954110073     1.095212639363    -0.685142477809    14.003074004430
         H           -0.313954110073     0.621212639363     1.839857522191     1.007825032230
         H           -1.320954110073    -0.727787360637     1.323857522191     1.007825032230
         H           -3.311954110073     0.610212639363     2.291857522191     1.007825032230
         H           -2.095954110073     1.688212639363     2.974857522191     1.007825032230
         H           -0.924954110073     1.545212639363    -1.566142477809     1.007825032230
         H            0.090045889927     0.513212639363    -0.529142477809     1.007825032230
         H           -2.205115110073    -0.005437360637     3.524327522191     1.007825032230

  Running in c1 symmetry.

  Rotational constants: A =      0.10184  B =      0.01882  C =      0.01744 [cm^-1]
  Rotational constants: A =   3053.11853  B =    564.34046  C =    522.88940 [MHz]
  Nuclear repulsion =  432.038612762246032

  Charge       = -1
  Multiplicity = 1
  Electrons    = 72
  Nalpha       = 36
  Nbeta        = 36

  ==> Algorithm <==

  SCF Algorithm Type is PK.
  DIIS enabled.
  MOM disabled.
  Fractional occupation disabled.
  Guess Type is SAD.
  Energy threshold   = 1.00e-06
  Density threshold  = 1.00e-10
  Integral threshold = 0.00e+00

  ==> Primary Basis <==

  Basis Set: CC-PVDZ
    Blend: CC-PVDZ
    Number of shells: 84
    Number of basis function: 176
    Number of Cartesian functions: 185
    Spherical Harmonics?: true
    Max angular momentum: 2

  ==> Pre-Iterations <==

   -------------------------------------------------------
    Irrep   Nso     Nmo     Nalpha   Nbeta   Ndocc  Nsocc
   -------------------------------------------------------
     A        176     176       0       0       0       0
   -------------------------------------------------------
    Total     176     176      36      36      36       0
   -------------------------------------------------------

  ==> Integral Setup <==

  Using integral reordering PK algorithm.
  Sizing the integral batches needed.
  Building batch lookup table.
   Calculation information:
      Number of atoms:                  19
      Number of AO shells:              84
      Number of primitives:            248
      Number of atomic orbitals:       185
      Number of basis functions:       176

      Integral cutoff                 1.00e-12
      Number of threads:                 1

	Batch   1 pq = [       0,    9405] index = [             0,44231715] size =     44231715
	Batch   2 pq = [    9405,   13301] index = [      44231715,88464951] size =     44233236
	Batch   3 pq = [   13301,   15576] index = [      88464951,121313676] size =     32848725
  Task number: 11
  Buffer size: 11059200
  Buffer per thread: 2
  We computed 4747001 shell quartets total.
  Whereas there are 6374235 unique shell quartets.

  ==> DiskJK: Disk-Based J/K Matrices <==

    J tasked:                  Yes
    K tasked:                  Yes
    wK tasked:                  No
    Memory [MiB]:              375
    Schwarz Cutoff:          1E-12

    OpenMP threads:              1

  Minimum eigenvalue in the overlap matrix is 3.0856601354E-03.
  Using Symmetric Orthogonalization.

  SCF Guess: Superposition of Atomic Densities via on-the-fly atomic UHF.

  ==> Iterations <==

                        Total Energy        Delta E     RMS |[F,P]|

   @RHF iter SAD:  -472.54911346353782   -4.72549e+02   0.00000e+00
   @RHF iter   1:  -473.96479641834412   -1.41568e+00   4.77944e-03 DIIS
   @RHF iter   2:  -474.21681624565798   -2.52020e-01   2.74090e-03 DIIS
   @RHF iter   3:  -474.29968696548843   -8.28707e-02   4.36974e-04 DIIS
   @RHF iter   4:  -474.30337669149867   -3.68973e-03   1.77004e-04 DIIS
   @RHF iter   5:  -474.30401015974542   -6.33468e-04   3.43221e-05 DIIS
   @RHF iter   6:  -474.30404032771406   -3.01680e-05   1.76251e-05 DIIS
   @RHF iter   7:  -474.30404717626612   -6.84855e-06   4.82019e-06 DIIS
   @RHF iter   8:  -474.30404823217742   -1.05591e-06   2.17603e-06 DIIS
   @RHF iter   9:  -474.30404842730070   -1.95123e-07   8.16282e-07 DIIS
   @RHF iter  10:  -474.30404845217129   -2.48706e-08   2.40003e-07 DIIS
   @RHF iter  11:  -474.30404845372487   -1.55359e-09   8.57661e-08 DIIS
   @RHF iter  12:  -474.30404845387625   -1.51374e-10   2.40174e-08 DIIS
   @RHF iter  13:  -474.30404845389376   -1.75078e-11   7.33724e-09 DIIS
   @RHF iter  14:  -474.30404845389683   -3.06954e-12   2.47523e-09 DIIS
   @RHF iter  15:  -474.30404845389791   -1.08002e-12   1.02306e-09 DIIS
   @RHF iter  16:  -474.30404845389728    6.25278e-13   4.38035e-10 DIIS
   @RHF iter  17:  -474.30404845389648    7.95808e-13   1.76386e-10 DIIS
   @RHF iter  18:  -474.30404845389575    7.38964e-13   5.80233e-11 DIIS
  Energy and wave function converged.

  ==> Post-Iterations <==

    Orbital Energies [Eh]
    ---------------------

    Doubly Occupied:

       1A    -20.369870     2A    -20.295880     3A    -20.289675
       4A    -15.425135     5A    -11.205507     6A    -11.148024
       7A    -11.107227     8A    -11.103667     9A    -11.071883
      10A     -1.233572    11A     -1.183904    12A     -1.073074
      13A     -1.062243    14A     -0.921933    15A     -0.819786
      16A     -0.761202    17A     -0.635013    18A     -0.575172
      19A     -0.534401    20A     -0.526563    21A     -0.508188
      22A     -0.460080    23A     -0.435380    24A     -0.434154
      25A     -0.430569    26A     -0.420143    27A     -0.401067
      28A     -0.380532    29A     -0.365774    30A     -0.361347
      31A     -0.333461    32A     -0.277895    33A     -0.260025
      34A     -0.217287    35A     -0.203874    36A     -0.195796

    Virtual:

      37A      0.302014    38A      0.323447    39A      0.338651
      40A      0.344924    41A      0.364118    42A      0.373673
      43A      0.376579    44A      0.382648    45A      0.399466
      46A      0.432605    47A      0.454196    48A      0.506290
      49A      0.515015    50A      0.547649    51A      0.561060
      52A      0.602379    53A      0.673405    54A      0.684211
      55A      0.719251    56A      0.743376    57A      0.757608
      58A      0.785403    59A      0.799226    60A      0.833494
      61A      0.853057    62A      0.864481    63A      0.902154
      64A      0.931823    65A      0.945602    66A      0.947906
      67A      0.976655    68A      0.983318    69A      0.997835
      70A      1.000715    71A      1.007623    72A      1.012294
      73A      1.019505    74A      1.029703    75A      1.040083
      76A      1.051804    77A      1.058351    78A      1.066138
      79A      1.096552    80A      1.121708    81A      1.162181
      82A      1.182084    83A      1.196598    84A      1.227595
      85A      1.246230    86A      1.310962    87A      1.322791
      88A      1.344390    89A      1.388607    90A      1.440452
      91A      1.477305    92A      1.485873    93A      1.520735
      94A      1.526552    95A      1.536366    96A      1.543722
      97A      1.553321    98A      1.588566    99A      1.604829
     100A      1.625278   101A      1.651672   102A      1.664230
     103A      1.699863   104A      1.721398   105A      1.761037
     106A      1.806562   107A      1.821049   108A      1.825302
     109A      1.837405   110A      1.887920   111A      1.895975
     112A      1.977788   113A      1.992455   114A      2.006531
     115A      2.023429   116A      2.029164   117A      2.049944
     118A      2.054943   119A      2.070574   120A      2.085090
     121A      2.108854   122A      2.117536   123A      2.125484
     124A      2.142373   125A      2.167000   126A      2.172321
     127A      2.194702   128A      2.197471   129A      2.247158
     130A      2.283515   131A      2.337529   132A      2.358995
     133A      2.377428   134A      2.390740   135A      2.409331
     136A      2.426925   137A      2.471501   138A      2.487465
     139A      2.554662   140A      2.572031   141A      2.620927
     142A      2.633798   143A      2.686474   144A      2.691907
     145A      2.706278   146A      2.739017   147A      2.755580
     148A      2.807522   149A      2.822114   150A      2.870673
     151A      2.886257   152A      2.897458   153A      2.952027
     154A      2.966423   155A      2.970035   156A      3.014071
     157A      3.034231   158A      3.085802   159A      3.152961
     160A      3.208833   161A      3.239429   162A      3.258422
     163A      3.268778   164A      3.282756   165A      3.335313
     166A      3.536253   167A      3.607991   168A      3.646946
     169A      3.684762   170A      3.741533   171A      3.826454
     172A      3.999669   173A      4.039397   174A      4.046086
     175A      4.083493   176A      4.169660

    Final Occupation by Irrep:
              A
    DOCC [    36 ]

  @RHF Final Energy:  -474.30404845389575

   => Energetics <=

    Nuclear Repulsion Energy =            432.0386127622460322
    One-Electron Energy =               -1518.6267157505426439
    Two-Electron Energy =                 612.2840545344009797
    Total Energy =                       -474.3040484538956889

Computation Completed

Properties will be evaluated at   0.000000,   0.000000,   0.000000 [a0]

Properties computed using the SCF density matrix

  Nuclear Dipole Moment: [e a0]
     X:    -4.1755      Y:    -2.8032      Z:     2.9317

  Electronic Dipole Moment: [e a0]
     X:     2.3417      Y:     2.8258      Z:    -2.7512

  Dipole Moment: [e a0]
     X:    -1.8338      Y:     0.0226      Z:     0.1805     Total:     1.8428

  Dipole Moment: [D]
     X:    -4.6610      Y:     0.0575      Z:     0.4589     Total:     4.6838

*** tstop() called on ds3 at Mon Apr 27 23:29:15 2020
Module time:
	user time   =      43.86 seconds =       0.73 minutes
	system time =      26.78 seconds =       0.45 minutes
	total time  =         68 seconds =       1.13 minutes
Total time:
	user time   =      43.86 seconds =       0.73 minutes
	system time =      26.78 seconds =       0.45 minutes
	total time  =         68 seconds =       1.13 minutes
                                     G D M A

                                 by Anthony Stone

                           version 2.2.06, 22 June 2011

               Distributed Multipoles from Gaussian wavefunctions

Starting at 23:29:15 on 27 Apr 2020

Using SCF density matrix from file ./SSI/SSI-013GLU-056GLN-1-dimer.test.2921.fchk

                         Distributed Multipole Analysis

Standard DMA

Positions and radii in angstrom
Multipole moments in atomic units, ea_0^k for rank k

C          x =  1.962046  y = -2.149787  z = -1.971142 angstrom
           Maximum rank =  0   Radius =  0.650 angstrom
                   Q00  =  -0.286175

C          x =  2.187046  y = -1.099787  z = -0.893142 angstrom
           Maximum rank =  0   Radius =  0.650 angstrom
                   Q00  =   0.960129

O          x =  1.220046  y = -0.841787  z = -0.138142 angstrom
           Maximum rank =  0   Radius =  0.650 angstrom
                   Q00  =  -0.966259

O          x =  3.330046  y = -0.631787  z = -0.716142 angstrom
           Maximum rank =  0   Radius =  0.650 angstrom
                   Q00  =  -0.895294

H          x =  1.022046  y = -1.936787  z = -2.483142 angstrom
           Maximum rank =  0   Radius =  0.325 angstrom
                   Q00  =   0.061189

H          x =  1.847046  y = -3.126787  z = -1.507142 angstrom
           Maximum rank =  0   Radius =  0.325 angstrom
                   Q00  =   0.089978

H          x =  2.748390  y = -2.168613  z = -2.740112 angstrom
           Maximum rank =  0   Radius =  0.325 angstrom
                   Q00  =   0.057996

C          x = -1.319954  y =  0.340213  z =  1.529858 angstrom
           Maximum rank =  0   Radius =  0.650 angstrom
                   Q00  =  -0.132069

C          x = -2.285954  y =  0.662213  z =  2.653858 angstrom
           Maximum rank =  0   Radius =  0.650 angstrom
                   Q00  =  -0.234622

C          x = -1.671954  y =  1.067213  z =  0.246858 angstrom
           Maximum rank =  0   Radius =  0.650 angstrom
                   Q00  =   0.904720

O          x = -2.774954  y =  1.588213  z =  0.081858 angstrom
           Maximum rank =  0   Radius =  0.650 angstrom
                   Q00  =  -0.880339

N          x = -0.738954  y =  1.095213  z = -0.685142 angstrom
           Maximum rank =  0   Radius =  0.650 angstrom
                   Q00  =  -0.594023

H          x = -0.313954  y =  0.621213  z =  1.839858 angstrom
           Maximum rank =  0   Radius =  0.325 angstrom
                   Q00  =   0.089096

H          x = -1.320954  y = -0.727787  z =  1.323858 angstrom
           Maximum rank =  0   Radius =  0.325 angstrom
                   Q00  =   0.103984

H          x = -3.311954  y =  0.610213  z =  2.291858 angstrom
           Maximum rank =  0   Radius =  0.325 angstrom
                   Q00  =   0.097735

H          x = -2.095954  y =  1.688213  z =  2.974858 angstrom
           Maximum rank =  0   Radius =  0.325 angstrom
                   Q00  =   0.070301

H          x = -0.924954  y =  1.545213  z = -1.566142 angstrom
           Maximum rank =  0   Radius =  0.325 angstrom
                   Q00  =   0.181631

H          x =  0.090046  y =  0.513213  z = -0.529142 angstrom
           Maximum rank =  0   Radius =  0.325 angstrom
                   Q00  =   0.315483

H          x = -2.205115  y = -0.005437  z =  3.524328 angstrom
           Maximum rank =  0   Radius =  0.325 angstrom
                   Q00  =   0.056537

Total multipoles referred to origin at
           x =   0.000000,  y =    0.000000,  z =    0.000000 angstrom
                   Q00  =  -1.000000

Finished at 23:29:15 on 27 Apr 2020

  DMA results are available in the Python driver through the
	  variable('DMA DISTRIBUTED MULTIPOLES')
  and
	  variable('DMA TOTAL MULTIPOLES')
  commands.

    Psi4 stopped on: Monday, 27 April 2020 11:29PM
    Psi4 wall time for execution: 0:01:08.14

*** Psi4 exiting successfully. Buy a developer a beer!
