                               Psi4 1.3.2 release

  ==> Input File <==

--------------------------------------------------------------------------
import numpy as np
set {scf_type pk
basis cc-pvdz
d_convergence 10
gdma_switch   0
gdma_limit    0
gdma_origin   [ 0.0,  0.0,  0.0 ]
}
molecule test {
    units Angstrom
    0 1
    --
    0 1
    C                1.579929715370168     1.520424364606954    -0.527846277889840
    C                1.765929715370168     0.260424364606954    -1.365846277889840
    N                1.241929715370168     2.687424364606954    -1.387846277889840
    H                0.785929715370168     1.350424364606954     0.204153722110160
    H                2.505929715370168     1.717424364606954     0.022153722110160
    H                2.544929715370168     0.440424364606954    -2.109846277889839
    H                0.831929715370168     0.028424364606954    -1.883846277889840
    H                0.375929715370168     2.532424364606954    -1.888846277889840
    H                1.120929715370168     3.524424364606955    -0.830846277889840
    H                1.968929715370168     2.875424364606955    -2.066846277889840
    H                2.057327815370168    -0.597901635393046    -0.742658277889840
    C               -0.747070284629832    -1.621575635393046     2.185153722110161
    C               -1.206070284629832    -1.182575635393046     0.797153722110160
    O               -1.088070284629832     0.024424364606954     0.485153722110160
    O               -1.692070284629832    -2.034575635393046     0.018153722110160
    H               -1.076070284629832    -0.874575635393046     2.912153722110161
    H                0.342929715370168    -1.658575635393046     2.237153722110161
    H               -1.174518284629832    -2.591085635393046     2.480691722110161

}
e, wfn = energy('scf', return_wfn=True)
gdma(wfn)
dmavals = variable('DMA DISTRIBUTED MULTIPOLES')
charges = np.array(dmavals)
print(charges)
np.save('SSI-023LYS-029GLU-1-dimer.npy', np.array(charges))--------------------------------------------------------------------------

*** tstart() called on ds3
*** at Mon Apr 27 07:27:45 2020

   => Loading Basis Set <=

    Name: CC-PVDZ
    Role: ORBITAL
    Keyword: BASIS
    atoms 1-2, 12-13  entry C          line   138 file /theoryfs2/ds/metcalf/miniconda2/envs/tf2gpu/share/psi4/basis/cc-pvdz.gbs
    atoms 3           entry N          line   168 file /theoryfs2/ds/metcalf/miniconda2/envs/tf2gpu/share/psi4/basis/cc-pvdz.gbs
    atoms 4-11, 16-18 entry H          line    22 file /theoryfs2/ds/metcalf/miniconda2/envs/tf2gpu/share/psi4/basis/cc-pvdz.gbs
    atoms 14-15       entry O          line   198 file /theoryfs2/ds/metcalf/miniconda2/envs/tf2gpu/share/psi4/basis/cc-pvdz.gbs

         ---------------------------------------------------------
                                   SCF
               by Justin Turney, Rob Parrish, Andy Simmonett
                          and Daniel G. A. Smith
                              RHF Reference
                        1 Threads,    500 MiB Core
         ---------------------------------------------------------

  ==> Geometry <==

    Molecular point group: c1
    Full point group: C1

    Geometry (in Angstrom), charge = 0, multiplicity = 1:

       Center              X                  Y                   Z               Mass
    ------------   -----------------  -----------------  -----------------  -----------------
         C            1.579929715370     1.520424364607    -0.527846277890    12.000000000000
         C            1.765929715370     0.260424364607    -1.365846277890    12.000000000000
         N            1.241929715370     2.687424364607    -1.387846277890    14.003074004430
         H            0.785929715370     1.350424364607     0.204153722110     1.007825032230
         H            2.505929715370     1.717424364607     0.022153722110     1.007825032230
         H            2.544929715370     0.440424364607    -2.109846277890     1.007825032230
         H            0.831929715370     0.028424364607    -1.883846277890     1.007825032230
         H            0.375929715370     2.532424364607    -1.888846277890     1.007825032230
         H            1.120929715370     3.524424364607    -0.830846277890     1.007825032230
         H            1.968929715370     2.875424364607    -2.066846277890     1.007825032230
         H            2.057327815370    -0.597901635393    -0.742658277890     1.007825032230
         C           -0.747070284630    -1.621575635393     2.185153722110    12.000000000000
         C           -1.206070284630    -1.182575635393     0.797153722110    12.000000000000
         O           -1.088070284630     0.024424364607     0.485153722110    15.994914619570
         O           -1.692070284630    -2.034575635393     0.018153722110    15.994914619570
         H           -1.076070284630    -0.874575635393     2.912153722110     1.007825032230
         H            0.342929715370    -1.658575635393     2.237153722110     1.007825032230
         H           -1.174518284630    -2.591085635393     2.480691722110     1.007825032230

  Running in c1 symmetry.

  Rotational constants: A =      0.14605  B =      0.02868  C =      0.02825 [cm^-1]
  Rotational constants: A =   4378.55585  B =    859.87868  C =    846.82263 [MHz]
  Nuclear repulsion =  302.352992938122554

  Charge       = 0
  Multiplicity = 1
  Electrons    = 58
  Nalpha       = 29
  Nbeta        = 29

  ==> Algorithm <==

  SCF Algorithm Type is PK.
  DIIS enabled.
  MOM disabled.
  Fractional occupation disabled.
  Guess Type is SAD.
  Energy threshold   = 1.00e-06
  Density threshold  = 1.00e-10
  Integral threshold = 0.00e+00

  ==> Primary Basis <==

  Basis Set: CC-PVDZ
    Blend: CC-PVDZ
    Number of shells: 75
    Number of basis function: 153
    Number of Cartesian functions: 160
    Spherical Harmonics?: true
    Max angular momentum: 2

  ==> Pre-Iterations <==

   -------------------------------------------------------
    Irrep   Nso     Nmo     Nalpha   Nbeta   Ndocc  Nsocc
   -------------------------------------------------------
     A        153     153       0       0       0       0
   -------------------------------------------------------
    Total     153     153      29      29      29       0
   -------------------------------------------------------

  ==> Integral Setup <==

  Using integral reordering PK algorithm.
  Sizing the integral batches needed.
  Building batch lookup table.
   Calculation information:
      Number of atoms:                  18
      Number of AO shells:              75
      Number of primitives:            209
      Number of atomic orbitals:       160
      Number of basis functions:       153

      Integral cutoff                 1.00e-12
      Number of threads:                 1

	Batch   1 pq = [       0,    9405] index = [             0,44231715] size =     44231715
	Batch   2 pq = [    9405,   11781] index = [      44231715,69401871] size =     25170156
  Task number: 7
  Buffer size: 11059200
  Buffer per thread: 2
  We computed 3374580 shell quartets total.
  Whereas there are 4062675 unique shell quartets.

  ==> DiskJK: Disk-Based J/K Matrices <==

    J tasked:                  Yes
    K tasked:                  Yes
    wK tasked:                  No
    Memory [MiB]:              375
    Schwarz Cutoff:          1E-12

    OpenMP threads:              1

  Minimum eigenvalue in the overlap matrix is 5.5330464074E-03.
  Using Symmetric Orthogonalization.

  SCF Guess: Superposition of Atomic Densities via on-the-fly atomic UHF.

  ==> Iterations <==

                        Total Energy        Delta E     RMS |[F,P]|

   @RHF iter SAD:  -360.66668869001631   -3.60667e+02   0.00000e+00
   @RHF iter   1:  -361.71829203185314   -1.05160e+00   4.79808e-03 DIIS
   @RHF iter   2:  -361.93526804648542   -2.16976e-01   2.62050e-03 DIIS
   @RHF iter   3:  -361.99362813870556   -5.83601e-02   4.56744e-04 DIIS
   @RHF iter   4:  -361.99691561266877   -3.28747e-03   1.57271e-04 DIIS
   @RHF iter   5:  -361.99730953607326   -3.93923e-04   2.99048e-05 DIIS
   @RHF iter   6:  -361.99732984663240   -2.03106e-05   1.36976e-05 DIIS
   @RHF iter   7:  -361.99733237820351   -2.53157e-06   3.98626e-06 DIIS
   @RHF iter   8:  -361.99733289983845   -5.21635e-07   1.72808e-06 DIIS
   @RHF iter   9:  -361.99733299558721   -9.57488e-08   5.59151e-07 DIIS
   @RHF iter  10:  -361.99733300723403   -1.16468e-08   2.00293e-07 DIIS
   @RHF iter  11:  -361.99733300860510   -1.37106e-09   4.88650e-08 DIIS
   @RHF iter  12:  -361.99733300867570   -7.05995e-11   1.20123e-08 DIIS
   @RHF iter  13:  -361.99733300867734   -1.64846e-12   3.88002e-09 DIIS
   @RHF iter  14:  -361.99733300867962   -2.27374e-12   1.15181e-09 DIIS
   @RHF iter  15:  -361.99733300867763    1.98952e-12   4.30725e-10 DIIS
   @RHF iter  16:  -361.99733300867905   -1.42109e-12   2.10523e-10 DIIS
   @RHF iter  17:  -361.99733300867820    8.52651e-13   9.07914e-11 DIIS
  Energy and wave function converged.

  ==> Post-Iterations <==

    Orbital Energies [Eh]
    ---------------------

    Doubly Occupied:

       1A    -20.381224     2A    -20.366178     3A    -15.787325
       4A    -11.341298     5A    -11.272748     6A    -11.227606
       7A    -11.149598     8A     -1.406527     9A     -1.262092
      10A     -1.147139    11A     -1.086871    12A     -0.926637
      13A     -0.895671    14A     -0.863271    15A     -0.849949
      16A     -0.733046    17A     -0.661219    18A     -0.608782
      19A     -0.591234    20A     -0.566827    21A     -0.550518
      22A     -0.515787    23A     -0.510319    24A     -0.507985
      25A     -0.447630    26A     -0.413889    27A     -0.298743
      28A     -0.281002    29A     -0.274789

    Virtual:

      30A      0.060948    31A      0.124450    32A      0.136439
      33A      0.166360    34A      0.202786    35A      0.225426
      36A      0.260363    37A      0.261223    38A      0.287142
      39A      0.296320    40A      0.305710    41A      0.329719
      42A      0.337220    43A      0.385131    44A      0.476689
      45A      0.499700    46A      0.522461    47A      0.532822
      48A      0.551648    49A      0.574000    50A      0.605787
      51A      0.654483    52A      0.711442    53A      0.730136
      54A      0.742667    55A      0.758889    56A      0.764897
      57A      0.781863    58A      0.811888    59A      0.826533
      60A      0.836735    61A      0.861030    62A      0.875122
      63A      0.879049    64A      0.899330    65A      0.903951
      66A      0.924213    67A      0.943804    68A      0.953221
      69A      0.959289    70A      0.981604    71A      0.995381
      72A      1.029048    73A      1.050940    74A      1.059743
      75A      1.113001    76A      1.164385    77A      1.242919
      78A      1.245603    79A      1.307785    80A      1.315598
      81A      1.390558    82A      1.403845    83A      1.451524
      84A      1.467997    85A      1.473978    86A      1.509074
      87A      1.537889    88A      1.566018    89A      1.572725
      90A      1.581938    91A      1.612318    92A      1.635012
      93A      1.645721    94A      1.708934    95A      1.738708
      96A      1.749240    97A      1.798263    98A      1.828712
      99A      1.845321   100A      1.889222   101A      1.896734
     102A      1.918968   103A      1.931965   104A      1.951542
     105A      1.953930   106A      1.977847   107A      1.995229
     108A      2.011363   109A      2.017629   110A      2.040734
     111A      2.046633   112A      2.083024   113A      2.111860
     114A      2.119489   115A      2.146722   116A      2.166912
     117A      2.247336   118A      2.258823   119A      2.293641
     120A      2.302890   121A      2.320925   122A      2.336325
     123A      2.433542   124A      2.443521   125A      2.458730
     126A      2.505491   127A      2.556643   128A      2.565611
     129A      2.624585   130A      2.642068   131A      2.664300
     132A      2.675475   133A      2.732064   134A      2.765845
     135A      2.798523   136A      2.819956   137A      2.868441
     138A      2.870569   139A      2.882238   140A      2.910735
     141A      2.986646   142A      3.129661   143A      3.162573
     144A      3.181822   145A      3.216437   146A      3.245120
     147A      3.247723   148A      3.523364   149A      3.666266
     150A      3.712496   151A      3.953835   152A      3.980073
     153A      4.078087

    Final Occupation by Irrep:
              A
    DOCC [    29 ]

  @RHF Final Energy:  -361.99733300867820

   => Energetics <=

    Nuclear Repulsion Energy =            302.3529929381225543
    One-Electron Energy =               -1094.8488436367263148
    Two-Electron Energy =                 430.4985176899256203
    Total Energy =                       -361.9973330086781971

Computation Completed

Properties will be evaluated at   0.000000,   0.000000,   0.000000 [a0]

Properties computed using the SCF density matrix

  Nuclear Dipole Moment: [e a0]
     X:     9.6241      Y:     6.3075      Z:    -1.5559

  Electronic Dipole Moment: [e a0]
     X:    -5.0624      Y:    -0.6491      Z:    -0.7376

  Dipole Moment: [e a0]
     X:     4.5618      Y:     5.6584      Z:    -2.2936     Total:     7.6215

  Dipole Moment: [D]
     X:    11.5949      Y:    14.3823      Z:    -5.8296     Total:    19.3720

*** tstop() called on ds3 at Mon Apr 27 07:28:21 2020
Module time:
	user time   =      24.62 seconds =       0.41 minutes
	system time =      12.12 seconds =       0.20 minutes
	total time  =         36 seconds =       0.60 minutes
Total time:
	user time   =      24.62 seconds =       0.41 minutes
	system time =      12.12 seconds =       0.20 minutes
	total time  =         36 seconds =       0.60 minutes
                                     G D M A

                                 by Anthony Stone

                           version 2.2.06, 22 June 2011

               Distributed Multipoles from Gaussian wavefunctions

Starting at 7:28:21 on 27 Apr 2020

Using SCF density matrix from file ./SSI/SSI-023LYS-029GLU-1-dimer.test.12634.fchk

                         Distributed Multipole Analysis

Standard DMA

Positions and radii in angstrom
Multipole moments in atomic units, ea_0^k for rank k

C          x =  1.579930  y =  1.520424  z = -0.527846 angstrom
           Maximum rank =  0   Radius =  0.650 angstrom
                   Q00  =  -0.013276

C          x =  1.765930  y =  0.260424  z = -1.365846 angstrom
           Maximum rank =  0   Radius =  0.650 angstrom
                   Q00  =  -0.188645

N          x =  1.241930  y =  2.687424  z = -1.387846 angstrom
           Maximum rank =  0   Radius =  0.650 angstrom
                   Q00  =  -0.123630

H          x =  0.785930  y =  1.350424  z =  0.204154 angstrom
           Maximum rank =  0   Radius =  0.325 angstrom
                   Q00  =   0.142869

H          x =  2.505930  y =  1.717424  z =  0.022154 angstrom
           Maximum rank =  0   Radius =  0.325 angstrom
                   Q00  =   0.088030

H          x =  2.544930  y =  0.440424  z = -2.109846 angstrom
           Maximum rank =  0   Radius =  0.325 angstrom
                   Q00  =   0.044165

H          x =  0.831930  y =  0.028424  z = -1.883846 angstrom
           Maximum rank =  0   Radius =  0.325 angstrom
                   Q00  =   0.127122

H          x =  0.375930  y =  2.532424  z = -1.888846 angstrom
           Maximum rank =  0   Radius =  0.325 angstrom
                   Q00  =   0.262883

H          x =  1.120930  y =  3.524424  z = -0.830846 angstrom
           Maximum rank =  0   Radius =  0.325 angstrom
                   Q00  =   0.243457

H          x =  1.968930  y =  2.875424  z = -2.066846 angstrom
           Maximum rank =  0   Radius =  0.325 angstrom
                   Q00  =   0.232378

H          x =  2.057328  y = -0.597902  z = -0.742658 angstrom
           Maximum rank =  0   Radius =  0.325 angstrom
                   Q00  =   0.157466

C          x = -0.747070  y = -1.621576  z =  2.185154 angstrom
           Maximum rank =  0   Radius =  0.650 angstrom
                   Q00  =  -0.276634

C          x = -1.206070  y = -1.182576  z =  0.797154 angstrom
           Maximum rank =  0   Radius =  0.650 angstrom
                   Q00  =   0.935109

O          x = -1.088070  y =  0.024424  z =  0.485154 angstrom
           Maximum rank =  0   Radius =  0.650 angstrom
                   Q00  =  -0.956945

O          x = -1.692070  y = -2.034576  z =  0.018154 angstrom
           Maximum rank =  0   Radius =  0.650 angstrom
                   Q00  =  -0.892248

H          x = -1.076070  y = -0.874576  z =  2.912154 angstrom
           Maximum rank =  0   Radius =  0.325 angstrom
                   Q00  =   0.067314

H          x =  0.342930  y = -1.658576  z =  2.237154 angstrom
           Maximum rank =  0   Radius =  0.325 angstrom
                   Q00  =   0.068773

H          x = -1.174518  y = -2.591086  z =  2.480692 angstrom
           Maximum rank =  0   Radius =  0.325 angstrom
                   Q00  =   0.081811

Total multipoles referred to origin at
           x =   0.000000,  y =    0.000000,  z =    0.000000 angstrom
                   Q00  =  -0.000000

Finished at 7:28:21 on 27 Apr 2020

  DMA results are available in the Python driver through the
	  variable('DMA DISTRIBUTED MULTIPOLES')
  and
	  variable('DMA TOTAL MULTIPOLES')
  commands.

    Psi4 stopped on: Monday, 27 April 2020 07:28AM
    Psi4 wall time for execution: 0:00:35.89

*** Psi4 exiting successfully. Buy a developer a beer!
