                               Psi4 1.3.2 release

  ==> Input File <==

--------------------------------------------------------------------------
import numpy as np
set {scf_type pk
basis cc-pvdz
d_convergence 10
gdma_switch   0
gdma_limit    0
gdma_origin   [ 0.0,  0.0,  0.0 ]
}
molecule test {
    units Angstrom
    0 1
    --
    0 1
    C               -0.410439990497601     1.430668814861088    -1.713766648364496
    C               -1.120439990497601     0.424668814861088    -0.851766648364497
    C               -0.872439990497601    -0.896331185138913    -0.655766648364497
    C               -2.621439990497601    -0.345331185138912     0.564233351635503
    N               -2.218439990497601     0.745668814861087    -0.074766648364497
    N               -1.821439990497602    -1.354331185138912     0.233233351635503
    H                0.655560009502399     1.232668814861088    -1.707766648364497
    H               -0.580439990497601     2.414668814861087    -1.284766648364497
    H               -0.073439990497601    -1.467331185138912    -1.111766648364497
    H               -3.462439990497601    -0.406331185138913     1.247233351635503
    H               -1.910439990497601    -2.303331185138912     0.581233351635503
    H               -0.759979990497601     1.447210814861088    -2.756623648364497
    C                2.138560009502399     0.031668814861087     0.946233351635503
    C                3.319560009502399    -0.486331185138912     1.763233351635503
    O                2.553560009502398     0.377668814861087    -0.353766648364497
    H                1.377560009502399    -0.747331185138913     0.894233351635503
    H                1.707560009502399     0.907668814861087     1.432233351635503
    H                2.958560009502399    -0.708331185138912     2.769233351635503
    H                2.742560009502399     1.347668814861088    -0.423766648364497
    H                4.107585009502398     0.278338814861088     1.828776551635503
    H                3.682068009502399    -1.425818185138912     1.320569351635503

}
e, wfn = energy('scf', return_wfn=True)
gdma(wfn)
dmavals = variable('DMA DISTRIBUTED MULTIPOLES')
charges = np.array(dmavals)
print(charges)
np.save('SSI-227HIE-289SER-1-dimer.npy', np.array(charges))--------------------------------------------------------------------------

*** tstart() called on ds3
*** at Tue Apr 28 21:53:20 2020

   => Loading Basis Set <=

    Name: CC-PVDZ
    Role: ORBITAL
    Keyword: BASIS
    atoms 1-4, 13-14  entry C          line   138 file /theoryfs2/ds/metcalf/miniconda2/envs/tf2gpu/share/psi4/basis/cc-pvdz.gbs
    atoms 5-6         entry N          line   168 file /theoryfs2/ds/metcalf/miniconda2/envs/tf2gpu/share/psi4/basis/cc-pvdz.gbs
    atoms 7-12, 16-21 entry H          line    22 file /theoryfs2/ds/metcalf/miniconda2/envs/tf2gpu/share/psi4/basis/cc-pvdz.gbs
    atoms 15          entry O          line   198 file /theoryfs2/ds/metcalf/miniconda2/envs/tf2gpu/share/psi4/basis/cc-pvdz.gbs

         ---------------------------------------------------------
                                   SCF
               by Justin Turney, Rob Parrish, Andy Simmonett
                          and Daniel G. A. Smith
                              RHF Reference
                        1 Threads,    500 MiB Core
         ---------------------------------------------------------

  ==> Geometry <==

    Molecular point group: c1
    Full point group: C1

    Geometry (in Angstrom), charge = 0, multiplicity = 1:

       Center              X                  Y                   Z               Mass
    ------------   -----------------  -----------------  -----------------  -----------------
         C           -0.410439990498     1.430668814861    -1.713766648364    12.000000000000
         C           -1.120439990498     0.424668814861    -0.851766648364    12.000000000000
         C           -0.872439990498    -0.896331185139    -0.655766648364    12.000000000000
         C           -2.621439990498    -0.345331185139     0.564233351636    12.000000000000
         N           -2.218439990498     0.745668814861    -0.074766648364    14.003074004430
         N           -1.821439990498    -1.354331185139     0.233233351636    14.003074004430
         H            0.655560009502     1.232668814861    -1.707766648364     1.007825032230
         H           -0.580439990498     2.414668814861    -1.284766648364     1.007825032230
         H           -0.073439990498    -1.467331185139    -1.111766648364     1.007825032230
         H           -3.462439990498    -0.406331185139     1.247233351636     1.007825032230
         H           -1.910439990498    -2.303331185139     0.581233351636     1.007825032230
         H           -0.759979990498     1.447210814861    -2.756623648364     1.007825032230
         C            2.138560009502     0.031668814861     0.946233351636    12.000000000000
         C            3.319560009502    -0.486331185139     1.763233351636    12.000000000000
         O            2.553560009502     0.377668814861    -0.353766648364    15.994914619570
         H            1.377560009502    -0.747331185139     0.894233351636     1.007825032230
         H            1.707560009502     0.907668814861     1.432233351636     1.007825032230
         H            2.958560009502    -0.708331185139     2.769233351636     1.007825032230
         H            2.742560009502     1.347668814861    -0.423766648364     1.007825032230
         H            4.107585009502     0.278338814861     1.828776551636     1.007825032230
         H            3.682068009502    -1.425818185139     1.320569351636     1.007825032230

  Running in c1 symmetry.

  Rotational constants: A =      0.07981  B =      0.02587  C =      0.02174 [cm^-1]
  Rotational constants: A =   2392.74559  B =    775.58936  C =    651.74869 [MHz]
  Nuclear repulsion =  440.078153056998303

  Charge       = 0
  Multiplicity = 1
  Electrons    = 70
  Nalpha       = 35
  Nbeta        = 35

  ==> Algorithm <==

  SCF Algorithm Type is PK.
  DIIS enabled.
  MOM disabled.
  Fractional occupation disabled.
  Guess Type is SAD.
  Energy threshold   = 1.00e-06
  Density threshold  = 1.00e-10
  Integral threshold = 0.00e+00

  ==> Primary Basis <==

  Basis Set: CC-PVDZ
    Blend: CC-PVDZ
    Number of shells: 90
    Number of basis function: 186
    Number of Cartesian functions: 195
    Spherical Harmonics?: true
    Max angular momentum: 2

  ==> Pre-Iterations <==

   -------------------------------------------------------
    Irrep   Nso     Nmo     Nalpha   Nbeta   Ndocc  Nsocc
   -------------------------------------------------------
     A        186     186       0       0       0       0
   -------------------------------------------------------
    Total     186     186      35      35      35       0
   -------------------------------------------------------

  ==> Integral Setup <==

  Using integral reordering PK algorithm.
  Sizing the integral batches needed.
  Building batch lookup table.
   Calculation information:
      Number of atoms:                  21
      Number of AO shells:              90
      Number of primitives:            258
      Number of atomic orbitals:       195
      Number of basis functions:       186

      Integral cutoff                 1.00e-12
      Number of threads:                 1

	Batch   1 pq = [       0,    9405] index = [             0,44231715] size =     44231715
	Batch   2 pq = [    9405,   13301] index = [      44231715,88464951] size =     44233236
	Batch   3 pq = [   13301,   16290] index = [      88464951,132690195] size =     44225244
	Batch   4 pq = [   16290,   17391] index = [     132690195,151232136] size =     18541941
  Task number: 14
  Buffer size: 11059200
  Buffer per thread: 2
  We computed 7317412 shell quartets total.
  Whereas there are 8386560 unique shell quartets.

  ==> DiskJK: Disk-Based J/K Matrices <==

    J tasked:                  Yes
    K tasked:                  Yes
    wK tasked:                  No
    Memory [MiB]:              375
    Schwarz Cutoff:          1E-12

    OpenMP threads:              1

  Minimum eigenvalue in the overlap matrix is 1.1598853422E-03.
  Using Symmetric Orthogonalization.

  SCF Guess: Superposition of Atomic Densities via on-the-fly atomic UHF.

  ==> Iterations <==

                        Total Energy        Delta E     RMS |[F,P]|

   @RHF iter SAD:  -416.93174039368535   -4.16932e+02   0.00000e+00
   @RHF iter   1:  -417.72154996876048   -7.89810e-01   3.36877e-03 DIIS
   @RHF iter   2:  -417.90980071868131   -1.88251e-01   1.75221e-03 DIIS
   @RHF iter   3:  -417.95574877799447   -4.59481e-02   4.08759e-04 DIIS
   @RHF iter   4:  -417.95936295946694   -3.61418e-03   1.66187e-04 DIIS
   @RHF iter   5:  -417.95990794435113   -5.44985e-04   3.19797e-05 DIIS
   @RHF iter   6:  -417.95993677328227   -2.88289e-05   1.33223e-05 DIIS
   @RHF iter   7:  -417.95994216749028   -5.39421e-06   4.36721e-06 DIIS
   @RHF iter   8:  -417.95994320942492   -1.04193e-06   1.75483e-06 DIIS
   @RHF iter   9:  -417.95994342287150   -2.13447e-07   6.62656e-07 DIIS
   @RHF iter  10:  -417.95994344818155   -2.53100e-08   2.25841e-07 DIIS
   @RHF iter  11:  -417.95994345156612   -3.38457e-09   8.00517e-08 DIIS
   @RHF iter  12:  -417.95994345192133   -3.55215e-10   3.27564e-08 DIIS
   @RHF iter  13:  -417.95994345197374   -5.24096e-11   1.01919e-08 DIIS
   @RHF iter  14:  -417.95994345197903   -5.28644e-12   3.65364e-09 DIIS
   @RHF iter  15:  -417.95994345198153   -2.50111e-12   1.65406e-09 DIIS
   @RHF iter  16:  -417.95994345198199   -4.54747e-13   4.81379e-10 DIIS
   @RHF iter  17:  -417.95994345198022    1.76215e-12   2.18385e-10 DIIS
   @RHF iter  18:  -417.95994345198221   -1.98952e-12   6.09071e-11 DIIS
  Energy and wave function converged.

  ==> Post-Iterations <==

    Orbital Energies [Eh]
    ---------------------

    Doubly Occupied:

       1A    -20.552114     2A    -15.618547     3A    -15.525433
       4A    -11.289253     5A    -11.271935     6A    -11.245582
       7A    -11.236929     8A    -11.219103     9A    -11.213734
      10A     -1.350677    11A     -1.337482    12A     -1.149119
      13A     -1.025210    14A     -1.005583    15A     -0.935461
      16A     -0.834922    17A     -0.813577    18A     -0.757546
      19A     -0.737232    20A     -0.689619    21A     -0.631168
      22A     -0.605851    23A     -0.598355    24A     -0.591520
      25A     -0.575904    26A     -0.547842    27A     -0.544128
      28A     -0.533374    29A     -0.521539    30A     -0.513202
      31A     -0.471096    32A     -0.429112    33A     -0.407012
      34A     -0.374886    35A     -0.304703

    Virtual:

      36A      0.169164    37A      0.175859    38A      0.188756
      39A      0.208926    40A      0.225315    41A      0.229516
      42A      0.230088    43A      0.244920    44A      0.254655
      45A      0.267670    46A      0.274352    47A      0.288486
      48A      0.314355    49A      0.343930    50A      0.374779
      51A      0.394763    52A      0.401959    53A      0.403941
      54A      0.419841    55A      0.476788    56A      0.496538
      57A      0.580058    58A      0.606547    59A      0.610406
      60A      0.636597    61A      0.657131    62A      0.667778
      63A      0.694183    64A      0.706175    65A      0.721268
      66A      0.727352    67A      0.743995    68A      0.758187
      69A      0.776142    70A      0.811381    71A      0.816179
      72A      0.833636    73A      0.853685    74A      0.865231
      75A      0.879811    76A      0.888905    77A      0.894369
      78A      0.910311    79A      0.911514    80A      0.916564
      81A      0.923084    82A      0.938626    83A      0.960718
      84A      0.975145    85A      0.989128    86A      1.005814
      87A      1.041919    88A      1.059333    89A      1.095607
      90A      1.105672    91A      1.132531    92A      1.138150
      93A      1.146188    94A      1.163847    95A      1.169682
      96A      1.206787    97A      1.254963    98A      1.273788
      99A      1.280708   100A      1.303408   101A      1.331156
     102A      1.337938   103A      1.378268   104A      1.410740
     105A      1.431126   106A      1.466217   107A      1.479041
     108A      1.489875   109A      1.537024   110A      1.541187
     111A      1.573099   112A      1.598468   113A      1.628460
     114A      1.645404   115A      1.665930   116A      1.678674
     117A      1.709055   118A      1.727243   119A      1.750246
     120A      1.775915   121A      1.809162   122A      1.843849
     123A      1.855370   124A      1.867055   125A      1.875888
     126A      1.892881   127A      1.911668   128A      1.921868
     129A      1.939960   130A      1.945136   131A      1.965405
     132A      1.966010   133A      1.969738   134A      1.986398
     135A      1.991085   136A      2.016371   137A      2.035564
     138A      2.058631   139A      2.064487   140A      2.087100
     141A      2.096221   142A      2.154604   143A      2.180679
     144A      2.212160   145A      2.241564   146A      2.252750
     147A      2.275847   148A      2.301364   149A      2.324270
     150A      2.355749   151A      2.381035   152A      2.390134
     153A      2.416569   154A      2.431600   155A      2.457912
     156A      2.497024   157A      2.514587   158A      2.539786
     159A      2.547821   160A      2.590134   161A      2.613077
     162A      2.690206   163A      2.742667   164A      2.758050
     165A      2.763710   166A      2.775564   167A      2.795790
     168A      2.796776   169A      2.802822   170A      2.851430
     171A      2.874479   172A      2.889628   173A      2.899060
     174A      2.917619   175A      2.926726   176A      2.969841
     177A      3.071630   178A      3.157232   179A      3.233220
     180A      3.310100   181A      3.405790   182A      3.450201
     183A      3.471612   184A      3.649200   185A      3.803554
     186A      4.067588

    Final Occupation by Irrep:
              A
    DOCC [    35 ]

  @RHF Final Energy:  -417.95994345198221

   => Energetics <=

    Nuclear Repulsion Energy =            440.0781530569983033
    One-Electron Energy =               -1441.1586895788075253
    Two-Electron Energy =                 583.1205930698270095
    Total Energy =                       -417.9599434519822125

Computation Completed

Properties will be evaluated at   0.000000,   0.000000,   0.000000 [a0]

Properties computed using the SCF density matrix

  Nuclear Dipole Moment: [e a0]
     X:     9.8156      Y:     0.5377      Z:     2.6123

  Electronic Dipole Moment: [e a0]
     X:    -9.5888      Y:    -1.4236      Z:    -1.9110

  Dipole Moment: [e a0]
     X:     0.2268      Y:    -0.8859      Z:     0.7012     Total:     1.1524

  Dipole Moment: [D]
     X:     0.5766      Y:    -2.2518      Z:     1.7824     Total:     2.9291

*** tstop() called on ds3 at Tue Apr 28 21:54:49 2020
Module time:
	user time   =      53.08 seconds =       0.88 minutes
	system time =      22.92 seconds =       0.38 minutes
	total time  =         89 seconds =       1.48 minutes
Total time:
	user time   =      53.08 seconds =       0.88 minutes
	system time =      22.92 seconds =       0.38 minutes
	total time  =         89 seconds =       1.48 minutes
                                     G D M A

                                 by Anthony Stone

                           version 2.2.06, 22 June 2011

               Distributed Multipoles from Gaussian wavefunctions

Starting at 21:54:49 on 28 Apr 2020

Using SCF density matrix from file ./SSI/SSI-227HIE-289SER-1-dimer.test.3837.fchk

                         Distributed Multipole Analysis

Standard DMA

Positions and radii in angstrom
Multipole moments in atomic units, ea_0^k for rank k

C          x = -0.410440  y =  1.430669  z = -1.713767 angstrom
           Maximum rank =  0   Radius =  0.650 angstrom
                   Q00  =  -0.196685

C          x = -1.120440  y =  0.424669  z = -0.851767 angstrom
           Maximum rank =  0   Radius =  0.650 angstrom
                   Q00  =   0.232153

C          x = -0.872440  y = -0.896331  z = -0.655767 angstrom
           Maximum rank =  0   Radius =  0.650 angstrom
                   Q00  =  -0.008024

C          x = -2.621440  y = -0.345331  z =  0.564233 angstrom
           Maximum rank =  0   Radius =  0.650 angstrom
                   Q00  =   0.458673

N          x = -2.218440  y =  0.745669  z = -0.074767 angstrom
           Maximum rank =  0   Radius =  0.650 angstrom
                   Q00  =  -0.774137

N          x = -1.821440  y = -1.354331  z =  0.233233 angstrom
           Maximum rank =  0   Radius =  0.650 angstrom
                   Q00  =  -0.474749

H          x =  0.655560  y =  1.232669  z = -1.707767 angstrom
           Maximum rank =  0   Radius =  0.325 angstrom
                   Q00  =   0.095850

H          x = -0.580440  y =  2.414669  z = -1.284767 angstrom
           Maximum rank =  0   Radius =  0.325 angstrom
                   Q00  =   0.109863

H          x = -0.073440  y = -1.467331  z = -1.111767 angstrom
           Maximum rank =  0   Radius =  0.325 angstrom
                   Q00  =   0.106848

H          x = -3.462440  y = -0.406331  z =  1.247233 angstrom
           Maximum rank =  0   Radius =  0.325 angstrom
                   Q00  =   0.121967

H          x = -1.910440  y = -2.303331  z =  0.581233 angstrom
           Maximum rank =  0   Radius =  0.325 angstrom
                   Q00  =   0.217615

H          x = -0.759980  y =  1.447211  z = -2.756624 angstrom
           Maximum rank =  0   Radius =  0.325 angstrom
                   Q00  =   0.099482

C          x =  2.138560  y =  0.031669  z =  0.946233 angstrom
           Maximum rank =  0   Radius =  0.650 angstrom
                   Q00  =   0.103959

C          x =  3.319560  y = -0.486331  z =  1.763233 angstrom
           Maximum rank =  0   Radius =  0.650 angstrom
                   Q00  =  -0.242586

O          x =  2.553560  y =  0.377669  z = -0.353767 angstrom
           Maximum rank =  0   Radius =  0.650 angstrom
                   Q00  =  -0.612564

H          x =  1.377560  y = -0.747331  z =  0.894233 angstrom
           Maximum rank =  0   Radius =  0.325 angstrom
                   Q00  =   0.070794

H          x =  1.707560  y =  0.907669  z =  1.432233 angstrom
           Maximum rank =  0   Radius =  0.325 angstrom
                   Q00  =   0.040608

H          x =  2.958560  y = -0.708331  z =  2.769233 angstrom
           Maximum rank =  0   Radius =  0.325 angstrom
                   Q00  =   0.073952

H          x =  2.742560  y =  1.347669  z = -0.423767 angstrom
           Maximum rank =  0   Radius =  0.325 angstrom
                   Q00  =   0.404901

H          x =  4.107585  y =  0.278339  z =  1.828777 angstrom
           Maximum rank =  0   Radius =  0.325 angstrom
                   Q00  =   0.082991

H          x =  3.682068  y = -1.425818  z =  1.320569 angstrom
           Maximum rank =  0   Radius =  0.325 angstrom
                   Q00  =   0.089086

Total multipoles referred to origin at
           x =   0.000000,  y =    0.000000,  z =    0.000000 angstrom
                   Q00  =  -0.000000

Finished at 21:54:49 on 28 Apr 2020

  DMA results are available in the Python driver through the
	  variable('DMA DISTRIBUTED MULTIPOLES')
  and
	  variable('DMA TOTAL MULTIPOLES')
  commands.

    Psi4 stopped on: Tuesday, 28 April 2020 09:54PM
    Psi4 wall time for execution: 0:01:29.61

*** Psi4 exiting successfully. Buy a developer a beer!
