                               Psi4 1.3.2 release

  ==> Input File <==

--------------------------------------------------------------------------
import numpy as np
set {scf_type pk
basis cc-pvdz
d_convergence 10
gdma_switch   0
gdma_limit    0
gdma_origin   [ 0.0,  0.0,  0.0 ]
}
molecule test {
    units Angstrom
    1 1
    --
    1 1
    C                0.672679070064716     2.963365543065115     1.051689860430324
    C               -0.196320929935284    -0.723634456934885     1.333689860430324
    C                0.466679070064716     0.491365543065115     1.466689860430324
    C               -1.393320929935284    -0.783634456934885     0.630689860430324
    C               -0.056320929935284     1.652365543065115     0.906689860430324
    C               -1.921320929935284     0.367365543065115     0.058689860430324
    C               -1.251320929935284     1.578365543065115     0.196689860430324
    O               -2.042320929935284    -1.973634456934885     0.497689860430324
    H                0.214679070064716    -1.618634456934885     1.778689860430324
    H                1.397679070064716     0.534365543065115     2.021689860430324
    H               -1.562320929935284    -2.702634456934885     0.907689860430324
    H               -2.857320929935284     0.316365543065115    -0.481310139569676
    H                1.173679070064716     2.971365543065114     2.017689860430324
    H               -0.046320929935284     3.784365543065114     1.046689860430324
    H               -1.676320929935284     2.474365543065115    -0.242310139569676
    H                1.424289070064716     3.116858543065115     0.263329860430324
    C                1.695679070064716    -1.531634456934885    -1.683310139569676
    C                2.987679070064716    -0.749634456934885    -1.504310139569676
    N                0.593679070064716    -0.653634456934885    -2.168310139569676
    H                1.866679070064716    -2.349634456934885    -2.392310139569676
    H                1.426679070064716    -1.978634456934885    -0.719310139569676
    H                3.788679070064715    -1.435634456934885    -1.218310139569676
    H                2.851679070064716    -0.028634456934885    -0.695310139569676
    H                0.738679070064716    -0.362634456934885    -3.129310139569676
    H               -0.292320929935284    -1.149634456934885    -2.148310139569676
    H                0.494679070064716     0.190365543065115    -1.608310139569676
    H                3.265749070064716    -0.224479456934885    -2.429990139569675

}
e, wfn = energy('scf', return_wfn=True)
gdma(wfn)
dmavals = variable('DMA DISTRIBUTED MULTIPOLES')
charges = np.array(dmavals)
print(charges)
np.save('SSI-183TYR-186LYS-1-dimer.npy', np.array(charges))--------------------------------------------------------------------------

*** tstart() called on ds3
*** at Mon Apr 27 06:28:24 2020

   => Loading Basis Set <=

    Name: CC-PVDZ
    Role: ORBITAL
    Keyword: BASIS
    atoms 1-7, 17-18  entry C          line   138 file /theoryfs2/ds/metcalf/miniconda2/envs/tf2gpu/share/psi4/basis/cc-pvdz.gbs
    atoms 8           entry O          line   198 file /theoryfs2/ds/metcalf/miniconda2/envs/tf2gpu/share/psi4/basis/cc-pvdz.gbs
    atoms 9-16, 20-27 entry H          line    22 file /theoryfs2/ds/metcalf/miniconda2/envs/tf2gpu/share/psi4/basis/cc-pvdz.gbs
    atoms 19          entry N          line   168 file /theoryfs2/ds/metcalf/miniconda2/envs/tf2gpu/share/psi4/basis/cc-pvdz.gbs

         ---------------------------------------------------------
                                   SCF
               by Justin Turney, Rob Parrish, Andy Simmonett
                          and Daniel G. A. Smith
                              RHF Reference
                        1 Threads,    500 MiB Core
         ---------------------------------------------------------

  ==> Geometry <==

    Molecular point group: c1
    Full point group: C1

    Geometry (in Angstrom), charge = 1, multiplicity = 1:

       Center              X                  Y                   Z               Mass
    ------------   -----------------  -----------------  -----------------  -----------------
         C            0.672679070065     2.963365543065     1.051689860430    12.000000000000
         C           -0.196320929935    -0.723634456935     1.333689860430    12.000000000000
         C            0.466679070065     0.491365543065     1.466689860430    12.000000000000
         C           -1.393320929935    -0.783634456935     0.630689860430    12.000000000000
         C           -0.056320929935     1.652365543065     0.906689860430    12.000000000000
         C           -1.921320929935     0.367365543065     0.058689860430    12.000000000000
         C           -1.251320929935     1.578365543065     0.196689860430    12.000000000000
         O           -2.042320929935    -1.973634456935     0.497689860430    15.994914619570
         H            0.214679070065    -1.618634456935     1.778689860430     1.007825032230
         H            1.397679070065     0.534365543065     2.021689860430     1.007825032230
         H           -1.562320929935    -2.702634456935     0.907689860430     1.007825032230
         H           -2.857320929935     0.316365543065    -0.481310139570     1.007825032230
         H            1.173679070065     2.971365543065     2.017689860430     1.007825032230
         H           -0.046320929935     3.784365543065     1.046689860430     1.007825032230
         H           -1.676320929935     2.474365543065    -0.242310139570     1.007825032230
         H            1.424289070065     3.116858543065     0.263329860430     1.007825032230
         C            1.695679070065    -1.531634456935    -1.683310139570    12.000000000000
         C            2.987679070065    -0.749634456935    -1.504310139570    12.000000000000
         N            0.593679070065    -0.653634456935    -2.168310139570    14.003074004430
         H            1.866679070065    -2.349634456935    -2.392310139570     1.007825032230
         H            1.426679070065    -1.978634456935    -0.719310139570     1.007825032230
         H            3.788679070065    -1.435634456935    -1.218310139570     1.007825032230
         H            2.851679070065    -0.028634456935    -0.695310139570     1.007825032230
         H            0.738679070065    -0.362634456935    -3.129310139570     1.007825032230
         H           -0.292320929935    -1.149634456935    -2.148310139570     1.007825032230
         H            0.494679070065     0.190365543065    -1.608310139570     1.007825032230
         H            3.265749070065    -0.224479456935    -2.429990139570     1.007825032230

  Running in c1 symmetry.

  Rotational constants: A =      0.03550  B =      0.02765  C =      0.01967 [cm^-1]
  Rotational constants: A =   1064.31292  B =    829.02157  C =    589.56982 [MHz]
  Nuclear repulsion =  625.088566374775951

  Charge       = 1
  Multiplicity = 1
  Electrons    = 84
  Nalpha       = 42
  Nbeta        = 42

  ==> Algorithm <==

  SCF Algorithm Type is PK.
  DIIS enabled.
  MOM disabled.
  Fractional occupation disabled.
  Guess Type is SAD.
  Energy threshold   = 1.00e-06
  Density threshold  = 1.00e-10
  Integral threshold = 0.00e+00

  ==> Primary Basis <==

  Basis Set: CC-PVDZ
    Blend: CC-PVDZ
    Number of shells: 114
    Number of basis function: 234
    Number of Cartesian functions: 245
    Spherical Harmonics?: true
    Max angular momentum: 2

  ==> Pre-Iterations <==

   -------------------------------------------------------
    Irrep   Nso     Nmo     Nalpha   Nbeta   Ndocc  Nsocc
   -------------------------------------------------------
     A        234     234       0       0       0       0
   -------------------------------------------------------
    Total     234     234      42      42      42       0
   -------------------------------------------------------

  ==> Integral Setup <==

  Using integral reordering PK algorithm.
  Sizing the integral batches needed.
  Building batch lookup table.
   Calculation information:
      Number of atoms:                  27
      Number of AO shells:             114
      Number of primitives:            322
      Number of atomic orbitals:       245
      Number of basis functions:       234

      Integral cutoff                 1.00e-12
      Number of threads:                 1

	Batch   1 pq = [       0,    9405] index = [             0,44231715] size =     44231715
	Batch   2 pq = [    9405,   13301] index = [      44231715,88464951] size =     44233236
	Batch   3 pq = [   13301,   16290] index = [      88464951,132690195] size =     44225244
	Batch   4 pq = [   16290,   18810] index = [     132690195,176917455] size =     44227260
	Batch   5 pq = [   18810,   21030] index = [     176917455,221140965] size =     44223510
	Batch   6 pq = [   21030,   23037] index = [     221140965,265363203] size =     44222238
	Batch   7 pq = [   23037,   24883] index = [     265363203,309594286] size =     44231083
	Batch   8 pq = [   24883,   26601] index = [     309594286,353819901] size =     44225615
	Batch   9 pq = [   26601,   27495] index = [     353819901,378001260] size =     24181359
  Task number: 35
  Buffer size: 11059200
  Buffer per thread: 2
  We computed 23716873 shell quartets total.
  Whereas there are 21487290 unique shell quartets.
    10.38 percent of shell quartets recomputed by reordering.

  ==> DiskJK: Disk-Based J/K Matrices <==

    J tasked:                  Yes
    K tasked:                  Yes
    wK tasked:                  No
    Memory [MiB]:              375
    Schwarz Cutoff:          1E-12

    OpenMP threads:              1

  Minimum eigenvalue in the overlap matrix is 3.1604298386E-04.
  Using Symmetric Orthogonalization.

  SCF Guess: Superposition of Atomic Densities via on-the-fly atomic UHF.

  ==> Iterations <==

                        Total Energy        Delta E     RMS |[F,P]|

   @RHF iter SAD:  -478.56539975470560   -4.78565e+02   0.00000e+00
   @RHF iter   1:  -479.00905266675250   -4.43653e-01   2.68027e-03 DIIS
   @RHF iter   2:  -479.23656602520731   -2.27513e-01   1.06047e-03 DIIS
   @RHF iter   3:  -479.26741747256619   -3.08514e-02   2.93505e-04 DIIS
   @RHF iter   4:  -479.27079269688790   -3.37522e-03   1.12395e-04 DIIS
   @RHF iter   5:  -479.27119458413125   -4.01887e-04   2.10859e-05 DIIS
   @RHF iter   6:  -479.27121689861673   -2.23145e-05   6.47471e-06 DIIS
   @RHF iter   7:  -479.27121886912113   -1.97050e-06   2.11150e-06 DIIS
   @RHF iter   8:  -479.27121912432835   -2.55207e-07   6.99405e-07 DIIS
   @RHF iter   9:  -479.27121915248358   -2.81552e-08   2.20668e-07 DIIS
   @RHF iter  10:  -479.27121915537509   -2.89151e-09   7.22494e-08 DIIS
   @RHF iter  11:  -479.27121915594921   -5.74119e-10   3.15034e-08 DIIS
   @RHF iter  12:  -479.27121915608768   -1.38471e-10   1.70588e-08 DIIS
   @RHF iter  13:  -479.27121915612804   -4.03588e-11   7.36593e-09 DIIS
   @RHF iter  14:  -479.27121915613674   -8.69704e-12   2.06193e-09 DIIS
   @RHF iter  15:  -479.27121915613941   -2.67164e-12   7.71656e-10 DIIS
   @RHF iter  16:  -479.27121915613691    2.50111e-12   2.17984e-10 DIIS
   @RHF iter  17:  -479.27121915613503    1.87583e-12   8.84509e-11 DIIS
  Energy and wave function converged.

  ==> Post-Iterations <==

    Orbital Energies [Eh]
    ---------------------

    Doubly Occupied:

       1A    -20.707881     2A    -15.884326     3A    -11.469424
       4A    -11.429900     5A    -11.396611     6A    -11.368158
       7A    -11.367551     8A    -11.363958     9A    -11.361644
      10A    -11.360997    11A    -11.338614    12A     -1.525560
      13A     -1.504230    14A     -1.284480    15A     -1.209754
      16A     -1.164209    17A     -1.150097    18A     -1.047092
      19A     -1.043987    20A     -0.973805    21A     -0.959508
      22A     -0.947752    23A     -0.929088    24A     -0.859593
      25A     -0.849399    26A     -0.795667    27A     -0.786481
      28A     -0.766633    29A     -0.733167    30A     -0.716017
      31A     -0.715478    32A     -0.711448    33A     -0.692919
      34A     -0.689527    35A     -0.686723    36A     -0.676007
      37A     -0.642698    38A     -0.620374    39A     -0.610304
      40A     -0.597512    41A     -0.473655    42A     -0.433831

    Virtual:

      43A     -0.026264    44A     -0.006763    45A      0.020386
      46A      0.026336    47A      0.040895    48A      0.042624
      49A      0.070020    50A      0.087217    51A      0.096140
      52A      0.105995    53A      0.109551    54A      0.124656
      55A      0.127095    56A      0.138042    57A      0.153604
      58A      0.162376    59A      0.171699    60A      0.187649
      61A      0.197570    62A      0.220279    63A      0.249393
      64A      0.254773    65A      0.305373    66A      0.336462
      67A      0.356520    68A      0.373782    69A      0.375161
      70A      0.391284    71A      0.400667    72A      0.427105
      73A      0.439177    74A      0.457423    75A      0.492430
      76A      0.520506    77A      0.529381    78A      0.542135
      79A      0.563529    80A      0.571482    81A      0.580157
      82A      0.597170    83A      0.611695    84A      0.614000
      85A      0.639814    86A      0.642915    87A      0.647683
      88A      0.656458    89A      0.658639    90A      0.673927
      91A      0.677774    92A      0.702260    93A      0.715171
      94A      0.719222    95A      0.723787    96A      0.730875
      97A      0.743942    98A      0.753025    99A      0.761230
     100A      0.768590   101A      0.771082   102A      0.774124
     103A      0.795199   104A      0.803991   105A      0.805694
     106A      0.822397   107A      0.833375   108A      0.843012
     109A      0.864266   110A      0.869644   111A      0.884669
     112A      0.900585   113A      0.911540   114A      0.931963
     115A      0.957557   116A      0.978233   117A      1.007033
     118A      1.013459   119A      1.031487   120A      1.048363
     121A      1.057364   122A      1.101374   123A      1.124811
     124A      1.128742   125A      1.146315   126A      1.168251
     127A      1.180572   128A      1.183131   129A      1.187593
     130A      1.213875   131A      1.226814   132A      1.234182
     133A      1.271556   134A      1.281026   135A      1.313693
     136A      1.352621   137A      1.373955   138A      1.405327
     139A      1.412804   140A      1.441240   141A      1.483406
     142A      1.487978   143A      1.491581   144A      1.506052
     145A      1.516739   146A      1.569479   147A      1.588554
     148A      1.601452   149A      1.613051   150A      1.627714
     151A      1.659445   152A      1.672687   153A      1.677530
     154A      1.690811   155A      1.703464   156A      1.730209
     157A      1.737100   158A      1.751702   159A      1.766563
     160A      1.771807   161A      1.778962   162A      1.787669
     163A      1.788616   164A      1.797958   165A      1.798966
     166A      1.813319   167A      1.824369   168A      1.834628
     169A      1.847716   170A      1.854098   171A      1.862860
     172A      1.891571   173A      1.903619   174A      1.924357
     175A      1.927429   176A      1.937330   177A      1.944543
     178A      1.951373   179A      1.957098   180A      2.000221
     181A      2.015270   182A      2.027081   183A      2.038808
     184A      2.053923   185A      2.073675   186A      2.082303
     187A      2.120329   188A      2.132648   189A      2.142305
     190A      2.154873   191A      2.177050   192A      2.180776
     193A      2.190715   194A      2.204770   195A      2.254245
     196A      2.296927   197A      2.308267   198A      2.334912
     199A      2.347442   200A      2.357970   201A      2.362593
     202A      2.381750   203A      2.422124   204A      2.429338
     205A      2.453601   206A      2.488121   207A      2.523428
     208A      2.535736   209A      2.568357   210A      2.603818
     211A      2.633770   212A      2.642687   213A      2.665698
     214A      2.674013   215A      2.676038   216A      2.692196
     217A      2.728609   218A      2.759529   219A      2.789989
     220A      2.820117   221A      2.842240   222A      2.863388
     223A      2.882862   224A      2.965120   225A      2.990740
     226A      3.117488   227A      3.152510   228A      3.160600
     229A      3.164394   230A      3.224801   231A      3.454768
     232A      3.548805   233A      3.855704   234A      4.068701

    Final Occupation by Irrep:
              A
    DOCC [    42 ]

  @RHF Final Energy:  -479.27121915613503

   => Energetics <=

    Nuclear Repulsion Energy =            625.0885663747759509
    One-Electron Energy =               -1877.0274597458587778
    Two-Electron Energy =                 772.6676742149479651
    Total Energy =                       -479.2712191561349755

Computation Completed

Properties will be evaluated at   0.000000,   0.000000,   0.000000 [a0]

Properties computed using the SCF density matrix

  Nuclear Dipole Moment: [e a0]
     X:    11.4336      Y:     1.4338      Z:    -6.5808

  Electronic Dipole Moment: [e a0]
     X:    -9.5178      Y:    -2.6177      Z:     3.5834

  Dipole Moment: [e a0]
     X:     1.9158      Y:    -1.1839      Z:    -2.9974     Total:     3.7492

  Dipole Moment: [D]
     X:     4.8694      Y:    -3.0091      Z:    -7.6187     Total:     9.5294

*** tstop() called on ds3 at Mon Apr 27 06:34:06 2020
Module time:
	user time   =     170.94 seconds =       2.85 minutes
	system time =      54.36 seconds =       0.91 minutes
	total time  =        342 seconds =       5.70 minutes
Total time:
	user time   =     170.94 seconds =       2.85 minutes
	system time =      54.36 seconds =       0.91 minutes
	total time  =        342 seconds =       5.70 minutes
                                     G D M A

                                 by Anthony Stone

                           version 2.2.06, 22 June 2011

               Distributed Multipoles from Gaussian wavefunctions

Starting at 6:34:6 on 27 Apr 2020

Using SCF density matrix from file ./SSI/SSI-183TYR-186LYS-1-dimer.test.3570.fchk

                         Distributed Multipole Analysis

Standard DMA

Positions and radii in angstrom
Multipole moments in atomic units, ea_0^k for rank k

C          x =  0.672679  y =  2.963366  z =  1.051690 angstrom
           Maximum rank =  0   Radius =  0.650 angstrom
                   Q00  =  -0.181582

C          x = -0.196321  y = -0.723634  z =  1.333690 angstrom
           Maximum rank =  0   Radius =  0.650 angstrom
                   Q00  =  -0.205139

C          x =  0.466679  y =  0.491366  z =  1.466690 angstrom
           Maximum rank =  0   Radius =  0.650 angstrom
                   Q00  =   0.004954

C          x = -1.393321  y = -0.783634  z =  0.630690 angstrom
           Maximum rank =  0   Radius =  0.650 angstrom
                   Q00  =   0.302948

C          x = -0.056321  y =  1.652366  z =  0.906690 angstrom
           Maximum rank =  0   Radius =  0.650 angstrom
                   Q00  =  -0.165278

C          x = -1.921321  y =  0.367366  z =  0.058690 angstrom
           Maximum rank =  0   Radius =  0.650 angstrom
                   Q00  =  -0.150161

C          x = -1.251321  y =  1.578366  z =  0.196690 angstrom
           Maximum rank =  0   Radius =  0.650 angstrom
                   Q00  =  -0.038910

O          x = -2.042321  y = -1.973634  z =  0.497690 angstrom
           Maximum rank =  0   Radius =  0.650 angstrom
                   Q00  =  -0.682838

H          x =  0.214679  y = -1.618634  z =  1.778690 angstrom
           Maximum rank =  0   Radius =  0.325 angstrom
                   Q00  =   0.088729

H          x =  1.397679  y =  0.534366  z =  2.021690 angstrom
           Maximum rank =  0   Radius =  0.325 angstrom
                   Q00  =   0.090000

H          x = -1.562321  y = -2.702634  z =  0.907690 angstrom
           Maximum rank =  0   Radius =  0.325 angstrom
                   Q00  =   0.419943

H          x = -2.857321  y =  0.316366  z = -0.481310 angstrom
           Maximum rank =  0   Radius =  0.325 angstrom
                   Q00  =   0.098861

H          x =  1.173679  y =  2.971366  z =  2.017690 angstrom
           Maximum rank =  0   Radius =  0.325 angstrom
                   Q00  =   0.116414

H          x = -0.046321  y =  3.784366  z =  1.046690 angstrom
           Maximum rank =  0   Radius =  0.325 angstrom
                   Q00  =   0.118538

H          x = -1.676321  y =  2.474366  z = -0.242310 angstrom
           Maximum rank =  0   Radius =  0.325 angstrom
                   Q00  =   0.086311

H          x =  1.424289  y =  3.116859  z =  0.263330 angstrom
           Maximum rank =  0   Radius =  0.325 angstrom
                   Q00  =   0.094026

C          x =  1.695679  y = -1.531634  z = -1.683310 angstrom
           Maximum rank =  0   Radius =  0.650 angstrom
                   Q00  =  -0.028290

C          x =  2.987679  y = -0.749634  z = -1.504310 angstrom
           Maximum rank =  0   Radius =  0.650 angstrom
                   Q00  =  -0.222194

N          x =  0.593679  y = -0.653634  z = -2.168310 angstrom
           Maximum rank =  0   Radius =  0.650 angstrom
                   Q00  =  -0.142562

H          x =  1.866679  y = -2.349634  z = -2.392310 angstrom
           Maximum rank =  0   Radius =  0.325 angstrom
                   Q00  =   0.122596

H          x =  1.426679  y = -1.978634  z = -0.719310 angstrom
           Maximum rank =  0   Radius =  0.325 angstrom
                   Q00  =   0.132837

H          x =  3.788679  y = -1.435634  z = -1.218310 angstrom
           Maximum rank =  0   Radius =  0.325 angstrom
                   Q00  =   0.147819

H          x =  2.851679  y = -0.028634  z = -0.695310 angstrom
           Maximum rank =  0   Radius =  0.325 angstrom
                   Q00  =   0.107003

H          x =  0.738679  y = -0.362634  z = -3.129310 angstrom
           Maximum rank =  0   Radius =  0.325 angstrom
                   Q00  =   0.246816

H          x = -0.292321  y = -1.149634  z = -2.148310 angstrom
           Maximum rank =  0   Radius =  0.325 angstrom
                   Q00  =   0.262239

H          x =  0.494679  y =  0.190366  z = -1.608310 angstrom
           Maximum rank =  0   Radius =  0.325 angstrom
                   Q00  =   0.275940

H          x =  3.265749  y = -0.224479  z = -2.429990 angstrom
           Maximum rank =  0   Radius =  0.325 angstrom
                   Q00  =   0.100982

Total multipoles referred to origin at
           x =   0.000000,  y =    0.000000,  z =    0.000000 angstrom
                   Q00  =   1.000000

Finished at 6:34:6 on 27 Apr 2020

  DMA results are available in the Python driver through the
	  variable('DMA DISTRIBUTED MULTIPOLES')
  and
	  variable('DMA TOTAL MULTIPOLES')
  commands.

    Psi4 stopped on: Monday, 27 April 2020 06:34AM
    Psi4 wall time for execution: 0:05:42.18

*** Psi4 exiting successfully. Buy a developer a beer!
