                               Psi4 1.3.2 release

  ==> Input File <==

--------------------------------------------------------------------------
import numpy as np
set {scf_type pk
basis cc-pvdz
d_convergence 10
gdma_switch   0
gdma_limit    0
gdma_origin   [ 0.0,  0.0,  0.0 ]
}
molecule test {
    units Angstrom
    0 1
    --
    0 1
    C               -1.793661085038184     0.780443697784318    -2.284999148692167
    C               -0.325661085038183     0.450443697784318    -2.435999148692167
    O                0.265338914961816    -0.194556302215682    -1.572999148692167
    N                0.289338914961817     0.925443697784318    -3.509999148692167
    H               -2.217661085038183     1.064443697784317    -3.247999148692167
    H               -1.848661085038184     1.655443697784318    -1.637999148692167
    H                1.267338914961816     0.715443697784318    -3.628999148692167
    H               -0.229661085038183     1.384443697784318    -4.253999148692166
    H               -2.367261085038183    -0.046976302215682    -1.841899148692167
    C               -0.538661085038183     0.450443697784318     3.055000851307833
    C                0.440338914961816    -0.547556302215682     2.490000851307833
    O                1.002338914961816    -1.351556302215682     3.226000851307833
    N                0.616338914961817    -0.547556302215682     1.180000851307833
    H                1.258338914961816    -1.212556302215683     0.780000851307833
    H                0.145338914961817     0.104443697784318     0.573000851307833
    H               -1.000661085038184     1.024443697784318     2.250000851307833
    H                0.017338914961817     1.141443697784318     3.687000851307833
    H               -1.322111085038184    -0.042806302215682     3.649100851307833

}
e, wfn = energy('scf', return_wfn=True)
gdma(wfn)
dmavals = variable('DMA DISTRIBUTED MULTIPOLES')
charges = np.array(dmavals)
print(charges)
np.save('SSI-061ASN-065ASN-2-dimer.npy', np.array(charges))--------------------------------------------------------------------------

*** tstart() called on ds3
*** at Mon Apr 27 14:11:28 2020

   => Loading Basis Set <=

    Name: CC-PVDZ
    Role: ORBITAL
    Keyword: BASIS
    atoms 1-2, 10-11 entry C          line   138 file /theoryfs2/ds/metcalf/miniconda2/envs/tf2gpu/share/psi4/basis/cc-pvdz.gbs
    atoms 3, 12      entry O          line   198 file /theoryfs2/ds/metcalf/miniconda2/envs/tf2gpu/share/psi4/basis/cc-pvdz.gbs
    atoms 4, 13      entry N          line   168 file /theoryfs2/ds/metcalf/miniconda2/envs/tf2gpu/share/psi4/basis/cc-pvdz.gbs
    atoms 5-9, 14-18 entry H          line    22 file /theoryfs2/ds/metcalf/miniconda2/envs/tf2gpu/share/psi4/basis/cc-pvdz.gbs

         ---------------------------------------------------------
                                   SCF
               by Justin Turney, Rob Parrish, Andy Simmonett
                          and Daniel G. A. Smith
                              RHF Reference
                        1 Threads,    500 MiB Core
         ---------------------------------------------------------

  ==> Geometry <==

    Molecular point group: c1
    Full point group: C1

    Geometry (in Angstrom), charge = 0, multiplicity = 1:

       Center              X                  Y                   Z               Mass
    ------------   -----------------  -----------------  -----------------  -----------------
         C           -1.793661085038     0.780443697784    -2.284999148692    12.000000000000
         C           -0.325661085038     0.450443697784    -2.435999148692    12.000000000000
         O            0.265338914962    -0.194556302216    -1.572999148692    15.994914619570
         N            0.289338914962     0.925443697784    -3.509999148692    14.003074004430
         H           -2.217661085038     1.064443697784    -3.247999148692     1.007825032230
         H           -1.848661085038     1.655443697784    -1.637999148692     1.007825032230
         H            1.267338914962     0.715443697784    -3.628999148692     1.007825032230
         H           -0.229661085038     1.384443697784    -4.253999148692     1.007825032230
         H           -2.367261085038    -0.046976302216    -1.841899148692     1.007825032230
         C           -0.538661085038     0.450443697784     3.055000851308    12.000000000000
         C            0.440338914962    -0.547556302216     2.490000851308    12.000000000000
         O            1.002338914962    -1.351556302216     3.226000851308    15.994914619570
         N            0.616338914962    -0.547556302216     1.180000851308    14.003074004430
         H            1.258338914962    -1.212556302216     0.780000851308     1.007825032230
         H            0.145338914962     0.104443697784     0.573000851308     1.007825032230
         H           -1.000661085038     1.024443697784     2.250000851308     1.007825032230
         H            0.017338914962     1.141443697784     3.687000851308     1.007825032230
         H           -1.322111085038    -0.042806302216     3.649100851308     1.007825032230

  Running in c1 symmetry.

  Rotational constants: A =      0.15128  B =      0.01943  C =      0.01787 [cm^-1]
  Rotational constants: A =   4535.12336  B =    582.46438  C =    535.70408 [MHz]
  Nuclear repulsion =  354.029480695307200

  Charge       = 0
  Multiplicity = 1
  Electrons    = 64
  Nalpha       = 32
  Nbeta        = 32

  ==> Algorithm <==

  SCF Algorithm Type is PK.
  DIIS enabled.
  MOM disabled.
  Fractional occupation disabled.
  Guess Type is SAD.
  Energy threshold   = 1.00e-06
  Density threshold  = 1.00e-10
  Integral threshold = 0.00e+00

  ==> Primary Basis <==

  Basis Set: CC-PVDZ
    Blend: CC-PVDZ
    Number of shells: 78
    Number of basis function: 162
    Number of Cartesian functions: 170
    Spherical Harmonics?: true
    Max angular momentum: 2

  ==> Pre-Iterations <==

   -------------------------------------------------------
    Irrep   Nso     Nmo     Nalpha   Nbeta   Ndocc  Nsocc
   -------------------------------------------------------
     A        162     162       0       0       0       0
   -------------------------------------------------------
    Total     162     162      32      32      32       0
   -------------------------------------------------------

  ==> Integral Setup <==

  Using integral reordering PK algorithm.
  Sizing the integral batches needed.
  Building batch lookup table.
   Calculation information:
      Number of atoms:                  18
      Number of AO shells:              78
      Number of primitives:            226
      Number of atomic orbitals:       170
      Number of basis functions:       162

      Integral cutoff                 1.00e-12
      Number of threads:                 1

	Batch   1 pq = [       0,    9405] index = [             0,44231715] size =     44231715
	Batch   2 pq = [    9405,   13203] index = [      44231715,87166206] size =     42934491
  Task number: 8
  Buffer size: 11059200
  Buffer per thread: 2
  We computed 3407716 shell quartets total.
  Whereas there are 4747821 unique shell quartets.

  ==> DiskJK: Disk-Based J/K Matrices <==

    J tasked:                  Yes
    K tasked:                  Yes
    wK tasked:                  No
    Memory [MiB]:              375
    Schwarz Cutoff:          1E-12

    OpenMP threads:              1

  Minimum eigenvalue in the overlap matrix is 4.4168453596E-03.
  Using Symmetric Orthogonalization.

  SCF Guess: Superposition of Atomic Densities via on-the-fly atomic UHF.

  ==> Iterations <==

                        Total Energy        Delta E     RMS |[F,P]|

   @RHF iter SAD:  -414.57297742405819   -4.14573e+02   0.00000e+00
   @RHF iter   1:  -415.70534843512860   -1.13237e+00   4.66929e-03 DIIS
   @RHF iter   2:  -415.91891973551083   -2.13571e-01   2.72861e-03 DIIS
   @RHF iter   3:  -415.98839961437125   -6.94799e-02   5.08148e-04 DIIS
   @RHF iter   4:  -415.99249777856664   -4.09816e-03   1.93601e-04 DIIS
   @RHF iter   5:  -415.99318767068593   -6.89892e-04   3.55184e-05 DIIS
   @RHF iter   6:  -415.99323414043147   -4.64697e-05   1.80499e-05 DIIS
   @RHF iter   7:  -415.99324284566836   -8.70524e-06   6.73277e-06 DIIS
   @RHF iter   8:  -415.99324467372458   -1.82806e-06   2.07513e-06 DIIS
   @RHF iter   9:  -415.99324484246131   -1.68737e-07   6.97677e-07 DIIS
   @RHF iter  10:  -415.99324485241101   -9.94970e-09   2.74183e-07 DIIS
   @RHF iter  11:  -415.99324485411205   -1.70104e-09   4.26699e-08 DIIS
   @RHF iter  12:  -415.99324485417287   -6.08225e-11   1.14328e-08 DIIS
   @RHF iter  13:  -415.99324485417719   -4.32010e-12   3.58374e-09 DIIS
   @RHF iter  14:  -415.99324485417748   -2.84217e-13   1.24257e-09 DIIS
   @RHF iter  15:  -415.99324485417867   -1.19371e-12   3.83887e-10 DIIS
   @RHF iter  16:  -415.99324485417719    1.47793e-12   1.24665e-10 DIIS
   @RHF iter  17:  -415.99324485417765   -4.54747e-13   4.65943e-11 DIIS
  Energy and wave function converged.

  ==> Post-Iterations <==

    Orbital Energies [Eh]
    ---------------------

    Doubly Occupied:

       1A    -20.526950     2A    -20.473154     3A    -15.609841
       4A    -15.551592     5A    -11.370899     6A    -11.318782
       7A    -11.260855     8A    -11.223847     9A     -1.392366
      10A     -1.341236    11A     -1.237562    12A     -1.184258
      13A     -1.020523    14A     -0.980685    15A     -0.820480
      16A     -0.771316    17A     -0.745367    18A     -0.694761
      19A     -0.677322    20A     -0.633368    21A     -0.630944
      22A     -0.592359    23A     -0.590457    24A     -0.578590
      25A     -0.544568    26A     -0.540130    27A     -0.538475
      28A     -0.497438    29A     -0.434403    30A     -0.427662
      31A     -0.383110    32A     -0.371523

    Virtual:

      33A      0.144857    34A      0.170628    35A      0.192312
      36A      0.207210    37A      0.215424    38A      0.223737
      39A      0.249663    40A      0.254989    41A      0.259362
      42A      0.274279    43A      0.302602    44A      0.319196
      45A      0.369038    46A      0.404487    47A      0.464634
      48A      0.487497    49A      0.545862    50A      0.594526
      51A      0.615634    52A      0.639997    53A      0.654981
      54A      0.677607    55A      0.691240    56A      0.707318
      57A      0.712682    58A      0.725027    59A      0.733106
      60A      0.736046    61A      0.761535    62A      0.791950
      63A      0.826036    64A      0.841172    65A      0.858838
      66A      0.870589    67A      0.884396    68A      0.903665
      69A      0.908954    70A      0.918862    71A      0.947999
      72A      0.954312    73A      0.985840    74A      0.995433
      75A      1.020083    76A      1.033999    77A      1.045902
      78A      1.082224    79A      1.114701    80A      1.134168
      81A      1.148676    82A      1.202449    83A      1.297927
      84A      1.338169    85A      1.364141    86A      1.383800
      87A      1.387884    88A      1.395828    89A      1.405373
      90A      1.410288    91A      1.430191    92A      1.441769
      93A      1.455284    94A      1.478481    95A      1.500249
      96A      1.579014    97A      1.627250    98A      1.635623
      99A      1.655981   100A      1.677390   101A      1.702565
     102A      1.732165   103A      1.807748   104A      1.828101
     105A      1.852788   106A      1.875554   107A      1.878903
     108A      1.896900   109A      1.899948   110A      1.901728
     111A      1.925695   112A      1.933230   113A      1.945813
     114A      1.963229   115A      1.967678   116A      2.019059
     117A      2.026214   118A      2.059011   119A      2.094477
     120A      2.112331   121A      2.145221   122A      2.157944
     123A      2.202554   124A      2.248314   125A      2.259277
     126A      2.349916   127A      2.384315   128A      2.430133
     129A      2.436317   130A      2.441189   131A      2.456066
     132A      2.490171   133A      2.531207   134A      2.543817
     135A      2.593117   136A      2.599304   137A      2.607738
     138A      2.673757   139A      2.713620   140A      2.741703
     141A      2.761887   142A      2.791055   143A      2.798476
     144A      2.825174   145A      2.837506   146A      2.866325
     147A      2.957739   148A      3.037836   149A      3.063394
     150A      3.113212   151A      3.122506   152A      3.159602
     153A      3.249740   154A      3.327994   155A      3.470299
     156A      3.521788   157A      3.547829   158A      3.570705
     159A      3.856242   160A      3.900825   161A      3.909052
     162A      3.939726

    Final Occupation by Irrep:
              A
    DOCC [    32 ]

  @RHF Final Energy:  -415.99324485417765

   => Energetics <=

    Nuclear Repulsion Energy =            354.0294806953071998
    One-Electron Energy =               -1270.1158012571922882
    Two-Electron Energy =                 500.0930757077073849
    Total Energy =                       -415.9932448541776466

Computation Completed

Properties will be evaluated at   0.000000,   0.000000,   0.000000 [a0]

Properties computed using the SCF density matrix

  Nuclear Dipole Moment: [e a0]
     X:    -5.9004      Y:     5.4173      Z:    -3.4275

  Electronic Dipole Moment: [e a0]
     X:     4.7080      Y:    -3.5281      Z:     0.4068

  Dipole Moment: [e a0]
     X:    -1.1924      Y:     1.8892      Z:    -3.0207     Total:     3.7570

  Dipole Moment: [D]
     X:    -3.0307      Y:     4.8018      Z:    -7.6778     Total:     9.5494

*** tstop() called on ds3 at Mon Apr 27 14:12:06 2020
Module time:
	user time   =      26.05 seconds =       0.43 minutes
	system time =      14.07 seconds =       0.23 minutes
	total time  =         38 seconds =       0.63 minutes
Total time:
	user time   =      26.05 seconds =       0.43 minutes
	system time =      14.07 seconds =       0.23 minutes
	total time  =         38 seconds =       0.63 minutes
                                     G D M A

                                 by Anthony Stone

                           version 2.2.06, 22 June 2011

               Distributed Multipoles from Gaussian wavefunctions

Starting at 14:12:6 on 27 Apr 2020

Using SCF density matrix from file ./SSI/SSI-061ASN-065ASN-2-dimer.test.8941.fchk

                         Distributed Multipole Analysis

Standard DMA

Positions and radii in angstrom
Multipole moments in atomic units, ea_0^k for rank k

C          x = -1.793661  y =  0.780444  z = -2.284999 angstrom
           Maximum rank =  0   Radius =  0.650 angstrom
                   Q00  =  -0.265105

C          x = -0.325661  y =  0.450444  z = -2.435999 angstrom
           Maximum rank =  0   Radius =  0.650 angstrom
                   Q00  =   0.811288

O          x =  0.265339  y = -0.194556  z = -1.572999 angstrom
           Maximum rank =  0   Radius =  0.650 angstrom
                   Q00  =  -0.792001

N          x =  0.289339  y =  0.925444  z = -3.509999 angstrom
           Maximum rank =  0   Radius =  0.650 angstrom
                   Q00  =  -0.529949

H          x = -2.217661  y =  1.064444  z = -3.247999 angstrom
           Maximum rank =  0   Radius =  0.325 angstrom
                   Q00  =   0.084725

H          x = -1.848661  y =  1.655444  z = -1.637999 angstrom
           Maximum rank =  0   Radius =  0.325 angstrom
                   Q00  =   0.130291

H          x =  1.267339  y =  0.715444  z = -3.628999 angstrom
           Maximum rank =  0   Radius =  0.325 angstrom
                   Q00  =   0.225093

H          x = -0.229661  y =  1.384444  z = -4.253999 angstrom
           Maximum rank =  0   Radius =  0.325 angstrom
                   Q00  =   0.215345

H          x = -2.367261  y = -0.046976  z = -1.841899 angstrom
           Maximum rank =  0   Radius =  0.325 angstrom
                   Q00  =   0.135453

C          x = -0.538661  y =  0.450444  z =  3.055001 angstrom
           Maximum rank =  0   Radius =  0.650 angstrom
                   Q00  =  -0.264512

C          x =  0.440339  y = -0.547556  z =  2.490001 angstrom
           Maximum rank =  0   Radius =  0.650 angstrom
                   Q00  =   0.833158

O          x =  1.002339  y = -1.351556  z =  3.226001 angstrom
           Maximum rank =  0   Radius =  0.650 angstrom
                   Q00  =  -0.816280

N          x =  0.616339  y = -0.547556  z =  1.180001 angstrom
           Maximum rank =  0   Radius =  0.650 angstrom
                   Q00  =  -0.528659

H          x =  1.258339  y = -1.212556  z =  0.780001 angstrom
           Maximum rank =  0   Radius =  0.325 angstrom
                   Q00  =   0.221807

H          x =  0.145339  y =  0.104444  z =  0.573001 angstrom
           Maximum rank =  0   Radius =  0.325 angstrom
                   Q00  =   0.219673

H          x = -1.000661  y =  1.024444  z =  2.250001 angstrom
           Maximum rank =  0   Radius =  0.325 angstrom
                   Q00  =   0.066041

H          x =  0.017339  y =  1.141444  z =  3.687001 angstrom
           Maximum rank =  0   Radius =  0.325 angstrom
                   Q00  =   0.125968

H          x = -1.322111  y = -0.042806  z =  3.649101 angstrom
           Maximum rank =  0   Radius =  0.325 angstrom
                   Q00  =   0.127666

Total multipoles referred to origin at
           x =   0.000000,  y =    0.000000,  z =    0.000000 angstrom
                   Q00  =  -0.000000

Finished at 14:12:6 on 27 Apr 2020

  DMA results are available in the Python driver through the
	  variable('DMA DISTRIBUTED MULTIPOLES')
  and
	  variable('DMA TOTAL MULTIPOLES')
  commands.

    Psi4 stopped on: Monday, 27 April 2020 02:12PM
    Psi4 wall time for execution: 0:00:39.05

*** Psi4 exiting successfully. Buy a developer a beer!
