                               Psi4 1.3.2 release

  ==> Input File <==

--------------------------------------------------------------------------
import numpy as np
set {scf_type pk
basis cc-pvdz
d_convergence 10
gdma_switch   0
gdma_limit    0
gdma_origin   [ 0.0,  0.0,  0.0 ]
}
molecule test {
    units Angstrom
    0 1
    --
    0 1
    C                1.225785844557767    -0.462765957685818    -0.792188174073888
    C                2.372785844557767    -0.814765957685818    -1.745188174073888
    H                1.406785844557767     0.480234042314182    -0.279188174073888
    H                0.302785844557767    -0.357765957685818    -1.364188174073888
    H                1.090785844557767    -1.258765957685818    -0.057188174073888
    H                2.496785844557767     0.021234042314182    -2.432188174073888
    H                3.313565844557767    -0.973355957685818    -1.197658174073888
    H                2.118035844557767    -1.691595957685818    -2.358605174073888
    C               -1.721214155442233    -0.062765957685818     1.574811825926112
    C               -1.881214155442233     1.337234042314182     0.965811825926112
    H               -2.201214155442233    -0.812765957685818     0.947811825926112
    H               -0.660214155442233    -0.304765957685818     1.648811825926112
    H               -2.156214155442233    -0.086765957685818     2.573811825926112
    H               -1.524214155442233     1.330234042314182    -0.065188174073888
    H               -1.223214155442233     1.987234042314182     1.539811825926112
    H               -2.917754155442233     1.703326042314182     1.005291825926112

}
e, wfn = energy('scf', return_wfn=True)
gdma(wfn)
dmavals = variable('DMA DISTRIBUTED MULTIPOLES')
charges = np.array(dmavals)
print(charges)
np.save('SSI-010LEU-132ILE-1-dimer.npy', np.array(charges))--------------------------------------------------------------------------

*** tstart() called on ds3
*** at Mon Apr 27 04:09:11 2020

   => Loading Basis Set <=

    Name: CC-PVDZ
    Role: ORBITAL
    Keyword: BASIS
    atoms 1-2, 9-10  entry C          line   138 file /theoryfs2/ds/metcalf/miniconda2/envs/tf2gpu/share/psi4/basis/cc-pvdz.gbs
    atoms 3-8, 11-16 entry H          line    22 file /theoryfs2/ds/metcalf/miniconda2/envs/tf2gpu/share/psi4/basis/cc-pvdz.gbs

         ---------------------------------------------------------
                                   SCF
               by Justin Turney, Rob Parrish, Andy Simmonett
                          and Daniel G. A. Smith
                              RHF Reference
                        1 Threads,    500 MiB Core
         ---------------------------------------------------------

  ==> Geometry <==

    Molecular point group: c1
    Full point group: C1

    Geometry (in Angstrom), charge = 0, multiplicity = 1:

       Center              X                  Y                   Z               Mass
    ------------   -----------------  -----------------  -----------------  -----------------
         C            1.225785844558    -0.462765957686    -0.792188174074    12.000000000000
         C            2.372785844558    -0.814765957686    -1.745188174074    12.000000000000
         H            1.406785844558     0.480234042314    -0.279188174074     1.007825032230
         H            0.302785844558    -0.357765957686    -1.364188174074     1.007825032230
         H            1.090785844558    -1.258765957686    -0.057188174074     1.007825032230
         H            2.496785844558     0.021234042314    -2.432188174074     1.007825032230
         H            3.313565844558    -0.973355957686    -1.197658174074     1.007825032230
         H            2.118035844558    -1.691595957686    -2.358605174074     1.007825032230
         C           -1.721214155442    -0.062765957686     1.574811825926    12.000000000000
         C           -1.881214155442     1.337234042314     0.965811825926    12.000000000000
         H           -2.201214155442    -0.812765957686     0.947811825926     1.007825032230
         H           -0.660214155442    -0.304765957686     1.648811825926     1.007825032230
         H           -2.156214155442    -0.086765957686     2.573811825926     1.007825032230
         H           -1.524214155442     1.330234042314    -0.065188174074     1.007825032230
         H           -1.223214155442     1.987234042314     1.539811825926     1.007825032230
         H           -2.917754155442     1.703326042314     1.005291825926     1.007825032230

  Running in c1 symmetry.

  Rotational constants: A =      0.53724  B =      0.04854  C =      0.04608 [cm^-1]
  Rotational constants: A =  16106.09396  B =   1455.21149  C =   1381.56010 [MHz]
  Nuclear repulsion =  122.331060589054601

  Charge       = 0
  Multiplicity = 1
  Electrons    = 36
  Nalpha       = 18
  Nbeta        = 18

  ==> Algorithm <==

  SCF Algorithm Type is PK.
  DIIS enabled.
  MOM disabled.
  Fractional occupation disabled.
  Guess Type is SAD.
  Energy threshold   = 1.00e-06
  Density threshold  = 1.00e-10
  Integral threshold = 0.00e+00

  ==> Primary Basis <==

  Basis Set: CC-PVDZ
    Blend: CC-PVDZ
    Number of shells: 60
    Number of basis function: 116
    Number of Cartesian functions: 120
    Spherical Harmonics?: true
    Max angular momentum: 2

  ==> Pre-Iterations <==

   -------------------------------------------------------
    Irrep   Nso     Nmo     Nalpha   Nbeta   Ndocc  Nsocc
   -------------------------------------------------------
     A        116     116       0       0       0       0
   -------------------------------------------------------
    Total     116     116      18      18      18       0
   -------------------------------------------------------

  ==> Integral Setup <==

  Using integral reordering PK algorithm.
  Sizing the integral batches needed.
  Building batch lookup table.
   Calculation information:
      Number of atoms:                  16
      Number of AO shells:              60
      Number of primitives:            148
      Number of atomic orbitals:       120
      Number of basis functions:       116

      Integral cutoff                 1.00e-12
      Number of threads:                 1

	Batch   1 pq = [       0,    6786] index = [             0,23028291] size =     23028291
  Task number: 3
  Buffer size: 11059200
  Buffer per thread: 2
  We computed 1421985 shell quartets total.
  Whereas there are 1675365 unique shell quartets.

  ==> DiskJK: Disk-Based J/K Matrices <==

    J tasked:                  Yes
    K tasked:                  Yes
    wK tasked:                  No
    Memory [MiB]:              375
    Schwarz Cutoff:          1E-12

    OpenMP threads:              1

  Minimum eigenvalue in the overlap matrix is 6.6651990178E-03.
  Using Symmetric Orthogonalization.

  SCF Guess: Superposition of Atomic Densities via on-the-fly atomic UHF.

  ==> Iterations <==

                        Total Energy        Delta E     RMS |[F,P]|

   @RHF iter SAD:  -157.33322734902004   -1.57333e+02   0.00000e+00
   @RHF iter   1:  -158.30812759414133   -9.74900e-01   4.20190e-03 DIIS
   @RHF iter   2:  -158.44103204593927   -1.32904e-01   1.78790e-03 DIIS
   @RHF iter   3:  -158.46425294130472   -2.32209e-02   3.48343e-04 DIIS
   @RHF iter   4:  -158.46607124411540   -1.81830e-03   3.83357e-05 DIIS
   @RHF iter   5:  -158.46609438391118   -2.31398e-05   6.22187e-06 DIIS
   @RHF iter   6:  -158.46609497350951   -5.89598e-07   8.76183e-07 DIIS
   @RHF iter   7:  -158.46609498186132   -8.35180e-09   2.77930e-07 DIIS
   @RHF iter   8:  -158.46609498251075   -6.49436e-10   4.00408e-08 DIIS
   @RHF iter   9:  -158.46609498253292   -2.21689e-11   7.84667e-09 DIIS
   @RHF iter  10:  -158.46609498253395   -1.02318e-12   1.94156e-09 DIIS
   @RHF iter  11:  -158.46609498253369    2.55795e-13   5.95587e-10 DIIS
   @RHF iter  12:  -158.46609498253386   -1.70530e-13   1.60423e-10 DIIS
   @RHF iter  13:  -158.46609498253369    1.70530e-13   2.20375e-11 DIIS
  Energy and wave function converged.

  ==> Post-Iterations <==

    Orbital Energies [Eh]
    ---------------------

    Doubly Occupied:

       1A    -11.220291     2A    -11.218340     3A    -11.217526
       4A    -11.215590     5A     -1.018617     6A     -1.015581
       7A     -0.838724     8A     -0.835793     9A     -0.599943
      10A     -0.597296    11A     -0.596753    12A     -0.596052
      13A     -0.503337    14A     -0.496613    15A     -0.490555
      16A     -0.486950    17A     -0.483106    18A     -0.480995

    Virtual:

      19A      0.171746    20A      0.195095    21A      0.227803
      22A      0.231380    23A      0.238998    24A      0.264696
      25A      0.266945    26A      0.274168    27A      0.280436
      28A      0.289269    29A      0.321724    30A      0.324803
      31A      0.389830    32A      0.402893    33A      0.563820
      34A      0.591621    35A      0.599363    36A      0.604362
      37A      0.608151    38A      0.646367    39A      0.668389
      40A      0.699680    41A      0.721050    42A      0.739916
      43A      0.839543    44A      0.853238    45A      0.889292
      46A      0.892470    47A      0.893226    48A      0.897369
      49A      0.899629    50A      0.915257    51A      0.921456
      52A      0.924945    53A      0.931300    54A      0.954060
      55A      0.971507    56A      1.008825    57A      1.122222
      58A      1.129147    59A      1.130771    60A      1.134386
      61A      1.223605    62A      1.255618    63A      1.462556
      64A      1.468432    65A      1.479126    66A      1.485516
      67A      1.573440    68A      1.582953    69A      1.680344
      70A      1.684002    71A      1.693944    72A      1.696424
      73A      1.844774    74A      1.859644    75A      1.870552
      76A      1.877006    77A      1.899218    78A      1.908839
      79A      1.933202    80A      1.937180    81A      1.941681
      82A      1.949171    83A      1.952920    84A      1.956005
      85A      1.959833    86A      1.973481    87A      1.982426
      88A      2.053925    89A      2.086808    90A      2.107008
      91A      2.118276    92A      2.143215    93A      2.290491
      94A      2.305562    95A      2.314178    96A      2.331314
      97A      2.443542    98A      2.448926    99A      2.462690
     100A      2.470707   101A      2.549296   102A      2.561839
     103A      2.575978   104A      2.600158   105A      2.758414
     106A      2.774631   107A      2.782896   108A      2.798707
     109A      2.842818   110A      2.847663   111A      2.856088
     112A      2.865737   113A      2.938383   114A      2.948894
     115A      2.957407   116A      2.962593

    Final Occupation by Irrep:
              A
    DOCC [    18 ]

  @RHF Final Energy:  -158.46609498253369

   => Energetics <=

    Nuclear Repulsion Energy =            122.3310605890546015
    One-Electron Energy =                -453.7701840737017278
    Two-Electron Energy =                 172.9730285021134080
    Total Energy =                       -158.4660949825336900

Computation Completed

Properties will be evaluated at   0.000000,   0.000000,   0.000000 [a0]

Properties computed using the SCF density matrix

  Nuclear Dipole Moment: [e a0]
     X:     0.0430      Y:     0.0342      Z:    -0.0362

  Electronic Dipole Moment: [e a0]
     X:    -0.0252      Y:    -0.0329      Z:     0.0243

  Dipole Moment: [e a0]
     X:     0.0178      Y:     0.0013      Z:    -0.0119     Total:     0.0215

  Dipole Moment: [D]
     X:     0.0453      Y:     0.0034      Z:    -0.0303     Total:     0.0546

*** tstop() called on ds3 at Mon Apr 27 04:09:20 2020
Module time:
	user time   =       6.84 seconds =       0.11 minutes
	system time =       2.78 seconds =       0.05 minutes
	total time  =          9 seconds =       0.15 minutes
Total time:
	user time   =       6.84 seconds =       0.11 minutes
	system time =       2.78 seconds =       0.05 minutes
	total time  =          9 seconds =       0.15 minutes
                                     G D M A

                                 by Anthony Stone

                           version 2.2.06, 22 June 2011

               Distributed Multipoles from Gaussian wavefunctions

Starting at 4:9:20 on 27 Apr 2020

Using SCF density matrix from file ./SSI/SSI-010LEU-132ILE-1-dimer.test.22906.fchk

                         Distributed Multipole Analysis

Standard DMA

Positions and radii in angstrom
Multipole moments in atomic units, ea_0^k for rank k

C          x =  1.225786  y = -0.462766  z = -0.792188 angstrom
           Maximum rank =  0   Radius =  0.650 angstrom
                   Q00  =  -0.248918

C          x =  2.372786  y = -0.814766  z = -1.745188 angstrom
           Maximum rank =  0   Radius =  0.650 angstrom
                   Q00  =  -0.230351

H          x =  1.406786  y =  0.480234  z = -0.279188 angstrom
           Maximum rank =  0   Radius =  0.325 angstrom
                   Q00  =   0.080752

H          x =  0.302786  y = -0.357766  z = -1.364188 angstrom
           Maximum rank =  0   Radius =  0.325 angstrom
                   Q00  =   0.079141

H          x =  1.090786  y = -1.258766  z = -0.057188 angstrom
           Maximum rank =  0   Radius =  0.325 angstrom
                   Q00  =   0.079072

H          x =  2.496786  y =  0.021234  z = -2.432188 angstrom
           Maximum rank =  0   Radius =  0.325 angstrom
                   Q00  =   0.077542

H          x =  3.313566  y = -0.973356  z = -1.197658 angstrom
           Maximum rank =  0   Radius =  0.325 angstrom
                   Q00  =   0.081805

H          x =  2.118036  y = -1.691596  z = -2.358605 angstrom
           Maximum rank =  0   Radius =  0.325 angstrom
                   Q00  =   0.081200

C          x = -1.721214  y = -0.062766  z =  1.574812 angstrom
           Maximum rank =  0   Radius =  0.650 angstrom
                   Q00  =  -0.243446

C          x = -1.881214  y =  1.337234  z =  0.965812 angstrom
           Maximum rank =  0   Radius =  0.650 angstrom
                   Q00  =  -0.232806

H          x = -2.201214  y = -0.812766  z =  0.947812 angstrom
           Maximum rank =  0   Radius =  0.325 angstrom
                   Q00  =   0.077882

H          x = -0.660214  y = -0.304766  z =  1.648812 angstrom
           Maximum rank =  0   Radius =  0.325 angstrom
                   Q00  =   0.081770

H          x = -2.156214  y = -0.086766  z =  2.573812 angstrom
           Maximum rank =  0   Radius =  0.325 angstrom
                   Q00  =   0.078932

H          x = -1.524214  y =  1.330234  z = -0.065188 angstrom
           Maximum rank =  0   Radius =  0.325 angstrom
                   Q00  =   0.080306

H          x = -1.223214  y =  1.987234  z =  1.539812 angstrom
           Maximum rank =  0   Radius =  0.325 angstrom
                   Q00  =   0.075292

H          x = -2.917754  y =  1.703326  z =  1.005292 angstrom
           Maximum rank =  0   Radius =  0.325 angstrom
                   Q00  =   0.081827

Total multipoles referred to origin at
           x =   0.000000,  y =    0.000000,  z =    0.000000 angstrom
                   Q00  =  -0.000000

Finished at 4:9:20 on 27 Apr 2020

  DMA results are available in the Python driver through the
	  variable('DMA DISTRIBUTED MULTIPOLES')
  and
	  variable('DMA TOTAL MULTIPOLES')
  commands.

    Psi4 stopped on: Monday, 27 April 2020 04:09AM
    Psi4 wall time for execution: 0:00:09.50

*** Psi4 exiting successfully. Buy a developer a beer!
