                               Psi4 1.3.2 release

  ==> Input File <==

--------------------------------------------------------------------------
import numpy as np
set {scf_type pk
basis cc-pvdz
d_convergence 10
gdma_switch   0
gdma_limit    0
gdma_origin   [ 0.0,  0.0,  0.0 ]
}
molecule test {
    units Angstrom
    0 1
    --
    0 1
    C               -0.180150165277962    -1.637044529290993    -1.639336231914573
    C                0.472849834722038    -0.249044529290993    -1.616336231914573
    O                1.532849834722038    -0.060044529290993    -1.024336231914573
    N               -0.109150165277962     0.703955470709007    -2.328336231914573
    H               -0.883150165277962    -1.682044529290993    -2.474336231914573
    H               -0.747150165277962    -1.794044529290993    -0.721336231914573
    H                0.348849834722038     1.602955470709007    -2.380336231914573
    H               -0.926150165277962     0.508955470709007    -2.888336231914573
    H                0.573129834722038    -2.426434529290993    -1.778726231914573
    C               -0.534150165277962     0.272955470709007     1.712663768085427
    C                0.677849834722038     0.377955470709007     2.620663768085427
    C               -1.835150165277962     0.532955470709007     2.336663768085427
    H               -0.396150165277962     0.996955470709007     0.907663768085427
    H               -0.554150165277962    -0.727044529290993     1.278663768085427
    H                0.660849834722038     1.345955470709007     3.126663768085427
    H               -2.023150165277962    -0.204044529290993     3.118663768085427
    H               -1.830150165277962     1.526955470709007     2.786663768085427
    H                1.577039834722038     0.309485470709007     1.990773768085427
    H                0.688009834722038    -0.403444529290993     3.394813768085427
    H               -2.644010165277962     0.478985470709007     1.593133768085427

}
e, wfn = energy('scf', return_wfn=True)
gdma(wfn)
dmavals = variable('DMA DISTRIBUTED MULTIPOLES')
charges = np.array(dmavals)
print(charges)
np.save('SSI-198ASN-201LYS-1-dimer.npy', np.array(charges))--------------------------------------------------------------------------

*** tstart() called on ds3
*** at Mon Apr 27 23:05:06 2020

   => Loading Basis Set <=

    Name: CC-PVDZ
    Role: ORBITAL
    Keyword: BASIS
    atoms 1-2, 10-12 entry C          line   138 file /theoryfs2/ds/metcalf/miniconda2/envs/tf2gpu/share/psi4/basis/cc-pvdz.gbs
    atoms 3          entry O          line   198 file /theoryfs2/ds/metcalf/miniconda2/envs/tf2gpu/share/psi4/basis/cc-pvdz.gbs
    atoms 4          entry N          line   168 file /theoryfs2/ds/metcalf/miniconda2/envs/tf2gpu/share/psi4/basis/cc-pvdz.gbs
    atoms 5-9, 13-20 entry H          line    22 file /theoryfs2/ds/metcalf/miniconda2/envs/tf2gpu/share/psi4/basis/cc-pvdz.gbs

         ---------------------------------------------------------
                                   SCF
               by Justin Turney, Rob Parrish, Andy Simmonett
                          and Daniel G. A. Smith
                              RHF Reference
                        1 Threads,    500 MiB Core
         ---------------------------------------------------------

  ==> Geometry <==

    Molecular point group: c1
    Full point group: C1

    Geometry (in Angstrom), charge = 0, multiplicity = 1:

       Center              X                  Y                   Z               Mass
    ------------   -----------------  -----------------  -----------------  -----------------
         C           -0.180150165278    -1.637044529291    -1.639336231915    12.000000000000
         C            0.472849834722    -0.249044529291    -1.616336231915    12.000000000000
         O            1.532849834722    -0.060044529291    -1.024336231915    15.994914619570
         N           -0.109150165278     0.703955470709    -2.328336231915    14.003074004430
         H           -0.883150165278    -1.682044529291    -2.474336231915     1.007825032230
         H           -0.747150165278    -1.794044529291    -0.721336231915     1.007825032230
         H            0.348849834722     1.602955470709    -2.380336231915     1.007825032230
         H           -0.926150165278     0.508955470709    -2.888336231915     1.007825032230
         H            0.573129834722    -2.426434529291    -1.778726231915     1.007825032230
         C           -0.534150165278     0.272955470709     1.712663768085    12.000000000000
         C            0.677849834722     0.377955470709     2.620663768085    12.000000000000
         C           -1.835150165278     0.532955470709     2.336663768085    12.000000000000
         H           -0.396150165278     0.996955470709     0.907663768085     1.007825032230
         H           -0.554150165278    -0.727044529291     1.278663768085     1.007825032230
         H            0.660849834722     1.345955470709     3.126663768085     1.007825032230
         H           -2.023150165278    -0.204044529291     3.118663768085     1.007825032230
         H           -1.830150165278     1.526955470709     2.786663768085     1.007825032230
         H            1.577039834722     0.309485470709     1.990773768085     1.007825032230
         H            0.688009834722    -0.403444529291     3.394813768085     1.007825032230
         H           -2.644010165278     0.478985470709     1.593133768085     1.007825032230

  Running in c1 symmetry.

  Rotational constants: A =      0.11158  B =      0.03401  C =      0.03163 [cm^-1]
  Rotational constants: A =   3345.18944  B =   1019.50741  C =    948.24869 [MHz]
  Nuclear repulsion =  306.978680600547307

  Charge       = 0
  Multiplicity = 1
  Electrons    = 58
  Nalpha       = 29
  Nbeta        = 29

  ==> Algorithm <==

  SCF Algorithm Type is PK.
  DIIS enabled.
  MOM disabled.
  Fractional occupation disabled.
  Guess Type is SAD.
  Energy threshold   = 1.00e-06
  Density threshold  = 1.00e-10
  Integral threshold = 0.00e+00

  ==> Primary Basis <==

  Basis Set: CC-PVDZ
    Blend: CC-PVDZ
    Number of shells: 81
    Number of basis function: 163
    Number of Cartesian functions: 170
    Spherical Harmonics?: true
    Max angular momentum: 2

  ==> Pre-Iterations <==

   -------------------------------------------------------
    Irrep   Nso     Nmo     Nalpha   Nbeta   Ndocc  Nsocc
   -------------------------------------------------------
     A        163     163       0       0       0       0
   -------------------------------------------------------
    Total     163     163      29      29      29       0
   -------------------------------------------------------

  ==> Integral Setup <==

  Using integral reordering PK algorithm.
  Sizing the integral batches needed.
  Building batch lookup table.
   Calculation information:
      Number of atoms:                  20
      Number of AO shells:              81
      Number of primitives:            219
      Number of atomic orbitals:       170
      Number of basis functions:       163

      Integral cutoff                 1.00e-12
      Number of threads:                 1

	Batch   1 pq = [       0,    9405] index = [             0,44231715] size =     44231715
	Batch   2 pq = [    9405,   13366] index = [      44231715,89331661] size =     45099946
  Task number: 9
  Buffer size: 11059200
  Buffer per thread: 2
  We computed 5046202 shell quartets total.
  Whereas there are 5516181 unique shell quartets.

  ==> DiskJK: Disk-Based J/K Matrices <==

    J tasked:                  Yes
    K tasked:                  Yes
    wK tasked:                  No
    Memory [MiB]:              375
    Schwarz Cutoff:          1E-12

    OpenMP threads:              1

  Minimum eigenvalue in the overlap matrix is 4.4862667361E-03.
  Using Symmetric Orthogonalization.

  SCF Guess: Superposition of Atomic Densities via on-the-fly atomic UHF.

  ==> Iterations <==

                        Total Energy        Delta E     RMS |[F,P]|

   @RHF iter SAD:  -325.05146942488000   -3.25051e+02   0.00000e+00
   @RHF iter   1:  -325.99078477522085   -9.39315e-01   4.21638e-03 DIIS
   @RHF iter   2:  -326.19740704476038   -2.06622e-01   2.33403e-03 DIIS
   @RHF iter   3:  -326.25486257151687   -5.74555e-02   4.92461e-04 DIIS
   @RHF iter   4:  -326.25869598926113   -3.83342e-03   2.03580e-04 DIIS
   @RHF iter   5:  -326.25937014821869   -6.74159e-04   3.13508e-05 DIIS
   @RHF iter   6:  -326.25940143297834   -3.12848e-05   1.36445e-05 DIIS
   @RHF iter   7:  -326.25940672807735   -5.29510e-06   5.16176e-06 DIIS
   @RHF iter   8:  -326.25940777257966   -1.04450e-06   1.81180e-06 DIIS
   @RHF iter   9:  -326.25940790546940   -1.32890e-07   5.05185e-07 DIIS
   @RHF iter  10:  -326.25940791264435   -7.17495e-09   1.65484e-07 DIIS
   @RHF iter  11:  -326.25940791356248   -9.18135e-10   3.95342e-08 DIIS
   @RHF iter  12:  -326.25940791361245   -4.99654e-11   9.29727e-09 DIIS
   @RHF iter  13:  -326.25940791361410   -1.64846e-12   2.06042e-09 DIIS
   @RHF iter  14:  -326.25940791361552   -1.42109e-12   7.38069e-10 DIIS
   @RHF iter  15:  -326.25940791361683   -1.30740e-12   2.45493e-10 DIIS
   @RHF iter  16:  -326.25940791361654    2.84217e-13   7.67678e-11 DIIS
  Energy and wave function converged.

  ==> Post-Iterations <==

    Orbital Energies [Eh]
    ---------------------

    Doubly Occupied:

       1A    -20.503466     2A    -15.591898     3A    -11.349808
       4A    -11.244802     5A    -11.206793     6A    -11.203642
       7A    -11.202415     8A     -1.368278     9A     -1.218539
      10A     -1.057107    11A     -0.996821    12A     -0.918922
      13A     -0.801413    14A     -0.782569    15A     -0.730160
      16A     -0.653296    17A     -0.624645    18A     -0.613913
      19A     -0.588655    20A     -0.568498    21A     -0.557279
      22A     -0.546270    23A     -0.526787    24A     -0.521633
      25A     -0.469199    26A     -0.454643    27A     -0.452490
      28A     -0.409251    29A     -0.404209

    Virtual:

      30A      0.158727    31A      0.184649    32A      0.208103
      33A      0.209812    34A      0.221712    35A      0.238948
      36A      0.248690    37A      0.263326    38A      0.271634
      39A      0.280451    40A      0.291748    41A      0.308695
      42A      0.314523    43A      0.345576    44A      0.377667
      45A      0.402068    46A      0.445333    47A      0.480599
      48A      0.564806    49A      0.591779    50A      0.608322
      51A      0.618926    52A      0.627289    53A      0.628558
      54A      0.653611    55A      0.686913    56A      0.706020
      57A      0.715299    58A      0.743970    59A      0.792854
      60A      0.811948    61A      0.828797    62A      0.850927
      63A      0.861769    64A      0.873880    65A      0.893731
      66A      0.899155    67A      0.906068    68A      0.910387
      69A      0.918329    70A      0.919670    71A      0.924144
      72A      0.936558    73A      0.946734    74A      0.959387
      75A      0.973693    76A      0.998467    77A      1.031325
      78A      1.046890    79A      1.053568    80A      1.134478
      81A      1.139920    82A      1.149982    83A      1.186894
      84A      1.237356    85A      1.321347    86A      1.353035
      87A      1.366220    88A      1.406819    89A      1.415646
      90A      1.426662    91A      1.472403    92A      1.484087
      93A      1.490316    94A      1.517412    95A      1.583924
      96A      1.617348    97A      1.659203    98A      1.669958
      99A      1.691451   100A      1.696552   101A      1.710500
     102A      1.741656   103A      1.815966   104A      1.857069
     105A      1.871886   106A      1.884890   107A      1.886559
     108A      1.900780   109A      1.909550   110A      1.917140
     111A      1.924188   112A      1.935561   113A      1.944984
     114A      1.966595   115A      1.982533   116A      1.992060
     117A      2.009666   118A      2.028770   119A      2.033908
     120A      2.041877   121A      2.052978   122A      2.059620
     123A      2.067943   124A      2.167339   125A      2.179263
     126A      2.185048   127A      2.222230   128A      2.270758
     129A      2.300982   130A      2.324455   131A      2.349770
     132A      2.368649   133A      2.423651   134A      2.445961
     135A      2.471530   136A      2.530109   137A      2.545487
     138A      2.561747   139A      2.569114   140A      2.618882
     141A      2.633865   142A      2.639644   143A      2.646758
     144A      2.736635   145A      2.759173   146A      2.764203
     147A      2.772964   148A      2.789071   149A      2.809829
     150A      2.825273   151A      2.847598   152A      2.952522
     153A      2.974066   154A      2.991937   155A      3.005143
     156A      3.093110   157A      3.109406   158A      3.131812
     159A      3.278306   160A      3.493215   161A      3.519146
     162A      3.865297   163A      3.911871

    Final Occupation by Irrep:
              A
    DOCC [    29 ]

  @RHF Final Energy:  -326.25940791361654

   => Energetics <=

    Nuclear Repulsion Energy =            306.9786806005473068
    One-Electron Energy =               -1051.3413759368104365
    Two-Electron Energy =                 418.1032874226466447
    Total Energy =                       -326.2594079136165419

Computation Completed

Properties will be evaluated at   0.000000,   0.000000,   0.000000 [a0]

Properties computed using the SCF density matrix

  Nuclear Dipole Moment: [e a0]
     X:    -5.7636      Y:    -0.4400      Z:     7.4584

  Electronic Dipole Moment: [e a0]
     X:     4.4801      Y:     0.4692      Z:    -8.5424

  Dipole Moment: [e a0]
     X:    -1.2834      Y:     0.0292      Z:    -1.0840     Total:     1.6802

  Dipole Moment: [D]
     X:    -3.2622      Y:     0.0742      Z:    -2.7553     Total:     4.2707

*** tstop() called on ds3 at Mon Apr 27 23:06:04 2020
Module time:
	user time   =      40.01 seconds =       0.67 minutes
	system time =      18.99 seconds =       0.32 minutes
	total time  =         58 seconds =       0.97 minutes
Total time:
	user time   =      40.01 seconds =       0.67 minutes
	system time =      18.99 seconds =       0.32 minutes
	total time  =         58 seconds =       0.97 minutes
                                     G D M A

                                 by Anthony Stone

                           version 2.2.06, 22 June 2011

               Distributed Multipoles from Gaussian wavefunctions

Starting at 23:6:4 on 27 Apr 2020

Using SCF density matrix from file ./SSI/SSI-198ASN-201LYS-1-dimer.test.927.fchk

                         Distributed Multipole Analysis

Standard DMA

Positions and radii in angstrom
Multipole moments in atomic units, ea_0^k for rank k

C          x = -0.180150  y = -1.637045  z = -1.639336 angstrom
           Maximum rank =  0   Radius =  0.650 angstrom
                   Q00  =  -0.263980

C          x =  0.472850  y = -0.249045  z = -1.616336 angstrom
           Maximum rank =  0   Radius =  0.650 angstrom
                   Q00  =   0.814032

O          x =  1.532850  y = -0.060045  z = -1.024336 angstrom
           Maximum rank =  0   Radius =  0.650 angstrom
                   Q00  =  -0.786312

N          x = -0.109150  y =  0.703955  z = -2.328336 angstrom
           Maximum rank =  0   Radius =  0.650 angstrom
                   Q00  =  -0.527142

H          x = -0.883150  y = -1.682045  z = -2.474336 angstrom
           Maximum rank =  0   Radius =  0.325 angstrom
                   Q00  =   0.071763

H          x = -0.747150  y = -1.794045  z = -0.721336 angstrom
           Maximum rank =  0   Radius =  0.325 angstrom
                   Q00  =   0.133737

H          x =  0.348850  y =  1.602955  z = -2.380336 angstrom
           Maximum rank =  0   Radius =  0.325 angstrom
                   Q00  =   0.222001

H          x = -0.926150  y =  0.508955  z = -2.888336 angstrom
           Maximum rank =  0   Radius =  0.325 angstrom
                   Q00  =   0.207687

H          x =  0.573130  y = -2.426435  z = -1.778726 angstrom
           Maximum rank =  0   Radius =  0.325 angstrom
                   Q00  =   0.133129

C          x = -0.534150  y =  0.272955  z =  1.712664 angstrom
           Maximum rank =  0   Radius =  0.650 angstrom
                   Q00  =  -0.044384

C          x =  0.677850  y =  0.377955  z =  2.620664 angstrom
           Maximum rank =  0   Radius =  0.650 angstrom
                   Q00  =  -0.242459

C          x = -1.835150  y =  0.532955  z =  2.336664 angstrom
           Maximum rank =  0   Radius =  0.650 angstrom
                   Q00  =  -0.230237

H          x = -0.396150  y =  0.996955  z =  0.907664 angstrom
           Maximum rank =  0   Radius =  0.325 angstrom
                   Q00  =   0.036561

H          x = -0.554150  y = -0.727045  z =  1.278664 angstrom
           Maximum rank =  0   Radius =  0.325 angstrom
                   Q00  =   0.026662

H          x =  0.660850  y =  1.345955  z =  3.126664 angstrom
           Maximum rank =  0   Radius =  0.325 angstrom
                   Q00  =   0.066860

H          x = -2.023150  y = -0.204045  z =  3.118664 angstrom
           Maximum rank =  0   Radius =  0.325 angstrom
                   Q00  =   0.068418

H          x = -1.830150  y =  1.526955  z =  2.786664 angstrom
           Maximum rank =  0   Radius =  0.325 angstrom
                   Q00  =   0.071344

H          x =  1.577040  y =  0.309485  z =  1.990774 angstrom
           Maximum rank =  0   Radius =  0.325 angstrom
                   Q00  =   0.103987

H          x =  0.688010  y = -0.403445  z =  3.394814 angstrom
           Maximum rank =  0   Radius =  0.325 angstrom
                   Q00  =   0.068772

H          x = -2.644010  y =  0.478985  z =  1.593134 angstrom
           Maximum rank =  0   Radius =  0.325 angstrom
                   Q00  =   0.069562

Total multipoles referred to origin at
           x =   0.000000,  y =    0.000000,  z =    0.000000 angstrom
                   Q00  =  -0.000000

Finished at 23:6:4 on 27 Apr 2020

  DMA results are available in the Python driver through the
	  variable('DMA DISTRIBUTED MULTIPOLES')
  and
	  variable('DMA TOTAL MULTIPOLES')
  commands.

    Psi4 stopped on: Monday, 27 April 2020 11:06PM
    Psi4 wall time for execution: 0:00:57.58

*** Psi4 exiting successfully. Buy a developer a beer!
