                               Psi4 1.3.2 release

  ==> Input File <==

--------------------------------------------------------------------------
import numpy as np
set {scf_type pk
basis cc-pvdz
d_convergence 10
gdma_switch   0
gdma_limit    0
gdma_origin   [ 0.0,  0.0,  0.0 ]
}
molecule test {
    units Angstrom
    0 1
    --
    0 1
    C                3.101987210078067    -0.460195163297888    -0.035018202162605
    C                2.692987210078067     0.962804836702112    -0.409018202162605
    C                2.978987210078067    -0.724195163297888     1.452981797837394
    H                2.451987210078067    -1.156195163297888    -0.565018202162605
    H                4.129987210078068    -0.635195163297887    -0.356018202162605
    H                1.736987210078067     1.184804836702112     0.068981797837395
    H                3.564987210078067     0.023804836702112     1.991981797837394
    H                1.932987210078067    -0.602195163297888     1.744981797837394
    H                2.563457210078067     1.044614836702112    -1.498297202162605
    H                3.448667210078067     1.689614836702113    -0.076290202162605
    H                3.325687210078067    -1.726585163297888     1.744558797837394
    C               -2.488012789921933     2.429804836702112     0.973981797837395
    C               -0.591012789921933    -1.095195163297888    -0.673018202162605
    C               -1.148012789921933    -1.128195163297887     0.595981797837395
    C               -0.619012789921933     0.086804836702112    -1.407018202162605
    C               -1.766012789921933     0.010804836702112     1.116981797837394
    C               -1.229012789921933     1.230804836702112    -0.883018202162605
    C               -1.803012789921933     1.207804836702113     0.391981797837395
    O                0.001987210078067    -2.220195163297888    -1.178018202162606
    H               -1.127012789921933    -2.043195163297888     1.168981797837394
    H               -0.001012789921933    -2.946195163297888    -0.545018202162605
    H               -0.155012789921933     0.105804836702112    -2.380018202162606
    H               -2.212012789921933    -0.031195163297888     2.101981797837394
    H               -1.249012789921933     2.142804836702112    -1.463018202162605
    H               -3.129012789921933     2.101804836702112     1.791981797837394
    H               -3.145012789921933     2.860804836702112     0.216981797837395
    H               -1.807732789921933     3.205114836702113     1.356235797837394

}
e, wfn = energy('scf', return_wfn=True)
gdma(wfn)
dmavals = variable('DMA DISTRIBUTED MULTIPOLES')
charges = np.array(dmavals)
print(charges)
np.save('SSI-006GLU-010TYR-1-dimer.npy', np.array(charges))--------------------------------------------------------------------------

*** tstart() called on ds3
*** at Tue Apr 28 13:24:36 2020

   => Loading Basis Set <=

    Name: CC-PVDZ
    Role: ORBITAL
    Keyword: BASIS
    atoms 1-3, 12-18  entry C          line   138 file /theoryfs2/ds/metcalf/miniconda2/envs/tf2gpu/share/psi4/basis/cc-pvdz.gbs
    atoms 4-11, 20-27 entry H          line    22 file /theoryfs2/ds/metcalf/miniconda2/envs/tf2gpu/share/psi4/basis/cc-pvdz.gbs
    atoms 19          entry O          line   198 file /theoryfs2/ds/metcalf/miniconda2/envs/tf2gpu/share/psi4/basis/cc-pvdz.gbs

         ---------------------------------------------------------
                                   SCF
               by Justin Turney, Rob Parrish, Andy Simmonett
                          and Daniel G. A. Smith
                              RHF Reference
                        1 Threads,    500 MiB Core
         ---------------------------------------------------------

  ==> Geometry <==

    Molecular point group: c1
    Full point group: C1

    Geometry (in Angstrom), charge = 0, multiplicity = 1:

       Center              X                  Y                   Z               Mass
    ------------   -----------------  -----------------  -----------------  -----------------
         C            3.101987210078    -0.460195163298    -0.035018202163    12.000000000000
         C            2.692987210078     0.962804836702    -0.409018202163    12.000000000000
         C            2.978987210078    -0.724195163298     1.452981797837    12.000000000000
         H            2.451987210078    -1.156195163298    -0.565018202163     1.007825032230
         H            4.129987210078    -0.635195163298    -0.356018202163     1.007825032230
         H            1.736987210078     1.184804836702     0.068981797837     1.007825032230
         H            3.564987210078     0.023804836702     1.991981797837     1.007825032230
         H            1.932987210078    -0.602195163298     1.744981797837     1.007825032230
         H            2.563457210078     1.044614836702    -1.498297202163     1.007825032230
         H            3.448667210078     1.689614836702    -0.076290202163     1.007825032230
         H            3.325687210078    -1.726585163298     1.744558797837     1.007825032230
         C           -2.488012789922     2.429804836702     0.973981797837    12.000000000000
         C           -0.591012789922    -1.095195163298    -0.673018202163    12.000000000000
         C           -1.148012789922    -1.128195163298     0.595981797837    12.000000000000
         C           -0.619012789922     0.086804836702    -1.407018202163    12.000000000000
         C           -1.766012789922     0.010804836702     1.116981797837    12.000000000000
         C           -1.229012789922     1.230804836702    -0.883018202163    12.000000000000
         C           -1.803012789922     1.207804836702     0.391981797837    12.000000000000
         O            0.001987210078    -2.220195163298    -1.178018202163    15.994914619570
         H           -1.127012789922    -2.043195163298     1.168981797837     1.007825032230
         H           -0.001012789922    -2.946195163298    -0.545018202163     1.007825032230
         H           -0.155012789922     0.105804836702    -2.380018202163     1.007825032230
         H           -2.212012789922    -0.031195163298     2.101981797837     1.007825032230
         H           -1.249012789922     2.142804836702    -1.463018202163     1.007825032230
         H           -3.129012789922     2.101804836702     1.791981797837     1.007825032230
         H           -3.145012789922     2.860804836702     0.216981797837     1.007825032230
         H           -1.807732789922     3.205114836702     1.356235797837     1.007825032230

  Running in c1 symmetry.

  Rotational constants: A =      0.04303  B =      0.02136  C =      0.01855 [cm^-1]
  Rotational constants: A =   1290.15405  B =    640.26954  C =    556.23848 [MHz]
  Nuclear repulsion =  598.602772795071360

  Charge       = 0
  Multiplicity = 1
  Electrons    = 84
  Nalpha       = 42
  Nbeta        = 42

  ==> Algorithm <==

  SCF Algorithm Type is PK.
  DIIS enabled.
  MOM disabled.
  Fractional occupation disabled.
  Guess Type is SAD.
  Energy threshold   = 1.00e-06
  Density threshold  = 1.00e-10
  Integral threshold = 0.00e+00

  ==> Primary Basis <==

  Basis Set: CC-PVDZ
    Blend: CC-PVDZ
    Number of shells: 114
    Number of basis function: 234
    Number of Cartesian functions: 245
    Spherical Harmonics?: true
    Max angular momentum: 2

  ==> Pre-Iterations <==

   -------------------------------------------------------
    Irrep   Nso     Nmo     Nalpha   Nbeta   Ndocc  Nsocc
   -------------------------------------------------------
     A        234     234       0       0       0       0
   -------------------------------------------------------
    Total     234     234      42      42      42       0
   -------------------------------------------------------

  ==> Integral Setup <==

  Using integral reordering PK algorithm.
  Sizing the integral batches needed.
  Building batch lookup table.
   Calculation information:
      Number of atoms:                  27
      Number of AO shells:             114
      Number of primitives:            322
      Number of atomic orbitals:       245
      Number of basis functions:       234

      Integral cutoff                 1.00e-12
      Number of threads:                 1

	Batch   1 pq = [       0,    9405] index = [             0,44231715] size =     44231715
	Batch   2 pq = [    9405,   13301] index = [      44231715,88464951] size =     44233236
	Batch   3 pq = [   13301,   16290] index = [      88464951,132690195] size =     44225244
	Batch   4 pq = [   16290,   18810] index = [     132690195,176917455] size =     44227260
	Batch   5 pq = [   18810,   21030] index = [     176917455,221140965] size =     44223510
	Batch   6 pq = [   21030,   23037] index = [     221140965,265363203] size =     44222238
	Batch   7 pq = [   23037,   24883] index = [     265363203,309594286] size =     44231083
	Batch   8 pq = [   24883,   26601] index = [     309594286,353819901] size =     44225615
	Batch   9 pq = [   26601,   27495] index = [     353819901,378001260] size =     24181359
  Task number: 35
  Buffer size: 11059200
  Buffer per thread: 2
  We computed 22284444 shell quartets total.
  Whereas there are 21487290 unique shell quartets.
     3.71 percent of shell quartets recomputed by reordering.

  ==> DiskJK: Disk-Based J/K Matrices <==

    J tasked:                  Yes
    K tasked:                  Yes
    wK tasked:                  No
    Memory [MiB]:              375
    Schwarz Cutoff:          1E-12

    OpenMP threads:              1

  Minimum eigenvalue in the overlap matrix is 3.2555229350E-04.
  Using Symmetric Orthogonalization.

  SCF Guess: Superposition of Atomic Densities via on-the-fly atomic UHF.

  ==> Iterations <==

                        Total Energy        Delta E     RMS |[F,P]|

   @RHF iter SAD:  -461.67135498116284   -4.61671e+02   0.00000e+00
   @RHF iter   1:  -462.60743406234849   -9.36079e-01   2.81835e-03 DIIS
   @RHF iter   2:  -462.84956949356086   -2.42135e-01   1.20444e-03 DIIS
   @RHF iter   3:  -462.88966851008968   -4.00990e-02   2.63725e-04 DIIS
   @RHF iter   4:  -462.89291072089566   -3.24221e-03   9.44752e-05 DIIS
   @RHF iter   5:  -462.89319574845274   -2.85028e-04   2.14191e-05 DIIS
   @RHF iter   6:  -462.89321594320938   -2.01948e-05   6.63210e-06 DIIS
   @RHF iter   7:  -462.89321805098371   -2.10777e-06   1.84987e-06 DIIS
   @RHF iter   8:  -462.89321828805043   -2.37067e-07   7.03679e-07 DIIS
   @RHF iter   9:  -462.89321832301965   -3.49692e-08   2.73967e-07 DIIS
   @RHF iter  10:  -462.89321832879352   -5.77387e-09   1.05190e-07 DIIS
   @RHF iter  11:  -462.89321833047325   -1.67972e-09   4.86458e-08 DIIS
   @RHF iter  12:  -462.89321833087615   -4.02906e-10   2.34384e-08 DIIS
   @RHF iter  13:  -462.89321833093913   -6.29825e-11   8.29961e-09 DIIS
   @RHF iter  14:  -462.89321833095312   -1.39835e-11   2.04076e-09 DIIS
   @RHF iter  15:  -462.89321833095255    5.68434e-13   7.91555e-10 DIIS
   @RHF iter  16:  -462.89321833094948    3.06954e-12   2.97833e-10 DIIS
   @RHF iter  17:  -462.89321833095261   -3.12639e-12   1.42008e-10 DIIS
   @RHF iter  18:  -462.89321833095391   -1.30740e-12   7.31621e-11 DIIS
  Energy and wave function converged.

  ==> Post-Iterations <==

    Orbital Energies [Eh]
    ---------------------

    Doubly Occupied:

       1A    -20.586420     2A    -11.300831     3A    -11.242011
       4A    -11.241609     5A    -11.237973     6A    -11.235230
       7A    -11.233474     8A    -11.230605     9A    -11.208533
      10A    -11.207559    11A    -11.206130    12A     -1.400347
      13A     -1.151212    14A     -1.046639    15A     -1.038290
      16A     -1.018279    17A     -0.928408    18A     -0.914266
      19A     -0.846100    20A     -0.803797    21A     -0.786220
      22A     -0.733432    23A     -0.669484    24A     -0.643800
      25A     -0.621068    26A     -0.608020    27A     -0.589759
      28A     -0.586897    29A     -0.584989    30A     -0.571077
      31A     -0.569461    32A     -0.536792    33A     -0.527153
      34A     -0.522198    35A     -0.499099    36A     -0.486499
      37A     -0.472920    38A     -0.465184    39A     -0.457858
      40A     -0.453718    41A     -0.338938    42A     -0.305510

    Virtual:

      43A      0.126506    44A      0.152545    45A      0.169038
      46A      0.183334    47A      0.199195    48A      0.211305
      49A      0.217833    50A      0.241423    51A      0.244906
      52A      0.252091    53A      0.262386    54A      0.269884
      55A      0.272131    56A      0.282949    57A      0.295209
      58A      0.305871    59A      0.320110    60A      0.328559
      61A      0.366179    62A      0.372857    63A      0.383895
      64A      0.431166    65A      0.438788    66A      0.451002
      67A      0.477782    68A      0.494380    69A      0.510881
      70A      0.582307    71A      0.597550    72A      0.599260
      73A      0.612822    74A      0.624645    75A      0.631191
      76A      0.635994    77A      0.653581    78A      0.668558
      79A      0.681475    80A      0.703865    81A      0.728609
      82A      0.734427    83A      0.753195    84A      0.754823
      85A      0.767318    86A      0.772508    87A      0.786731
      88A      0.801654    89A      0.809552    90A      0.824560
      91A      0.842654    92A      0.855560    93A      0.865236
      94A      0.870603    95A      0.879796    96A      0.879983
      97A      0.885276    98A      0.891722    99A      0.896428
     100A      0.915397   101A      0.918923   102A      0.922372
     103A      0.930870   104A      0.934011   105A      0.942649
     106A      0.942799   107A      0.962384   108A      0.978653
     109A      0.991169   110A      0.997894   111A      1.020906
     112A      1.023998   113A      1.042494   114A      1.080030
     115A      1.121366   116A      1.132516   117A      1.147182
     118A      1.147636   119A      1.149392   120A      1.177163
     121A      1.196645   122A      1.226095   123A      1.243055
     124A      1.256150   125A      1.260290   126A      1.298728
     127A      1.308709   128A      1.311399   129A      1.339937
     130A      1.352472   131A      1.364060   132A      1.383927
     133A      1.389617   134A      1.469706   135A      1.490730
     136A      1.494038   137A      1.512866   138A      1.532535
     139A      1.548783   140A      1.560178   141A      1.607977
     142A      1.621834   143A      1.662228   144A      1.679951
     145A      1.690327   146A      1.692528   147A      1.699168
     148A      1.717331   149A      1.738853   150A      1.746604
     151A      1.780222   152A      1.813787   153A      1.828498
     154A      1.856846   155A      1.858578   156A      1.881810
     157A      1.890261   158A      1.893718   159A      1.900143
     160A      1.907989   161A      1.909459   162A      1.926245
     163A      1.935153   164A      1.939688   165A      1.946826
     166A      1.960651   167A      1.971907   168A      1.976146
     169A      1.980560   170A      1.987289   171A      1.989484
     172A      2.006056   173A      2.017088   174A      2.020402
     175A      2.035947   176A      2.043787   177A      2.059282
     178A      2.067530   179A      2.070523   180A      2.095744
     181A      2.140885   182A      2.141867   183A      2.147614
     184A      2.164615   185A      2.186546   186A      2.198415
     187A      2.220603   188A      2.254509   189A      2.269048
     190A      2.297105   191A      2.308187   192A      2.313055
     193A      2.319189   194A      2.333853   195A      2.352000
     196A      2.405021   197A      2.420490   198A      2.457333
     199A      2.470679   200A      2.487930   201A      2.501766
     202A      2.523845   203A      2.540728   204A      2.577034
     205A      2.594583   206A      2.603325   207A      2.622625
     208A      2.644447   209A      2.655306   210A      2.741623
     211A      2.763058   212A      2.768738   213A      2.785245
     214A      2.790199   215A      2.804871   216A      2.814867
     217A      2.834141   218A      2.844767   219A      2.890536
     220A      2.930585   221A      2.957139   222A      2.986285
     223A      2.992944   224A      3.009614   225A      3.072478
     226A      3.088407   227A      3.103790   228A      3.248191
     229A      3.281549   230A      3.342839   231A      3.577622
     232A      3.659309   233A      3.974013   234A      4.183418

    Final Occupation by Irrep:
              A
    DOCC [    42 ]

  @RHF Final Energy:  -462.89321833095391

   => Energetics <=

    Nuclear Repulsion Energy =            598.6027727950713597
    One-Electron Energy =               -1814.7764021312300429
    Two-Electron Energy =                 753.2804110052047690
    Total Energy =                       -462.8932183309539141

Computation Completed

Properties will be evaluated at   0.000000,   0.000000,   0.000000 [a0]

Properties computed using the SCF density matrix

  Nuclear Dipole Moment: [e a0]
     X:     9.6831      Y:     4.8814      Z:     4.9657

  Electronic Dipole Moment: [e a0]
     X:   -10.0057      Y:    -4.9822      Z:    -4.4908

  Dipole Moment: [e a0]
     X:    -0.3227      Y:    -0.1007      Z:     0.4749     Total:     0.5829

  Dipole Moment: [D]
     X:    -0.8202      Y:    -0.2560      Z:     1.2072     Total:     1.4817

*** tstop() called on ds3 at Tue Apr 28 13:29:52 2020
Module time:
	user time   =     163.61 seconds =       2.73 minutes
	system time =      55.56 seconds =       0.93 minutes
	total time  =        316 seconds =       5.27 minutes
Total time:
	user time   =     163.61 seconds =       2.73 minutes
	system time =      55.56 seconds =       0.93 minutes
	total time  =        316 seconds =       5.27 minutes
                                     G D M A

                                 by Anthony Stone

                           version 2.2.06, 22 June 2011

               Distributed Multipoles from Gaussian wavefunctions

Starting at 13:29:52 on 28 Apr 2020

Using SCF density matrix from file ./SSI/SSI-006GLU-010TYR-1-dimer.test.16047.fchk

                         Distributed Multipole Analysis

Standard DMA

Positions and radii in angstrom
Multipole moments in atomic units, ea_0^k for rank k

C          x =  3.101987  y = -0.460195  z = -0.035018 angstrom
           Maximum rank =  0   Radius =  0.650 angstrom
                   Q00  =  -0.088937

C          x =  2.692987  y =  0.962805  z = -0.409018 angstrom
           Maximum rank =  0   Radius =  0.650 angstrom
                   Q00  =  -0.233655

C          x =  2.978987  y = -0.724195  z =  1.452982 angstrom
           Maximum rank =  0   Radius =  0.650 angstrom
                   Q00  =  -0.236430

H          x =  2.451987  y = -1.156195  z = -0.565018 angstrom
           Maximum rank =  0   Radius =  0.325 angstrom
                   Q00  =   0.046561

H          x =  4.129987  y = -0.635195  z = -0.356018 angstrom
           Maximum rank =  0   Radius =  0.325 angstrom
                   Q00  =   0.040525

H          x =  1.736987  y =  1.184805  z =  0.068982 angstrom
           Maximum rank =  0   Radius =  0.325 angstrom
                   Q00  =   0.084851

H          x =  3.564987  y =  0.023805  z =  1.991982 angstrom
           Maximum rank =  0   Radius =  0.325 angstrom
                   Q00  =   0.069718

H          x =  1.932987  y = -0.602195  z =  1.744982 angstrom
           Maximum rank =  0   Radius =  0.325 angstrom
                   Q00  =   0.078507

H          x =  2.563457  y =  1.044615  z = -1.498297 angstrom
           Maximum rank =  0   Radius =  0.325 angstrom
                   Q00  =   0.078980

H          x =  3.448667  y =  1.689615  z = -0.076290 angstrom
           Maximum rank =  0   Radius =  0.325 angstrom
                   Q00  =   0.069965

H          x =  3.325687  y = -1.726585  z =  1.744559 angstrom
           Maximum rank =  0   Radius =  0.325 angstrom
                   Q00  =   0.077478

C          x = -2.488013  y =  2.429805  z =  0.973982 angstrom
           Maximum rank =  0   Radius =  0.650 angstrom
                   Q00  =  -0.199641

C          x = -0.591013  y = -1.095195  z = -0.673018 angstrom
           Maximum rank =  0   Radius =  0.650 angstrom
                   Q00  =   0.319279

C          x = -1.148013  y = -1.128195  z =  0.595982 angstrom
           Maximum rank =  0   Radius =  0.650 angstrom
                   Q00  =  -0.174927

C          x = -0.619013  y =  0.086805  z = -1.407018 angstrom
           Maximum rank =  0   Radius =  0.650 angstrom
                   Q00  =  -0.059922

C          x = -1.766013  y =  0.010805  z =  1.116982 angstrom
           Maximum rank =  0   Radius =  0.650 angstrom
                   Q00  =   0.009380

C          x = -1.229013  y =  1.230805  z = -0.883018 angstrom
           Maximum rank =  0   Radius =  0.650 angstrom
                   Q00  =  -0.057895

C          x = -1.803013  y =  1.207805  z =  0.391982 angstrom
           Maximum rank =  0   Radius =  0.650 angstrom
                   Q00  =  -0.140517

O          x =  0.001987  y = -2.220195  z = -1.178018 angstrom
           Maximum rank =  0   Radius =  0.650 angstrom
                   Q00  =  -0.677354

H          x = -1.127013  y = -2.043195  z =  1.168982 angstrom
           Maximum rank =  0   Radius =  0.325 angstrom
                   Q00  =   0.070566

H          x = -0.001013  y = -2.946195  z = -0.545018 angstrom
           Maximum rank =  0   Radius =  0.325 angstrom
                   Q00  =   0.408786

H          x = -0.155013  y =  0.105805  z = -2.380018 angstrom
           Maximum rank =  0   Radius =  0.325 angstrom
                   Q00  =   0.082446

H          x = -2.212013  y = -0.031195  z =  2.101982 angstrom
           Maximum rank =  0   Radius =  0.325 angstrom
                   Q00  =   0.070580

H          x = -1.249013  y =  2.142805  z = -1.463018 angstrom
           Maximum rank =  0   Radius =  0.325 angstrom
                   Q00  =   0.065792

H          x = -3.129013  y =  2.101805  z =  1.791982 angstrom
           Maximum rank =  0   Radius =  0.325 angstrom
                   Q00  =   0.095287

H          x = -3.145013  y =  2.860805  z =  0.216982 angstrom
           Maximum rank =  0   Radius =  0.325 angstrom
                   Q00  =   0.098150

H          x = -1.807733  y =  3.205115  z =  1.356236 angstrom
           Maximum rank =  0   Radius =  0.325 angstrom
                   Q00  =   0.102427

Total multipoles referred to origin at
           x =   0.000000,  y =    0.000000,  z =    0.000000 angstrom
                   Q00  =  -0.000000

Finished at 13:29:53 on 28 Apr 2020

  DMA results are available in the Python driver through the
	  variable('DMA DISTRIBUTED MULTIPOLES')
  and
	  variable('DMA TOTAL MULTIPOLES')
  commands.

    Psi4 stopped on: Tuesday, 28 April 2020 01:29PM
    Psi4 wall time for execution: 0:05:16.90

*** Psi4 exiting successfully. Buy a developer a beer!
