                               Psi4 1.3.2 release

  ==> Input File <==

--------------------------------------------------------------------------
import numpy as np
set {scf_type pk
basis cc-pvdz
d_convergence 10
gdma_switch   0
gdma_limit    0
gdma_origin   [ 0.0,  0.0,  0.0 ]
}
molecule test {
    units Angstrom
    0 1
    --
    0 1
    C                2.575786436827470     2.469364709133749    -0.493691147423330
    C                3.943786436827470     3.039364709133749    -0.143691147423331
    H                2.609786436827470     1.378364709133749    -0.490691147423330
    H                1.839786436827470     2.806364709133749     0.236308852576670
    H                2.262786436827470     2.818364709133749    -1.477691147423330
    H                3.908786436827470     4.124364709133749    -0.228691147423330
    H                4.726866436827470     2.641262709133749    -0.805735147423331
    H                4.189716436827470     2.773327709133749     0.894934852576669
    C               -0.722213563172530     1.524364709133749    -1.551691147423331
    C               -1.503213563172530     1.220364709133749    -2.837691147423330
    C               -1.072213563172530     0.617364709133749    -0.376691147423331
    C               -2.137213563172530     0.727364709133749     0.471308852576670
    C               -0.361213563172530    -0.563635290866251     0.044308852576669
    C               -1.069213563172530    -1.130635290866251     1.144308852576670
    C                0.771786436827470    -1.236635290866251    -0.446691147423331
    C               -0.631213563172530    -2.284635290866251     1.788308852576670
    C                1.218786436827470    -2.378635290866251     0.204308852576670
    C                0.520786436827470    -2.894635290866251     1.311308852576670
    N               -2.134213563172530    -0.306635290866251     1.394308852576669
    H                0.338786436827470     1.415364709133749    -1.768691147423330
    H               -0.901213563172530     2.560364709133749    -1.261691147423331
    H               -1.074213563172530     1.824364709133749    -3.639691147423330
    H               -2.887213563172530     1.493364709133749     0.440308852576670
    H               -2.826213563172530    -0.423635290866251     2.127308852576670
    H                1.311786436827470    -0.836635290866251    -1.293691147423330
    H               -1.168213563172530    -2.685635290866251     2.637308852576670
    H                2.110786436827470    -2.885635290866251    -0.134691147423331
    H                0.887786436827470    -3.788635290866251     1.801308852576669
    H               -2.566203563172530     1.487420109133749    -2.744184147423331
    H               -1.380373563172530     0.162247709133749    -3.112098147423330

}
e, wfn = energy('scf', return_wfn=True)
gdma(wfn)
dmavals = variable('DMA DISTRIBUTED MULTIPOLES')
charges = np.array(dmavals)
print(charges)
np.save('SSI-025THR-100TRP-1-dimer.npy', np.array(charges))--------------------------------------------------------------------------

*** tstart() called on ds3
*** at Mon Apr 27 06:33:16 2020

   => Loading Basis Set <=

    Name: CC-PVDZ
    Role: ORBITAL
    Keyword: BASIS
    atoms 1-2, 9-18  entry C          line   138 file /theoryfs2/ds/metcalf/miniconda2/envs/tf2gpu/share/psi4/basis/cc-pvdz.gbs
    atoms 3-8, 20-30 entry H          line    22 file /theoryfs2/ds/metcalf/miniconda2/envs/tf2gpu/share/psi4/basis/cc-pvdz.gbs
    atoms 19         entry N          line   168 file /theoryfs2/ds/metcalf/miniconda2/envs/tf2gpu/share/psi4/basis/cc-pvdz.gbs

         ---------------------------------------------------------
                                   SCF
               by Justin Turney, Rob Parrish, Andy Simmonett
                          and Daniel G. A. Smith
                              RHF Reference
                        1 Threads,    500 MiB Core
         ---------------------------------------------------------

  ==> Geometry <==

    Molecular point group: c1
    Full point group: C1

    Geometry (in Angstrom), charge = 0, multiplicity = 1:

       Center              X                  Y                   Z               Mass
    ------------   -----------------  -----------------  -----------------  -----------------
         C            2.575786436827     2.469364709134    -0.493691147423    12.000000000000
         C            3.943786436827     3.039364709134    -0.143691147423    12.000000000000
         H            2.609786436827     1.378364709134    -0.490691147423     1.007825032230
         H            1.839786436827     2.806364709134     0.236308852577     1.007825032230
         H            2.262786436827     2.818364709134    -1.477691147423     1.007825032230
         H            3.908786436827     4.124364709134    -0.228691147423     1.007825032230
         H            4.726866436827     2.641262709134    -0.805735147423     1.007825032230
         H            4.189716436827     2.773327709134     0.894934852577     1.007825032230
         C           -0.722213563173     1.524364709134    -1.551691147423    12.000000000000
         C           -1.503213563173     1.220364709134    -2.837691147423    12.000000000000
         C           -1.072213563173     0.617364709134    -0.376691147423    12.000000000000
         C           -2.137213563173     0.727364709134     0.471308852577    12.000000000000
         C           -0.361213563173    -0.563635290866     0.044308852577    12.000000000000
         C           -1.069213563173    -1.130635290866     1.144308852577    12.000000000000
         C            0.771786436827    -1.236635290866    -0.446691147423    12.000000000000
         C           -0.631213563173    -2.284635290866     1.788308852577    12.000000000000
         C            1.218786436827    -2.378635290866     0.204308852577    12.000000000000
         C            0.520786436827    -2.894635290866     1.311308852577    12.000000000000
         N           -2.134213563173    -0.306635290866     1.394308852577    14.003074004430
         H            0.338786436827     1.415364709134    -1.768691147423     1.007825032230
         H           -0.901213563173     2.560364709134    -1.261691147423     1.007825032230
         H           -1.074213563173     1.824364709134    -3.639691147423     1.007825032230
         H           -2.887213563173     1.493364709134     0.440308852577     1.007825032230
         H           -2.826213563173    -0.423635290866     2.127308852577     1.007825032230
         H            1.311786436827    -0.836635290866    -1.293691147423     1.007825032230
         H           -1.168213563173    -2.685635290866     2.637308852577     1.007825032230
         H            2.110786436827    -2.885635290866    -0.134691147423     1.007825032230
         H            0.887786436827    -3.788635290866     1.801308852577     1.007825032230
         H           -2.566203563173     1.487420109134    -2.744184147423     1.007825032230
         H           -1.380373563173     0.162247709134    -3.112098147423     1.007825032230

  Running in c1 symmetry.

  Rotational constants: A =      0.02623  B =      0.01681  C =      0.01265 [cm^-1]
  Rotational constants: A =    786.46584  B =    504.02892  C =    379.27293 [MHz]
  Nuclear repulsion =  748.183393702960757

  Charge       = 0
  Multiplicity = 1
  Electrons    = 96
  Nalpha       = 48
  Nbeta        = 48

  ==> Algorithm <==

  SCF Algorithm Type is PK.
  DIIS enabled.
  MOM disabled.
  Fractional occupation disabled.
  Guess Type is SAD.
  Energy threshold   = 1.00e-06
  Density threshold  = 1.00e-10
  Integral threshold = 0.00e+00

  ==> Primary Basis <==

  Basis Set: CC-PVDZ
    Blend: CC-PVDZ
    Number of shells: 129
    Number of basis function: 267
    Number of Cartesian functions: 280
    Spherical Harmonics?: true
    Max angular momentum: 2

  ==> Pre-Iterations <==

   -------------------------------------------------------
    Irrep   Nso     Nmo     Nalpha   Nbeta   Ndocc  Nsocc
   -------------------------------------------------------
     A        267     267       0       0       0       0
   -------------------------------------------------------
    Total     267     267      48      48      48       0
   -------------------------------------------------------

  ==> Integral Setup <==

  Using integral reordering PK algorithm.
  Sizing the integral batches needed.
  Building batch lookup table.
   Calculation information:
      Number of atoms:                  30
      Number of AO shells:             129
      Number of primitives:            371
      Number of atomic orbitals:       280
      Number of basis functions:       267

      Integral cutoff                 1.00e-12
      Number of threads:                 1

	Batch   1 pq = [       0,    9405] index = [             0,44231715] size =     44231715
	Batch   2 pq = [    9405,   13301] index = [      44231715,88464951] size =     44233236
	Batch   3 pq = [   13301,   16290] index = [      88464951,132690195] size =     44225244
	Batch   4 pq = [   16290,   18810] index = [     132690195,176917455] size =     44227260
	Batch   5 pq = [   18810,   21030] index = [     176917455,221140965] size =     44223510
	Batch   6 pq = [   21030,   23037] index = [     221140965,265363203] size =     44222238
	Batch   7 pq = [   23037,   24883] index = [     265363203,309594286] size =     44231083
	Batch   8 pq = [   24883,   26601] index = [     309594286,353819901] size =     44225615
	Batch   9 pq = [   26601,   28214] index = [     353819901,398029005] size =     44209104
	Batch  10 pq = [   28214,   29740] index = [     398029005,442248670] size =     44219665
	Batch  11 pq = [   29740,   31191] index = [     442248670,486454836] size =     44206166
	Batch  12 pq = [   31191,   32578] index = [     486454836,530679331] size =     44224495
	Batch  13 pq = [   32578,   33908] index = [     530679331,574893186] size =     44213855
	Batch  14 pq = [   33908,   35188] index = [     574893186,619115266] size =     44222080
	Batch  15 pq = [   35188,   35778] index = [     619115266,640050531] size =     20935265
  Task number: 58
  Buffer size: 11059200
  Buffer per thread: 2
  We computed 34812439 shell quartets total.
  Whereas there are 35158305 unique shell quartets.

  ==> DiskJK: Disk-Based J/K Matrices <==

    J tasked:                  Yes
    K tasked:                  Yes
    wK tasked:                  No
    Memory [MiB]:              375
    Schwarz Cutoff:          1E-12

    OpenMP threads:              1

  Minimum eigenvalue in the overlap matrix is 2.4515748986E-04.
  Using Symmetric Orthogonalization.

  SCF Guess: Superposition of Atomic Densities via on-the-fly atomic UHF.

  ==> Iterations <==

                        Total Energy        Delta E     RMS |[F,P]|

   @RHF iter SAD:  -517.92552567526570   -5.17926e+02   0.00000e+00
   @RHF iter   1:  -518.49845127689957   -5.72926e-01   2.47596e-03 DIIS
   @RHF iter   2:  -518.75271281472840   -2.54262e-01   1.10499e-03 DIIS
   @RHF iter   3:  -518.79882834455896   -4.61155e-02   2.91917e-04 DIIS
   @RHF iter   4:  -518.80309100834222   -4.26266e-03   1.37037e-04 DIIS
   @RHF iter   5:  -518.80384253195621   -7.51524e-04   1.91185e-05 DIIS
   @RHF iter   6:  -518.80387475875466   -3.22268e-05   8.59207e-06 DIIS
   @RHF iter   7:  -518.80388101408130   -6.25533e-06   3.70304e-06 DIIS
   @RHF iter   8:  -518.80388285021218   -1.83613e-06   1.47914e-06 DIIS
   @RHF iter   9:  -518.80388325917431   -4.08962e-07   6.56012e-07 DIIS
   @RHF iter  10:  -518.80388333919541   -8.00211e-08   3.04315e-07 DIIS
   @RHF iter  11:  -518.80388335744169   -1.82463e-08   1.16501e-07 DIIS
   @RHF iter  12:  -518.80388336018279   -2.74110e-09   4.52017e-08 DIIS
   @RHF iter  13:  -518.80388336042938   -2.46587e-10   1.40560e-08 DIIS
   @RHF iter  14:  -518.80388336044859   -1.92131e-11   4.76094e-09 DIIS
   @RHF iter  15:  -518.80388336044848    1.13687e-13   2.00317e-09 DIIS
   @RHF iter  16:  -518.80388336044734    1.13687e-12   9.24509e-10 DIIS
   @RHF iter  17:  -518.80388336044848   -1.13687e-12   4.56773e-10 DIIS
   @RHF iter  18:  -518.80388336044643    2.04636e-12   1.74355e-10 DIIS
   @RHF iter  19:  -518.80388336045110   -4.66116e-12   6.38292e-11 DIIS
  Energy and wave function converged.

  ==> Post-Iterations <==

    Orbital Energies [Eh]
    ---------------------

    Doubly Occupied:

       1A    -15.601684     2A    -11.264480     3A    -11.263528
       4A    -11.230749     5A    -11.230603     6A    -11.229294
       7A    -11.228384     8A    -11.221924     9A    -11.220929
      10A    -11.218800    11A    -11.218227    12A    -11.214437
      13A    -11.211185    14A     -1.290829    15A     -1.125633
      16A     -1.077628    17A     -1.015169    18A     -1.012523
      19A     -0.991407    20A     -0.965711    21A     -0.854921
      22A     -0.837419    23A     -0.831435    24A     -0.802000
      25A     -0.746384    26A     -0.717512    27A     -0.661457
      28A     -0.643617    29A     -0.614285    30A     -0.596099
      31A     -0.593251    32A     -0.591870    33A     -0.585337
      34A     -0.583355    35A     -0.571365    36A     -0.545876
      37A     -0.514589    38A     -0.506004    39A     -0.502249
      40A     -0.493230    41A     -0.482750    42A     -0.481469
      43A     -0.474325    44A     -0.461619    45A     -0.459159
      46A     -0.372139    47A     -0.293804    48A     -0.274150

    Virtual:

      49A      0.124696    50A      0.169369    51A      0.175467
      52A      0.181211    53A      0.194368    54A      0.201150
      55A      0.217627    56A      0.223063    57A      0.230381
      58A      0.237830    59A      0.250350    60A      0.256216
      61A      0.265616    62A      0.271474    63A      0.277485
      64A      0.290442    65A      0.294930    66A      0.299005
      67A      0.312623    68A      0.335366    69A      0.377160
      70A      0.387265    71A      0.400794    72A      0.409423
      73A      0.424777    74A      0.432377    75A      0.446602
      76A      0.473456    77A      0.483282    78A      0.509933
      79A      0.520781    80A      0.573339    81A      0.596216
      82A      0.600846    83A      0.604569    84A      0.615565
      85A      0.619742    86A      0.643606    87A      0.649988
      88A      0.665891    89A      0.673981    90A      0.695700
      91A      0.699215    92A      0.715110    93A      0.723950
      94A      0.730443    95A      0.741818    96A      0.746107
      97A      0.750012    98A      0.758885    99A      0.762887
     100A      0.769311   101A      0.790954   102A      0.792582
     103A      0.794497   104A      0.832034   105A      0.844193
     106A      0.861929   107A      0.876765   108A      0.881023
     109A      0.886425   110A      0.890564   111A      0.896506
     112A      0.898478   113A      0.899660   114A      0.907580
     115A      0.915579   116A      0.918286   117A      0.929429
     118A      0.935108   119A      0.943218   120A      0.958123
     121A      0.958298   122A      0.971014   123A      0.981352
     124A      0.985797   125A      0.994298   126A      1.021797
     127A      1.025850   128A      1.050307   129A      1.064946
     130A      1.076545   131A      1.095898   132A      1.127111
     133A      1.130064   134A      1.137789   135A      1.146944
     136A      1.151690   137A      1.154529   138A      1.179493
     139A      1.198961   140A      1.221551   141A      1.224475
     142A      1.236376   143A      1.247058   144A      1.267409
     145A      1.273087   146A      1.285391   147A      1.302043
     148A      1.327832   149A      1.330520   150A      1.360546
     151A      1.365437   152A      1.380292   153A      1.422465
     154A      1.452621   155A      1.462169   156A      1.481050
     157A      1.491388   158A      1.505537   159A      1.546969
     160A      1.580072   161A      1.597551   162A      1.600094
     163A      1.645684   164A      1.651484   165A      1.659200
     166A      1.683696   167A      1.685768   168A      1.699766
     169A      1.726743   170A      1.736285   171A      1.756659
     172A      1.774220   173A      1.782533   174A      1.791236
     175A      1.820769   176A      1.826853   177A      1.859630
     178A      1.869499   179A      1.872113   180A      1.878858
     181A      1.883968   182A      1.896413   183A      1.902656
     184A      1.909828   185A      1.918439   186A      1.924307
     187A      1.931526   188A      1.944273   189A      1.951155
     190A      1.953708   191A      1.956497   192A      1.961714
     193A      1.968257   194A      1.978227   195A      1.983308
     196A      1.988544   197A      1.997942   198A      2.020074
     199A      2.025335   200A      2.039103   201A      2.046610
     202A      2.073561   203A      2.083443   204A      2.087889
     205A      2.097665   206A      2.100164   207A      2.106876
     208A      2.109294   209A      2.121196   210A      2.139725
     211A      2.153569   212A      2.161207   213A      2.171512
     214A      2.201443   215A      2.230946   216A      2.251214
     217A      2.271954   218A      2.286027   219A      2.309753
     220A      2.315928   221A      2.325850   222A      2.340418
     223A      2.351120   224A      2.355635   225A      2.385857
     226A      2.410514   227A      2.450436   228A      2.460701
     229A      2.467048   230A      2.482736   231A      2.521988
     232A      2.539477   233A      2.561910   234A      2.566169
     235A      2.578182   236A      2.589183   237A      2.597755
     238A      2.643272   239A      2.663664   240A      2.692888
     241A      2.716648   242A      2.766190   243A      2.767725
     244A      2.772233   245A      2.783430   246A      2.796054
     247A      2.801661   248A      2.803587   249A      2.831981
     250A      2.853669   251A      2.868355   252A      2.883624
     253A      2.905817   254A      2.937857   255A      2.959473
     256A      2.959954   257A      2.969824   258A      2.991169
     259A      3.051839   260A      3.058389   261A      3.088295
     262A      3.119978   263A      3.209437   264A      3.297881
     265A      3.365384   266A      3.732434   267A      3.938999

    Final Occupation by Irrep:
              A
    DOCC [    48 ]

  @RHF Final Energy:  -518.80388336045110

   => Energetics <=

    Nuclear Repulsion Energy =            748.1833937029607569
    One-Electron Energy =               -2186.1249670618672098
    Two-Electron Energy =                 919.1376899984553575
    Total Energy =                       -518.8038833604510955

Computation Completed

Properties will be evaluated at   0.000000,   0.000000,   0.000000 [a0]

Properties computed using the SCF density matrix

  Nuclear Dipole Moment: [e a0]
     X:    10.6776      Y:    13.9364      Z:    -8.2726

  Electronic Dipole Moment: [e a0]
     X:   -11.3554      Y:   -13.6649      Z:     8.6334

  Dipole Moment: [e a0]
     X:    -0.6778      Y:     0.2715      Z:     0.3608     Total:     0.8144

  Dipole Moment: [D]
     X:    -1.7227      Y:     0.6901      Z:     0.9170     Total:     2.0700

*** tstop() called on ds3 at Mon Apr 27 06:39:30 2020
Module time:
	user time   =     267.45 seconds =       4.46 minutes
	system time =     106.07 seconds =       1.77 minutes
	total time  =        374 seconds =       6.23 minutes
Total time:
	user time   =     267.45 seconds =       4.46 minutes
	system time =     106.07 seconds =       1.77 minutes
	total time  =        374 seconds =       6.23 minutes
                                     G D M A

                                 by Anthony Stone

                           version 2.2.06, 22 June 2011

               Distributed Multipoles from Gaussian wavefunctions

Starting at 6:39:30 on 27 Apr 2020

Using SCF density matrix from file ./SSI/SSI-025THR-100TRP-1-dimer.test.7392.fchk

                         Distributed Multipole Analysis

Standard DMA

Positions and radii in angstrom
Multipole moments in atomic units, ea_0^k for rank k

C          x =  2.575786  y =  2.469365  z = -0.493691 angstrom
           Maximum rank =  0   Radius =  0.650 angstrom
                   Q00  =  -0.237685

C          x =  3.943786  y =  3.039365  z = -0.143691 angstrom
           Maximum rank =  0   Radius =  0.650 angstrom
                   Q00  =  -0.230621

H          x =  2.609786  y =  1.378365  z = -0.490691 angstrom
           Maximum rank =  0   Radius =  0.325 angstrom
                   Q00  =   0.082313

H          x =  1.839786  y =  2.806365  z =  0.236309 angstrom
           Maximum rank =  0   Radius =  0.325 angstrom
                   Q00  =   0.083744

H          x =  2.262786  y =  2.818365  z = -1.477691 angstrom
           Maximum rank =  0   Radius =  0.325 angstrom
                   Q00  =   0.070112

H          x =  3.908786  y =  4.124365  z = -0.228691 angstrom
           Maximum rank =  0   Radius =  0.325 angstrom
                   Q00  =   0.077967

H          x =  4.726866  y =  2.641263  z = -0.805735 angstrom
           Maximum rank =  0   Radius =  0.325 angstrom
                   Q00  =   0.077818

H          x =  4.189716  y =  2.773328  z =  0.894935 angstrom
           Maximum rank =  0   Radius =  0.325 angstrom
                   Q00  =   0.079070

C          x = -0.722214  y =  1.524365  z = -1.551691 angstrom
           Maximum rank =  0   Radius =  0.650 angstrom
                   Q00  =  -0.039797

C          x = -1.503214  y =  1.220365  z = -2.837691 angstrom
           Maximum rank =  0   Radius =  0.650 angstrom
                   Q00  =  -0.249630

C          x = -1.072214  y =  0.617365  z = -0.376691 angstrom
           Maximum rank =  0   Radius =  0.650 angstrom
                   Q00  =  -0.129007

C          x = -2.137214  y =  0.727365  z =  0.471309 angstrom
           Maximum rank =  0   Radius =  0.650 angstrom
                   Q00  =   0.071082

C          x = -0.361214  y = -0.563635  z =  0.044309 angstrom
           Maximum rank =  0   Radius =  0.650 angstrom
                   Q00  =  -0.052450

C          x = -1.069214  y = -1.130635  z =  1.144309 angstrom
           Maximum rank =  0   Radius =  0.650 angstrom
                   Q00  =   0.243924

C          x =  0.771786  y = -1.236635  z = -0.446691 angstrom
           Maximum rank =  0   Radius =  0.650 angstrom
                   Q00  =  -0.101979

C          x = -0.631214  y = -2.284635  z =  1.788309 angstrom
           Maximum rank =  0   Radius =  0.650 angstrom
                   Q00  =  -0.118589

C          x =  1.218786  y = -2.378635  z =  0.204309 angstrom
           Maximum rank =  0   Radius =  0.650 angstrom
                   Q00  =  -0.106459

C          x =  0.520786  y = -2.894635  z =  1.311309 angstrom
           Maximum rank =  0   Radius =  0.650 angstrom
                   Q00  =  -0.001073

N          x = -2.134214  y = -0.306635  z =  1.394309 angstrom
           Maximum rank =  0   Radius =  0.650 angstrom
                   Q00  =  -0.501754

H          x =  0.338786  y =  1.415365  z = -1.768691 angstrom
           Maximum rank =  0   Radius =  0.325 angstrom
                   Q00  =   0.079533

H          x = -0.901214  y =  2.560365  z = -1.261691 angstrom
           Maximum rank =  0   Radius =  0.325 angstrom
                   Q00  =   0.075207

H          x = -1.074214  y =  1.824365  z = -3.639691 angstrom
           Maximum rank =  0   Radius =  0.325 angstrom
                   Q00  =   0.075384

H          x = -2.887214  y =  1.493365  z =  0.440309 angstrom
           Maximum rank =  0   Radius =  0.325 angstrom
                   Q00  =   0.098194

H          x = -2.826214  y = -0.423635  z =  2.127309 angstrom
           Maximum rank =  0   Radius =  0.325 angstrom
                   Q00  =   0.218494

H          x =  1.311786  y = -0.836635  z = -1.293691 angstrom
           Maximum rank =  0   Radius =  0.325 angstrom
                   Q00  =   0.070046

H          x = -1.168214  y = -2.685635  z =  2.637309 angstrom
           Maximum rank =  0   Radius =  0.325 angstrom
                   Q00  =   0.073071

H          x =  2.110786  y = -2.885635  z = -0.134691 angstrom
           Maximum rank =  0   Radius =  0.325 angstrom
                   Q00  =   0.060460

H          x =  0.887786  y = -3.788635  z =  1.801309 angstrom
           Maximum rank =  0   Radius =  0.325 angstrom
                   Q00  =   0.064881

H          x = -2.566204  y =  1.487420  z = -2.744184 angstrom
           Maximum rank =  0   Radius =  0.325 angstrom
                   Q00  =   0.079713

H          x = -1.380374  y =  0.162248  z = -3.112098 angstrom
           Maximum rank =  0   Radius =  0.325 angstrom
                   Q00  =   0.088032

Total multipoles referred to origin at
           x =   0.000000,  y =    0.000000,  z =    0.000000 angstrom
                   Q00  =  -0.000000

Finished at 6:39:30 on 27 Apr 2020

  DMA results are available in the Python driver through the
	  variable('DMA DISTRIBUTED MULTIPOLES')
  and
	  variable('DMA TOTAL MULTIPOLES')
  commands.

    Psi4 stopped on: Monday, 27 April 2020 06:39AM
    Psi4 wall time for execution: 0:06:14.82

*** Psi4 exiting successfully. Buy a developer a beer!
