                               Psi4 1.3.2 release

  ==> Input File <==

--------------------------------------------------------------------------
import numpy as np
set {scf_type pk
basis cc-pvdz
d_convergence 10
gdma_switch   0
gdma_limit    0
gdma_origin   [ 0.0,  0.0,  0.0 ]
}
molecule test {
    units Angstrom
    0 1
    --
    0 1
    C                2.967683550246339     2.195392760914255    -0.165943012303978
    C               -0.024316449753661     0.288392760914255     1.194056987696022
    C               -0.761316449753661     1.320392760914255     1.776056987696022
    C                1.176683550246339     0.574392760914255     0.544056987696022
    C                1.648683550246339     1.888392760914254     0.485056987696022
    C               -0.282316449753661     2.618392760914254     1.732056987696022
    C                0.901683550246339     2.904392760914254     1.078056987696022
    H               -0.383316449753661    -0.727607239085745     1.260056987696022
    H               -1.700316449753661     1.111392760914254     2.268056987696022
    H                1.745683550246339    -0.226607239085745     0.094056987696022
    H               -0.844316449753661     3.415392760914255     2.191056987696022
    H                2.984683550246339     3.250392760914255    -0.440943012303978
    H                3.052683550246339     1.626392760914255    -1.090943012303978
    H                1.241683550246339     3.928392760914255     1.029056987696022
    H                3.831473550246339     1.976572760914254     0.479026987696022
    C               -1.099316449753661    -2.319607239085745    -1.284943012303978
    C               -0.347316449753661    -3.632607239085745    -1.054943012303978
    C               -1.240316449753661    -2.043607239085746    -2.789943012303978
    O               -2.387316449753662    -2.388607239085746    -0.679943012303978
    H               -0.532316449753661    -1.504607239085745    -0.840943012303978
    H                0.640683550246339    -3.493607239085745    -1.483943012303978
    H               -1.930316449753661    -2.753607239085745    -3.245943012303978
    H               -1.628316449753661    -1.034607239085745    -2.931943012303978
    H               -0.270316449753661    -2.117607239085746    -3.278943012303978
    H               -2.284316449753661    -2.384607239085745     0.282056987696022
    H               -0.837516449753661    -4.491777239085746    -1.536113012303978
    H               -0.201516449753661    -3.838617239085745     0.015716987696022

}
e, wfn = energy('scf', return_wfn=True)
gdma(wfn)
dmavals = variable('DMA DISTRIBUTED MULTIPOLES')
charges = np.array(dmavals)
print(charges)
np.save('SSI-031PHE-060THR-1-dimer.npy', np.array(charges))--------------------------------------------------------------------------

*** tstart() called on ds3
*** at Mon Apr 27 14:13:38 2020

   => Loading Basis Set <=

    Name: CC-PVDZ
    Role: ORBITAL
    Keyword: BASIS
    atoms 1-7, 16-18  entry C          line   138 file /theoryfs2/ds/metcalf/miniconda2/envs/tf2gpu/share/psi4/basis/cc-pvdz.gbs
    atoms 8-15, 20-27 entry H          line    22 file /theoryfs2/ds/metcalf/miniconda2/envs/tf2gpu/share/psi4/basis/cc-pvdz.gbs
    atoms 19          entry O          line   198 file /theoryfs2/ds/metcalf/miniconda2/envs/tf2gpu/share/psi4/basis/cc-pvdz.gbs

         ---------------------------------------------------------
                                   SCF
               by Justin Turney, Rob Parrish, Andy Simmonett
                          and Daniel G. A. Smith
                              RHF Reference
                        1 Threads,    500 MiB Core
         ---------------------------------------------------------

  ==> Geometry <==

    Molecular point group: c1
    Full point group: C1

    Geometry (in Angstrom), charge = 0, multiplicity = 1:

       Center              X                  Y                   Z               Mass
    ------------   -----------------  -----------------  -----------------  -----------------
         C            2.967683550246     2.195392760914    -0.165943012304    12.000000000000
         C           -0.024316449754     0.288392760914     1.194056987696    12.000000000000
         C           -0.761316449754     1.320392760914     1.776056987696    12.000000000000
         C            1.176683550246     0.574392760914     0.544056987696    12.000000000000
         C            1.648683550246     1.888392760914     0.485056987696    12.000000000000
         C           -0.282316449754     2.618392760914     1.732056987696    12.000000000000
         C            0.901683550246     2.904392760914     1.078056987696    12.000000000000
         H           -0.383316449754    -0.727607239086     1.260056987696     1.007825032230
         H           -1.700316449754     1.111392760914     2.268056987696     1.007825032230
         H            1.745683550246    -0.226607239086     0.094056987696     1.007825032230
         H           -0.844316449754     3.415392760914     2.191056987696     1.007825032230
         H            2.984683550246     3.250392760914    -0.440943012304     1.007825032230
         H            3.052683550246     1.626392760914    -1.090943012304     1.007825032230
         H            1.241683550246     3.928392760914     1.029056987696     1.007825032230
         H            3.831473550246     1.976572760914     0.479026987696     1.007825032230
         C           -1.099316449754    -2.319607239086    -1.284943012304    12.000000000000
         C           -0.347316449754    -3.632607239086    -1.054943012304    12.000000000000
         C           -1.240316449754    -2.043607239086    -2.789943012304    12.000000000000
         O           -2.387316449754    -2.388607239086    -0.679943012304    15.994914619570
         H           -0.532316449754    -1.504607239086    -0.840943012304     1.007825032230
         H            0.640683550246    -3.493607239086    -1.483943012304     1.007825032230
         H           -1.930316449754    -2.753607239086    -3.245943012304     1.007825032230
         H           -1.628316449754    -1.034607239086    -2.931943012304     1.007825032230
         H           -0.270316449754    -2.117607239086    -3.278943012304     1.007825032230
         H           -2.284316449754    -2.384607239086     0.282056987696     1.007825032230
         H           -0.837516449754    -4.491777239086    -1.536113012304     1.007825032230
         H           -0.201516449754    -3.838617239086     0.015716987696     1.007825032230

  Running in c1 symmetry.

  Rotational constants: A =      0.05446  B =      0.01402  C =      0.01236 [cm^-1]
  Rotational constants: A =   1632.74473  B =    420.36375  C =    370.56872 [MHz]
  Nuclear repulsion =  568.104691955193971

  Charge       = 0
  Multiplicity = 1
  Electrons    = 84
  Nalpha       = 42
  Nbeta        = 42

  ==> Algorithm <==

  SCF Algorithm Type is PK.
  DIIS enabled.
  MOM disabled.
  Fractional occupation disabled.
  Guess Type is SAD.
  Energy threshold   = 1.00e-06
  Density threshold  = 1.00e-10
  Integral threshold = 0.00e+00

  ==> Primary Basis <==

  Basis Set: CC-PVDZ
    Blend: CC-PVDZ
    Number of shells: 114
    Number of basis function: 234
    Number of Cartesian functions: 245
    Spherical Harmonics?: true
    Max angular momentum: 2

  ==> Pre-Iterations <==

   -------------------------------------------------------
    Irrep   Nso     Nmo     Nalpha   Nbeta   Ndocc  Nsocc
   -------------------------------------------------------
     A        234     234       0       0       0       0
   -------------------------------------------------------
    Total     234     234      42      42      42       0
   -------------------------------------------------------

  ==> Integral Setup <==

  Using integral reordering PK algorithm.
  Sizing the integral batches needed.
  Building batch lookup table.
   Calculation information:
      Number of atoms:                  27
      Number of AO shells:             114
      Number of primitives:            322
      Number of atomic orbitals:       245
      Number of basis functions:       234

      Integral cutoff                 1.00e-12
      Number of threads:                 1

	Batch   1 pq = [       0,    9405] index = [             0,44231715] size =     44231715
	Batch   2 pq = [    9405,   13301] index = [      44231715,88464951] size =     44233236
	Batch   3 pq = [   13301,   16290] index = [      88464951,132690195] size =     44225244
	Batch   4 pq = [   16290,   18810] index = [     132690195,176917455] size =     44227260
	Batch   5 pq = [   18810,   21030] index = [     176917455,221140965] size =     44223510
	Batch   6 pq = [   21030,   23037] index = [     221140965,265363203] size =     44222238
	Batch   7 pq = [   23037,   24883] index = [     265363203,309594286] size =     44231083
	Batch   8 pq = [   24883,   26601] index = [     309594286,353819901] size =     44225615
	Batch   9 pq = [   26601,   27495] index = [     353819901,378001260] size =     24181359
  Task number: 35
  Buffer size: 11059200
  Buffer per thread: 2
  We computed 18192912 shell quartets total.
  Whereas there are 21487290 unique shell quartets.

  ==> DiskJK: Disk-Based J/K Matrices <==

    J tasked:                  Yes
    K tasked:                  Yes
    wK tasked:                  No
    Memory [MiB]:              375
    Schwarz Cutoff:          1E-12

    OpenMP threads:              1

  Minimum eigenvalue in the overlap matrix is 3.0653737719E-04.
  Using Symmetric Orthogonalization.

  SCF Guess: Superposition of Atomic Densities via on-the-fly atomic UHF.

  ==> Iterations <==

                        Total Energy        Delta E     RMS |[F,P]|

   @RHF iter SAD:  -461.61308533695529   -4.61613e+02   0.00000e+00
   @RHF iter   1:  -462.60101972774953   -9.87934e-01   2.85429e-03 DIIS
   @RHF iter   2:  -462.84508482098977   -2.44065e-01   1.27290e-03 DIIS
   @RHF iter   3:  -462.88656051122496   -4.14757e-02   2.70125e-04 DIIS
   @RHF iter   4:  -462.88976275517803   -3.20224e-03   8.53098e-05 DIIS
   @RHF iter   5:  -462.88997671509901   -2.13960e-04   1.67038e-05 DIIS
   @RHF iter   6:  -462.88998773480159   -1.10197e-05   4.63230e-06 DIIS
   @RHF iter   7:  -462.88998863665466   -9.01853e-07   1.51933e-06 DIIS
   @RHF iter   8:  -462.88998873487435   -9.82197e-08   4.36732e-07 DIIS
   @RHF iter   9:  -462.88998874624207   -1.13677e-08   1.72200e-07 DIIS
   @RHF iter  10:  -462.88998874790781   -1.66574e-09   4.25333e-08 DIIS
   @RHF iter  11:  -462.88998874812449   -2.16687e-10   1.70582e-08 DIIS
   @RHF iter  12:  -462.88998874816599   -4.14957e-11   9.07166e-09 DIIS
   @RHF iter  13:  -462.88998874817639   -1.04023e-11   4.06801e-09 DIIS
   @RHF iter  14:  -462.88998874817787   -1.47793e-12   1.43804e-09 DIIS
   @RHF iter  15:  -462.88998874817986   -1.98952e-12   4.11176e-10 DIIS
   @RHF iter  16:  -462.88998874818174   -1.87583e-12   1.31831e-10 DIIS
   @RHF iter  17:  -462.88998874817764    4.09273e-12   5.30796e-11 DIIS
  Energy and wave function converged.

  ==> Post-Iterations <==

    Orbital Energies [Eh]
    ---------------------

    Doubly Occupied:

       1A    -20.544826     2A    -11.275901     3A    -11.244658
       4A    -11.241889     5A    -11.236592     6A    -11.236225
       7A    -11.234604     8A    -11.232721     9A    -11.232013
      10A    -11.218832    11A    -11.215639    12A     -1.348206
      13A     -1.157705    14A     -1.048626    15A     -1.037922
      16A     -1.017524    17A     -0.934936    18A     -0.931866
      19A     -0.829475    20A     -0.801621    21A     -0.794283
      22A     -0.698411    23A     -0.690718    24A     -0.636582
      25A     -0.634550    26A     -0.612208    27A     -0.597777
      28A     -0.588122    29A     -0.580924    30A     -0.566356
      31A     -0.546302    32A     -0.537707    33A     -0.534580
      34A     -0.523707    35A     -0.503985    36A     -0.491823
      37A     -0.488780    38A     -0.486565    39A     -0.459565
      40A     -0.425327    41A     -0.337100    42A     -0.325491

    Virtual:

      43A      0.131826    44A      0.134792    45A      0.153612
      46A      0.186737    47A      0.194682    48A      0.212413
      49A      0.226751    50A      0.231067    51A      0.242406
      52A      0.249056    53A      0.255379    54A      0.265441
      55A      0.269903    56A      0.291347    57A      0.292011
      58A      0.305574    59A      0.312690    60A      0.327591
      61A      0.357350    62A      0.371319    63A      0.388091
      64A      0.415260    65A      0.422150    66A      0.457551
      67A      0.463211    68A      0.479059    69A      0.496466
      70A      0.560380    71A      0.572015    72A      0.590306
      73A      0.616621    74A      0.637868    75A      0.659937
      76A      0.670817    77A      0.679045    78A      0.685770
      79A      0.695298    80A      0.709933    81A      0.714230
      82A      0.736722    83A      0.739295    84A      0.742834
      85A      0.756523    86A      0.769334    87A      0.775064
      88A      0.780611    89A      0.796629    90A      0.803482
      91A      0.820115    92A      0.839844    93A      0.846506
      94A      0.856231    95A      0.867487    96A      0.873365
      97A      0.882404    98A      0.888455    99A      0.894212
     100A      0.895566   101A      0.906501   102A      0.909349
     103A      0.913578   104A      0.916628   105A      0.924164
     106A      0.933471   107A      0.941956   108A      0.955633
     109A      0.964102   110A      0.982748   111A      1.007650
     112A      1.037170   113A      1.067603   114A      1.120974
     115A      1.128157   116A      1.137471   117A      1.145333
     118A      1.152240   119A      1.160388   120A      1.191578
     121A      1.221899   122A      1.232554   123A      1.244491
     124A      1.247313   125A      1.282404   126A      1.283746
     127A      1.296457   128A      1.309845   129A      1.313409
     130A      1.323017   131A      1.353079   132A      1.375851
     133A      1.412017   134A      1.419760   135A      1.490366
     136A      1.509284   137A      1.519745   138A      1.529196
     139A      1.555322   140A      1.595470   141A      1.605984
     142A      1.640164   143A      1.671348   144A      1.679373
     145A      1.686815   146A      1.694959   147A      1.700266
     148A      1.719480   149A      1.733959   150A      1.745279
     151A      1.756425   152A      1.785364   153A      1.806959
     154A      1.809853   155A      1.844609   156A      1.857346
     157A      1.875526   158A      1.877521   159A      1.890999
     160A      1.899576   161A      1.905041   162A      1.913893
     163A      1.920532   164A      1.926794   165A      1.941975
     166A      1.952847   167A      1.960232   168A      1.963911
     169A      1.974428   170A      1.982498   171A      1.997041
     172A      2.012949   173A      2.018010   174A      2.030049
     175A      2.037869   176A      2.042841   177A      2.058992
     178A      2.072733   179A      2.102439   180A      2.130582
     181A      2.136788   182A      2.151680   183A      2.155611
     184A      2.167126   185A      2.176027   186A      2.186355
     187A      2.207858   188A      2.240201   189A      2.268866
     190A      2.276063   191A      2.291048   192A      2.299727
     193A      2.309452   194A      2.319012   195A      2.320655
     196A      2.328230   197A      2.371589   198A      2.445965
     199A      2.461323   200A      2.475070   201A      2.504160
     202A      2.508024   203A      2.528133   204A      2.531634
     205A      2.566164   206A      2.613232   207A      2.625796
     208A      2.651819   209A      2.738254   210A      2.751229
     211A      2.760117   212A      2.767933   213A      2.772905
     214A      2.786170   215A      2.796937   216A      2.817409
     217A      2.828645   218A      2.843876   219A      2.872464
     220A      2.881078   221A      2.913236   222A      2.981559
     223A      2.994723   224A      3.022359   225A      3.042648
     226A      3.155192   227A      3.201335   228A      3.300169
     229A      3.338190   230A      3.423769   231A      3.471559
     232A      3.667450   233A      3.971578   234A      4.129970

    Final Occupation by Irrep:
              A
    DOCC [    42 ]

  @RHF Final Energy:  -462.88998874817764

   => Energetics <=

    Nuclear Repulsion Energy =            568.1046919551939709
    One-Electron Energy =               -1753.8240694736737169
    Two-Electron Energy =                 722.8293887703019891
    Total Energy =                       -462.8899887481776432

Computation Completed

Properties will be evaluated at   0.000000,   0.000000,   0.000000 [a0]

Properties computed using the SCF density matrix

  Nuclear Dipole Moment: [e a0]
     X:     2.6925      Y:    -6.8219      Z:    -6.7818

  Electronic Dipole Moment: [e a0]
     X:    -1.9970      Y:     7.0182      Z:     7.0597

  Dipole Moment: [e a0]
     X:     0.6955      Y:     0.1963      Z:     0.2780     Total:     0.7743

  Dipole Moment: [D]
     X:     1.7679      Y:     0.4990      Z:     0.7065     Total:     1.9681

*** tstop() called on ds3 at Mon Apr 27 14:16:46 2020
Module time:
	user time   =     129.19 seconds =       2.15 minutes
	system time =      57.77 seconds =       0.96 minutes
	total time  =        188 seconds =       3.13 minutes
Total time:
	user time   =     129.19 seconds =       2.15 minutes
	system time =      57.77 seconds =       0.96 minutes
	total time  =        188 seconds =       3.13 minutes
                                     G D M A

                                 by Anthony Stone

                           version 2.2.06, 22 June 2011

               Distributed Multipoles from Gaussian wavefunctions

Starting at 14:16:47 on 27 Apr 2020

Using SCF density matrix from file ./SSI/SSI-031PHE-060THR-1-dimer.test.9052.fchk

                         Distributed Multipole Analysis

Standard DMA

Positions and radii in angstrom
Multipole moments in atomic units, ea_0^k for rank k

C          x =  2.967684  y =  2.195393  z = -0.165943 angstrom
           Maximum rank =  0   Radius =  0.650 angstrom
                   Q00  =  -0.198802

C          x = -0.024316  y =  0.288393  z =  1.194057 angstrom
           Maximum rank =  0   Radius =  0.650 angstrom
                   Q00  =  -0.068216

C          x = -0.761316  y =  1.320393  z =  1.776057 angstrom
           Maximum rank =  0   Radius =  0.650 angstrom
                   Q00  =  -0.087398

C          x =  1.176684  y =  0.574393  z =  0.544057 angstrom
           Maximum rank =  0   Radius =  0.650 angstrom
                   Q00  =  -0.100594

C          x =  1.648684  y =  1.888393  z =  0.485057 angstrom
           Maximum rank =  0   Radius =  0.650 angstrom
                   Q00  =  -0.097373

C          x = -0.282316  y =  2.618393  z =  1.732057 angstrom
           Maximum rank =  0   Radius =  0.650 angstrom
                   Q00  =  -0.027304

C          x =  0.901684  y =  2.904393  z =  1.078057 angstrom
           Maximum rank =  0   Radius =  0.650 angstrom
                   Q00  =  -0.007939

H          x = -0.383316  y = -0.727607  z =  1.260057 angstrom
           Maximum rank =  0   Radius =  0.325 angstrom
                   Q00  =   0.047772

H          x = -1.700316  y =  1.111393  z =  2.268057 angstrom
           Maximum rank =  0   Radius =  0.325 angstrom
                   Q00  =   0.061902

H          x =  1.745684  y = -0.226607  z =  0.094057 angstrom
           Maximum rank =  0   Radius =  0.325 angstrom
                   Q00  =   0.055908

H          x = -0.844316  y =  3.415393  z =  2.191057 angstrom
           Maximum rank =  0   Radius =  0.325 angstrom
                   Q00  =   0.064716

H          x =  2.984684  y =  3.250393  z = -0.440943 angstrom
           Maximum rank =  0   Radius =  0.325 angstrom
                   Q00  =   0.097464

H          x =  3.052684  y =  1.626393  z = -1.090943 angstrom
           Maximum rank =  0   Radius =  0.325 angstrom
                   Q00  =   0.098769

H          x =  1.241684  y =  3.928393  z =  1.029057 angstrom
           Maximum rank =  0   Radius =  0.325 angstrom
                   Q00  =   0.057866

H          x =  3.831474  y =  1.976573  z =  0.479027 angstrom
           Maximum rank =  0   Radius =  0.325 angstrom
                   Q00  =   0.106175

C          x = -1.099316  y = -2.319607  z = -1.284943 angstrom
           Maximum rank =  0   Radius =  0.650 angstrom
                   Q00  =   0.190253

C          x = -0.347316  y = -3.632607  z = -1.054943 angstrom
           Maximum rank =  0   Radius =  0.650 angstrom
                   Q00  =  -0.268111

C          x = -1.240316  y = -2.043607  z = -2.789943 angstrom
           Maximum rank =  0   Radius =  0.650 angstrom
                   Q00  =  -0.242660

O          x = -2.387316  y = -2.388607  z = -0.679943 angstrom
           Maximum rank =  0   Radius =  0.650 angstrom
                   Q00  =  -0.593262

H          x = -0.532316  y = -1.504607  z = -0.840943 angstrom
           Maximum rank =  0   Radius =  0.325 angstrom
                   Q00  =   0.009779

H          x =  0.640684  y = -3.493607  z = -1.483943 angstrom
           Maximum rank =  0   Radius =  0.325 angstrom
                   Q00  =   0.072798

H          x = -1.930316  y = -2.753607  z = -3.245943 angstrom
           Maximum rank =  0   Radius =  0.325 angstrom
                   Q00  =   0.095304

H          x = -1.628316  y = -1.034607  z = -2.931943 angstrom
           Maximum rank =  0   Radius =  0.325 angstrom
                   Q00  =   0.095986

H          x = -0.270316  y = -2.117607  z = -3.278943 angstrom
           Maximum rank =  0   Radius =  0.325 angstrom
                   Q00  =   0.080783

H          x = -2.284316  y = -2.384607  z =  0.282057 angstrom
           Maximum rank =  0   Radius =  0.325 angstrom
                   Q00  =   0.384067

H          x = -0.837516  y = -4.491777  z = -1.536113 angstrom
           Maximum rank =  0   Radius =  0.325 angstrom
                   Q00  =   0.095894

H          x = -0.201516  y = -3.838617  z =  0.015717 angstrom
           Maximum rank =  0   Radius =  0.325 angstrom
                   Q00  =   0.076225

Total multipoles referred to origin at
           x =   0.000000,  y =    0.000000,  z =    0.000000 angstrom
                   Q00  =  -0.000000

Finished at 14:16:47 on 27 Apr 2020

  DMA results are available in the Python driver through the
	  variable('DMA DISTRIBUTED MULTIPOLES')
  and
	  variable('DMA TOTAL MULTIPOLES')
  commands.

    Psi4 stopped on: Monday, 27 April 2020 02:16PM
    Psi4 wall time for execution: 0:03:08.20

*** Psi4 exiting successfully. Buy a developer a beer!
