                               Psi4 1.3.2 release

  ==> Input File <==

--------------------------------------------------------------------------
import numpy as np
set {scf_type pk
basis cc-pvdz
d_convergence 10
gdma_switch   0
gdma_limit    0
gdma_origin   [ 0.0,  0.0,  0.0 ]
}
molecule test {
    units Angstrom
    0 1
    --
    0 1
    C               -1.768307949457582    -0.163755824758818     1.504424981171152
    C               -1.106307949457583     1.213244175241182     1.587424981171152
    H               -2.692307949457582    -0.188755824758818     2.084424981171152
    H               -1.999307949457583    -0.405755824758818     0.466424981171152
    H               -1.088307949457582    -0.927755824758818     1.885424981171152
    H               -0.215307949457582     1.182244175241182     0.964424981171152
    H               -0.757777949457583     1.410844175241182     2.611864981171153
    H               -1.749057949457582     2.026494175241182     1.219324981171152
    C                1.167692050542417    -0.231755824758818    -0.893575018828848
    C                1.698692050542418    -0.813755824758818    -2.199575018828848
    H                0.409692050542418     0.519244175241182    -1.115575018828848
    H                0.730692050542418    -1.022755824758818    -0.283575018828848
    H                1.981692050542418     0.233244175241182    -0.339575018828848
    H                2.407692050542418    -1.602755824758818    -1.959575018828848
    H                2.211612050542417    -0.018585824758818    -2.760485018828848
    H                0.858702050542418    -1.253055824758818    -2.757625018828848

}
e, wfn = energy('scf', return_wfn=True)
gdma(wfn)
dmavals = variable('DMA DISTRIBUTED MULTIPOLES')
charges = np.array(dmavals)
print(charges)
np.save('SSI-090ILE-099LEU-1-dimer.npy', np.array(charges))--------------------------------------------------------------------------

*** tstart() called on ds3
*** at Tue Apr 28 09:24:06 2020

   => Loading Basis Set <=

    Name: CC-PVDZ
    Role: ORBITAL
    Keyword: BASIS
    atoms 1-2, 9-10  entry C          line   138 file /theoryfs2/ds/metcalf/miniconda2/envs/tf2gpu/share/psi4/basis/cc-pvdz.gbs
    atoms 3-8, 11-16 entry H          line    22 file /theoryfs2/ds/metcalf/miniconda2/envs/tf2gpu/share/psi4/basis/cc-pvdz.gbs

         ---------------------------------------------------------
                                   SCF
               by Justin Turney, Rob Parrish, Andy Simmonett
                          and Daniel G. A. Smith
                              RHF Reference
                        1 Threads,    500 MiB Core
         ---------------------------------------------------------

  ==> Geometry <==

    Molecular point group: c1
    Full point group: C1

    Geometry (in Angstrom), charge = 0, multiplicity = 1:

       Center              X                  Y                   Z               Mass
    ------------   -----------------  -----------------  -----------------  -----------------
         C           -1.768307949458    -0.163755824759     1.504424981171    12.000000000000
         C           -1.106307949458     1.213244175241     1.587424981171    12.000000000000
         H           -2.692307949458    -0.188755824759     2.084424981171     1.007825032230
         H           -1.999307949458    -0.405755824759     0.466424981171     1.007825032230
         H           -1.088307949458    -0.927755824759     1.885424981171     1.007825032230
         H           -0.215307949458     1.182244175241     0.964424981171     1.007825032230
         H           -0.757777949458     1.410844175241     2.611864981171     1.007825032230
         H           -1.749057949458     2.026494175241     1.219324981171     1.007825032230
         C            1.167692050542    -0.231755824759    -0.893575018829    12.000000000000
         C            1.698692050542    -0.813755824759    -2.199575018829    12.000000000000
         H            0.409692050542     0.519244175241    -1.115575018829     1.007825032230
         H            0.730692050542    -1.022755824759    -0.283575018829     1.007825032230
         H            1.981692050542     0.233244175241    -0.339575018829     1.007825032230
         H            2.407692050542    -1.602755824759    -1.959575018829     1.007825032230
         H            2.211612050542    -0.018585824759    -2.760485018829     1.007825032230
         H            0.858702050542    -1.253055824759    -2.757625018829     1.007825032230

  Running in c1 symmetry.

  Rotational constants: A =      0.49629  B =      0.05386  C =      0.05075 [cm^-1]
  Rotational constants: A =  14878.37107  B =   1614.67606  C =   1521.47366 [MHz]
  Nuclear repulsion =  124.368927517477232

  Charge       = 0
  Multiplicity = 1
  Electrons    = 36
  Nalpha       = 18
  Nbeta        = 18

  ==> Algorithm <==

  SCF Algorithm Type is PK.
  DIIS enabled.
  MOM disabled.
  Fractional occupation disabled.
  Guess Type is SAD.
  Energy threshold   = 1.00e-06
  Density threshold  = 1.00e-10
  Integral threshold = 0.00e+00

  ==> Primary Basis <==

  Basis Set: CC-PVDZ
    Blend: CC-PVDZ
    Number of shells: 60
    Number of basis function: 116
    Number of Cartesian functions: 120
    Spherical Harmonics?: true
    Max angular momentum: 2

  ==> Pre-Iterations <==

   -------------------------------------------------------
    Irrep   Nso     Nmo     Nalpha   Nbeta   Ndocc  Nsocc
   -------------------------------------------------------
     A        116     116       0       0       0       0
   -------------------------------------------------------
    Total     116     116      18      18      18       0
   -------------------------------------------------------

  ==> Integral Setup <==

  Using integral reordering PK algorithm.
  Sizing the integral batches needed.
  Building batch lookup table.
   Calculation information:
      Number of atoms:                  16
      Number of AO shells:              60
      Number of primitives:            148
      Number of atomic orbitals:       120
      Number of basis functions:       116

      Integral cutoff                 1.00e-12
      Number of threads:                 1

	Batch   1 pq = [       0,    6786] index = [             0,23028291] size =     23028291
  Task number: 3
  Buffer size: 11059200
  Buffer per thread: 2
  We computed 1486927 shell quartets total.
  Whereas there are 1675365 unique shell quartets.

  ==> DiskJK: Disk-Based J/K Matrices <==

    J tasked:                  Yes
    K tasked:                  Yes
    wK tasked:                  No
    Memory [MiB]:              375
    Schwarz Cutoff:          1E-12

    OpenMP threads:              1

  Minimum eigenvalue in the overlap matrix is 5.8148715468E-03.
  Using Symmetric Orthogonalization.

  SCF Guess: Superposition of Atomic Densities via on-the-fly atomic UHF.

  ==> Iterations <==

                        Total Energy        Delta E     RMS |[F,P]|

   @RHF iter SAD:  -157.37366932799227   -1.57374e+02   0.00000e+00
   @RHF iter   1:  -158.30602905015047   -9.32360e-01   4.21035e-03 DIIS
   @RHF iter   2:  -158.43968472708596   -1.33656e-01   1.78632e-03 DIIS
   @RHF iter   3:  -158.46289988552763   -2.32152e-02   3.50772e-04 DIIS
   @RHF iter   4:  -158.46474646016119   -1.84657e-03   3.89430e-05 DIIS
   @RHF iter   5:  -158.46477063886562   -2.41787e-05   6.32389e-06 DIIS
   @RHF iter   6:  -158.46477126329992   -6.24434e-07   8.11095e-07 DIIS
   @RHF iter   7:  -158.46477127182837   -8.52845e-09   2.41321e-07 DIIS
   @RHF iter   8:  -158.46477127237219   -5.43821e-10   5.45028e-08 DIIS
   @RHF iter   9:  -158.46477127242042   -4.82316e-11   1.28020e-08 DIIS
   @RHF iter  10:  -158.46477127242343   -3.01270e-12   3.05064e-09 DIIS
   @RHF iter  11:  -158.46477127242341    2.84217e-14   6.95117e-10 DIIS
   @RHF iter  12:  -158.46477127242355   -1.42109e-13   2.06196e-10 DIIS
   @RHF iter  13:  -158.46477127242312    4.26326e-13   3.59399e-11 DIIS
  Energy and wave function converged.

  ==> Post-Iterations <==

    Orbital Energies [Eh]
    ---------------------

    Doubly Occupied:

       1A    -11.219244     2A    -11.217036     3A    -11.216581
       4A    -11.216349     5A     -1.021848     6A     -1.015284
       7A     -0.837861     8A     -0.834447     9A     -0.603676
      10A     -0.601585    11A     -0.596269    12A     -0.592358
      13A     -0.502318    14A     -0.498660    15A     -0.489672
      16A     -0.487080    17A     -0.485584    18A     -0.475635

    Virtual:

      19A      0.174687    20A      0.197489    21A      0.226989
      22A      0.234790    23A      0.245907    24A      0.259874
      25A      0.263980    26A      0.278103    27A      0.281217
      28A      0.290184    29A      0.317561    30A      0.326051
      31A      0.390888    32A      0.422491    33A      0.575325
      34A      0.595298    35A      0.600557    36A      0.606068
      37A      0.611122    38A      0.654735    39A      0.668147
      40A      0.700732    41A      0.725203    42A      0.772845
      43A      0.839628    44A      0.876755    45A      0.881616
      46A      0.893117    47A      0.894979    48A      0.899151
      49A      0.904405    50A      0.911529    51A      0.916677
      52A      0.932981    53A      0.937331    54A      0.953327
      55A      0.989281    56A      1.007835    57A      1.123358
      58A      1.129866    59A      1.135406    60A      1.143329
      61A      1.241862    62A      1.265506    63A      1.462879
      64A      1.470249    65A      1.482101    66A      1.502694
      67A      1.577893    68A      1.587518    69A      1.672082
      70A      1.688728    71A      1.691768    72A      1.697690
      73A      1.851419    74A      1.854470    75A      1.870015
      76A      1.877287    77A      1.884991    78A      1.927859
      79A      1.933162    80A      1.935690    81A      1.942913
      82A      1.948955    83A      1.952101    84A      1.963807
      85A      1.971838    86A      1.984632    87A      2.002597
      88A      2.055122    89A      2.095476    90A      2.108883
      91A      2.122305    92A      2.125703    93A      2.285698
      94A      2.295161    95A      2.321479    96A      2.376235
      97A      2.443321    98A      2.461538    99A      2.469169
     100A      2.476002   101A      2.554447   102A      2.566485
     103A      2.574270   104A      2.583306   105A      2.759148
     106A      2.771151   107A      2.787204   108A      2.798192
     109A      2.832743   110A      2.841574   111A      2.864594
     112A      2.879098   113A      2.934672   114A      2.951241
     115A      2.967936   116A      2.975956

    Final Occupation by Irrep:
              A
    DOCC [    18 ]

  @RHF Final Energy:  -158.46477127242312

   => Energetics <=

    Nuclear Repulsion Energy =            124.3689275174772320
    One-Electron Energy =                -457.8444228665048286
    Two-Electron Energy =                 175.0107240766044754
    Total Energy =                       -158.4647712724231212

Computation Completed

Properties will be evaluated at   0.000000,   0.000000,   0.000000 [a0]

Properties computed using the SCF density matrix

  Nuclear Dipole Moment: [e a0]
     X:     0.0919      Y:    -0.0444      Z:     0.0145

  Electronic Dipole Moment: [e a0]
     X:    -0.0588      Y:     0.0296      Z:    -0.0288

  Dipole Moment: [e a0]
     X:     0.0331      Y:    -0.0148      Z:    -0.0143     Total:     0.0389

  Dipole Moment: [D]
     X:     0.0841      Y:    -0.0375      Z:    -0.0362     Total:     0.0989

*** tstop() called on ds3 at Tue Apr 28 09:24:20 2020
Module time:
	user time   =       9.92 seconds =       0.17 minutes
	system time =       4.59 seconds =       0.08 minutes
	total time  =         14 seconds =       0.23 minutes
Total time:
	user time   =       9.92 seconds =       0.17 minutes
	system time =       4.59 seconds =       0.08 minutes
	total time  =         14 seconds =       0.23 minutes
                                     G D M A

                                 by Anthony Stone

                           version 2.2.06, 22 June 2011

               Distributed Multipoles from Gaussian wavefunctions

Starting at 9:24:20 on 28 Apr 2020

Using SCF density matrix from file ./SSI/SSI-090ILE-099LEU-1-dimer.test.10430.fchk

                         Distributed Multipole Analysis

Standard DMA

Positions and radii in angstrom
Multipole moments in atomic units, ea_0^k for rank k

C          x = -1.768308  y = -0.163756  z =  1.504425 angstrom
           Maximum rank =  0   Radius =  0.650 angstrom
                   Q00  =  -0.234089

C          x = -1.106308  y =  1.213244  z =  1.587425 angstrom
           Maximum rank =  0   Radius =  0.650 angstrom
                   Q00  =  -0.246383

H          x = -2.692308  y = -0.188756  z =  2.084425 angstrom
           Maximum rank =  0   Radius =  0.325 angstrom
                   Q00  =   0.079042

H          x = -1.999308  y = -0.405756  z =  0.466425 angstrom
           Maximum rank =  0   Radius =  0.325 angstrom
                   Q00  =   0.077848

H          x = -1.088308  y = -0.927756  z =  1.885425 angstrom
           Maximum rank =  0   Radius =  0.325 angstrom
                   Q00  =   0.079899

H          x = -0.215308  y =  1.182244  z =  0.964425 angstrom
           Maximum rank =  0   Radius =  0.325 angstrom
                   Q00  =   0.082283

H          x = -0.757778  y =  1.410844  z =  2.611865 angstrom
           Maximum rank =  0   Radius =  0.325 angstrom
                   Q00  =   0.077573

H          x = -1.749058  y =  2.026494  z =  1.219325 angstrom
           Maximum rank =  0   Radius =  0.325 angstrom
                   Q00  =   0.080930

C          x =  1.167692  y = -0.231756  z = -0.893575 angstrom
           Maximum rank =  0   Radius =  0.650 angstrom
                   Q00  =  -0.243011

C          x =  1.698692  y = -0.813756  z = -2.199575 angstrom
           Maximum rank =  0   Radius =  0.650 angstrom
                   Q00  =  -0.226426

H          x =  0.409692  y =  0.519244  z = -1.115575 angstrom
           Maximum rank =  0   Radius =  0.325 angstrom
                   Q00  =   0.075350

H          x =  0.730692  y = -1.022756  z = -0.283575 angstrom
           Maximum rank =  0   Radius =  0.325 angstrom
                   Q00  =   0.080281

H          x =  1.981692  y =  0.233244  z = -0.339575 angstrom
           Maximum rank =  0   Radius =  0.325 angstrom
                   Q00  =   0.077598

H          x =  2.407692  y = -1.602756  z = -1.959575 angstrom
           Maximum rank =  0   Radius =  0.325 angstrom
                   Q00  =   0.079627

H          x =  2.211612  y = -0.018586  z = -2.760485 angstrom
           Maximum rank =  0   Radius =  0.325 angstrom
                   Q00  =   0.079888

H          x =  0.858702  y = -1.253056  z = -2.757625 angstrom
           Maximum rank =  0   Radius =  0.325 angstrom
                   Q00  =   0.079589

Total multipoles referred to origin at
           x =   0.000000,  y =    0.000000,  z =    0.000000 angstrom
                   Q00  =  -0.000000

Finished at 9:24:20 on 28 Apr 2020

  DMA results are available in the Python driver through the
	  variable('DMA DISTRIBUTED MULTIPOLES')
  and
	  variable('DMA TOTAL MULTIPOLES')
  commands.

    Psi4 stopped on: Tuesday, 28 April 2020 09:24AM
    Psi4 wall time for execution: 0:00:14.24

*** Psi4 exiting successfully. Buy a developer a beer!
