                               Psi4 1.3.2 release

  ==> Input File <==

--------------------------------------------------------------------------
import numpy as np
set {scf_type pk
basis cc-pvdz
d_convergence 10
gdma_switch   0
gdma_limit    0
gdma_origin   [ 0.0,  0.0,  0.0 ]
}
molecule test {
    units Angstrom
    0 1
    --
    0 1
    C               -3.139614679207078     2.398526746811451     1.203787972777573
    C                0.173385320792922     1.258526746811452    -0.286212027222427
    C               -0.982614679207078     1.296526746811451     0.484787972777573
    C                0.397385320792922     2.233526746811451    -1.248212027222428
    C               -1.923614679207078     2.317526746811451     0.311787972777573
    C               -0.500614679207078     3.264526746811451    -1.388212027222427
    C               -1.655614679207078     3.305526746811451    -0.628212027222427
    H                0.905385320792922     0.495526746811452    -0.129212027222427
    H               -1.144614679207078     0.532526746811452     1.233787972777572
    H                1.293385320792922     2.208526746811451    -1.854212027222427
    H               -0.306614679207078     4.029526746811452    -2.122212027222427
    H               -3.493614679207078     1.386526746811452     1.398787972777572
    H               -3.938614679207078     2.939526746811452     0.692787972777573
    H               -2.334614679207078     4.137526746811451    -0.744212027222427
    H               -2.920244679207078     2.879436746811451     2.168467972777572
    C                0.672385320792922    -2.201473253188548    -1.557212027222427
    C                1.240385320792922    -3.446473253188548    -2.222212027222428
    C                0.963385320792922    -2.087473253188548    -0.092212027222427
    C                2.077385320792922    -1.618473253188548     0.503787972777573
    C                0.615385320792922    -2.046473253188549     2.076787972777572
    N                0.041385320792922    -2.330473253188548     0.904787972777573
    N                1.857385320792922    -1.632473253188548     1.863787972777573
    H                1.051385320792922    -1.306473253188549    -2.048212027222427
    H               -0.407614679207078    -2.183473253188549    -1.651212027222427
    H                2.320385320792922    -3.476473253188549    -2.072212027222427
    H                2.772385320792922    -1.065473253188548    -0.079212027222427
    H                0.135385320792922    -2.123473253188549     3.045787972777573
    H                2.466385320792922    -1.290473253188548     2.603787972777573
    H                0.990255320792922    -3.410313253188549    -3.292782027222427
    H                0.785155320792922    -4.346743253188548    -1.783712027222427

}
e, wfn = energy('scf', return_wfn=True)
gdma(wfn)
dmavals = variable('DMA DISTRIBUTED MULTIPOLES')
charges = np.array(dmavals)
print(charges)
np.save('SSI-021PHE-251HIE-1-dimer.npy', np.array(charges))--------------------------------------------------------------------------

*** tstart() called on ds3
*** at Tue Apr 28 00:26:34 2020

   => Loading Basis Set <=

    Name: CC-PVDZ
    Role: ORBITAL
    Keyword: BASIS
    atoms 1-7, 16-20  entry C          line   138 file /theoryfs2/ds/metcalf/miniconda2/envs/tf2gpu/share/psi4/basis/cc-pvdz.gbs
    atoms 8-15, 23-30 entry H          line    22 file /theoryfs2/ds/metcalf/miniconda2/envs/tf2gpu/share/psi4/basis/cc-pvdz.gbs
    atoms 21-22       entry N          line   168 file /theoryfs2/ds/metcalf/miniconda2/envs/tf2gpu/share/psi4/basis/cc-pvdz.gbs

         ---------------------------------------------------------
                                   SCF
               by Justin Turney, Rob Parrish, Andy Simmonett
                          and Daniel G. A. Smith
                              RHF Reference
                        1 Threads,    500 MiB Core
         ---------------------------------------------------------

  ==> Geometry <==

    Molecular point group: c1
    Full point group: C1

    Geometry (in Angstrom), charge = 0, multiplicity = 1:

       Center              X                  Y                   Z               Mass
    ------------   -----------------  -----------------  -----------------  -----------------
         C           -3.139614679207     2.398526746811     1.203787972778    12.000000000000
         C            0.173385320793     1.258526746811    -0.286212027222    12.000000000000
         C           -0.982614679207     1.296526746811     0.484787972778    12.000000000000
         C            0.397385320793     2.233526746811    -1.248212027222    12.000000000000
         C           -1.923614679207     2.317526746811     0.311787972778    12.000000000000
         C           -0.500614679207     3.264526746811    -1.388212027222    12.000000000000
         C           -1.655614679207     3.305526746811    -0.628212027222    12.000000000000
         H            0.905385320793     0.495526746811    -0.129212027222     1.007825032230
         H           -1.144614679207     0.532526746811     1.233787972778     1.007825032230
         H            1.293385320793     2.208526746811    -1.854212027222     1.007825032230
         H           -0.306614679207     4.029526746811    -2.122212027222     1.007825032230
         H           -3.493614679207     1.386526746811     1.398787972778     1.007825032230
         H           -3.938614679207     2.939526746811     0.692787972778     1.007825032230
         H           -2.334614679207     4.137526746811    -0.744212027222     1.007825032230
         H           -2.920244679207     2.879436746811     2.168467972778     1.007825032230
         C            0.672385320793    -2.201473253189    -1.557212027222    12.000000000000
         C            1.240385320793    -3.446473253189    -2.222212027222    12.000000000000
         C            0.963385320793    -2.087473253189    -0.092212027222    12.000000000000
         C            2.077385320793    -1.618473253189     0.503787972778    12.000000000000
         C            0.615385320793    -2.046473253189     2.076787972778    12.000000000000
         N            0.041385320793    -2.330473253189     0.904787972778    14.003074004430
         N            1.857385320793    -1.632473253189     1.863787972778    14.003074004430
         H            1.051385320793    -1.306473253189    -2.048212027222     1.007825032230
         H           -0.407614679207    -2.183473253189    -1.651212027222     1.007825032230
         H            2.320385320793    -3.476473253189    -2.072212027222     1.007825032230
         H            2.772385320793    -1.065473253189    -0.079212027222     1.007825032230
         H            0.135385320793    -2.123473253189     3.045787972778     1.007825032230
         H            2.466385320793    -1.290473253189     2.603787972778     1.007825032230
         H            0.990255320793    -3.410313253189    -3.292782027222     1.007825032230
         H            0.785155320793    -4.346743253189    -1.783712027222     1.007825032230

  Running in c1 symmetry.

  Rotational constants: A =      0.03415  B =      0.01154  C =      0.01017 [cm^-1]
  Rotational constants: A =   1023.72116  B =    345.95013  C =    304.91236 [MHz]
  Nuclear repulsion =  822.081239827105378

  Charge       = 0
  Multiplicity = 1
  Electrons    = 102
  Nalpha       = 51
  Nbeta        = 51

  ==> Algorithm <==

  SCF Algorithm Type is PK.
  DIIS enabled.
  MOM disabled.
  Fractional occupation disabled.
  Guess Type is SAD.
  Energy threshold   = 1.00e-06
  Density threshold  = 1.00e-10
  Integral threshold = 0.00e+00

  ==> Primary Basis <==

  Basis Set: CC-PVDZ
    Blend: CC-PVDZ
    Number of shells: 132
    Number of basis function: 276
    Number of Cartesian functions: 290
    Spherical Harmonics?: true
    Max angular momentum: 2

  ==> Pre-Iterations <==

   -------------------------------------------------------
    Irrep   Nso     Nmo     Nalpha   Nbeta   Ndocc  Nsocc
   -------------------------------------------------------
     A        276     276       0       0       0       0
   -------------------------------------------------------
    Total     276     276      51      51      51       0
   -------------------------------------------------------

  ==> Integral Setup <==

  Using integral reordering PK algorithm.
  Sizing the integral batches needed.
  Building batch lookup table.
   Calculation information:
      Number of atoms:                  30
      Number of AO shells:             132
      Number of primitives:            388
      Number of atomic orbitals:       290
      Number of basis functions:       276

      Integral cutoff                 1.00e-12
      Number of threads:                 1

	Batch   1 pq = [       0,    9405] index = [             0,44231715] size =     44231715
	Batch   2 pq = [    9405,   13301] index = [      44231715,88464951] size =     44233236
	Batch   3 pq = [   13301,   16290] index = [      88464951,132690195] size =     44225244
	Batch   4 pq = [   16290,   18810] index = [     132690195,176917455] size =     44227260
	Batch   5 pq = [   18810,   21030] index = [     176917455,221140965] size =     44223510
	Batch   6 pq = [   21030,   23037] index = [     221140965,265363203] size =     44222238
	Batch   7 pq = [   23037,   24883] index = [     265363203,309594286] size =     44231083
	Batch   8 pq = [   24883,   26601] index = [     309594286,353819901] size =     44225615
	Batch   9 pq = [   26601,   28214] index = [     353819901,398029005] size =     44209104
	Batch  10 pq = [   28214,   29740] index = [     398029005,442248670] size =     44219665
	Batch  11 pq = [   29740,   31191] index = [     442248670,486454836] size =     44206166
	Batch  12 pq = [   31191,   32578] index = [     486454836,530679331] size =     44224495
	Batch  13 pq = [   32578,   33908] index = [     530679331,574893186] size =     44213855
	Batch  14 pq = [   33908,   35188] index = [     574893186,619115266] size =     44222080
	Batch  15 pq = [   35188,   36423] index = [     619115266,663335676] size =     44220410
	Batch  16 pq = [   36423,   37617] index = [     663335676,707538153] size =     44202477
	Batch  17 pq = [   37617,   38226] index = [     707538153,730632651] size =     23094498
  Task number: 67
  Buffer size: 11059200
  Buffer per thread: 2
  We computed 37978695 shell quartets total.
  Whereas there are 38531031 unique shell quartets.

  ==> DiskJK: Disk-Based J/K Matrices <==

    J tasked:                  Yes
    K tasked:                  Yes
    wK tasked:                  No
    Memory [MiB]:              375
    Schwarz Cutoff:          1E-12

    OpenMP threads:              1

  Minimum eigenvalue in the overlap matrix is 2.8615967906E-04.
  Using Symmetric Orthogonalization.

  SCF Guess: Superposition of Atomic Densities via on-the-fly atomic UHF.

  ==> Iterations <==

                        Total Energy        Delta E     RMS |[F,P]|

   @RHF iter SAD:  -571.86598796376632   -5.71866e+02   0.00000e+00
   @RHF iter   1:  -572.34012037859725   -4.74132e-01   2.46742e-03 DIIS
   @RHF iter   2:  -572.59692799319703   -2.56808e-01   1.20157e-03 DIIS
   @RHF iter   3:  -572.65021775408434   -5.32898e-02   3.27548e-04 DIIS
   @RHF iter   4:  -572.65519096660614   -4.97321e-03   1.37572e-04 DIIS
   @RHF iter   5:  -572.65597549902623   -7.84532e-04   1.86203e-05 DIIS
   @RHF iter   6:  -572.65600047118699   -2.49722e-05   7.70846e-06 DIIS
   @RHF iter   7:  -572.65600403904784   -3.56786e-06   2.44421e-06 DIIS
   @RHF iter   8:  -572.65600462535986   -5.86312e-07   1.00618e-06 DIIS
   @RHF iter   9:  -572.65600474581890   -1.20459e-07   3.99362e-07 DIIS
   @RHF iter  10:  -572.65600476582063   -2.00017e-08   1.31740e-07 DIIS
   @RHF iter  11:  -572.65600476865325   -2.83262e-09   5.38176e-08 DIIS
   @RHF iter  12:  -572.65600476902387   -3.70619e-10   2.37136e-08 DIIS
   @RHF iter  13:  -572.65600476908583   -6.19593e-11   7.21245e-09 DIIS
   @RHF iter  14:  -572.65600476910288   -1.70530e-11   3.01516e-09 DIIS
   @RHF iter  15:  -572.65600476909788    5.00222e-12   1.16031e-09 DIIS
   @RHF iter  16:  -572.65600476910288   -5.00222e-12   4.78885e-10 DIIS
   @RHF iter  17:  -572.65600476909901    3.86535e-12   2.00945e-10 DIIS
   @RHF iter  18:  -572.65600476910083   -1.81899e-12   6.23156e-11 DIIS
  Energy and wave function converged.

  ==> Post-Iterations <==

    Orbital Energies [Eh]
    ---------------------

    Doubly Occupied:

       1A    -15.627199     2A    -15.533145     3A    -11.298380
       4A    -11.246523     5A    -11.238886     6A    -11.233702
       7A    -11.224894     8A    -11.224720     9A    -11.222580
      10A    -11.221865    11A    -11.221745    12A    -11.221344
      13A    -11.220640    14A    -11.217242    15A     -1.346028
      16A     -1.157607    17A     -1.147942    18A     -1.056297
      19A     -1.038791    20A     -1.005144    21A     -0.989975
      22A     -0.926070    23A     -0.862378    24A     -0.822547
      25A     -0.817882    26A     -0.789122    27A     -0.760378
      28A     -0.741701    29A     -0.686284    30A     -0.629553
      31A     -0.625662    32A     -0.622347    33A     -0.612974
      34A     -0.594463    35A     -0.586584    36A     -0.571348
      37A     -0.570693    38A     -0.566787    39A     -0.556772
      40A     -0.530593    41A     -0.515325    42A     -0.492120
      43A     -0.482495    44A     -0.480317    45A     -0.475952
      46A     -0.474316    47A     -0.412815    48A     -0.382079
      49A     -0.324747    50A     -0.316545    51A     -0.312160

    Virtual:

      52A      0.144023    53A      0.146053    54A      0.163076
      55A      0.172093    56A      0.188444    57A      0.196278
      58A      0.207756    59A      0.221533    60A      0.223157
      61A      0.237459    62A      0.246900    63A      0.257890
      64A      0.261740    65A      0.266271    66A      0.272637
      67A      0.281931    68A      0.290128    69A      0.296068
      70A      0.304331    71A      0.328003    72A      0.371835
      73A      0.377474    74A      0.388286    75A      0.396205
      76A      0.413679    77A      0.436699    78A      0.457751
      79A      0.469533    80A      0.481544    81A      0.492524
      82A      0.497016    83A      0.529605    84A      0.565661
      85A      0.589677    86A      0.606447    87A      0.607087
      88A      0.628387    89A      0.643980    90A      0.656420
      91A      0.671369    92A      0.675687    93A      0.690376
      94A      0.695877    95A      0.708805    96A      0.715147
      97A      0.724045    98A      0.737218    99A      0.742996
     100A      0.748675   101A      0.753607   102A      0.763741
     103A      0.773743   104A      0.784429   105A      0.786815
     106A      0.800075   107A      0.811443   108A      0.821391
     109A      0.832921   110A      0.854148   111A      0.858582
     112A      0.866082   113A      0.877712   114A      0.883172
     115A      0.887627   116A      0.894004   117A      0.900512
     118A      0.910935   119A      0.914592   120A      0.923026
     121A      0.929401   122A      0.930485   123A      0.940217
     124A      0.948302   125A      0.956325   126A      0.964911
     127A      0.969816   128A      0.982256   129A      0.991197
     130A      1.006877   131A      1.016170   132A      1.031530
     133A      1.051177   134A      1.068092   135A      1.080926
     136A      1.096519   137A      1.105651   138A      1.124444
     139A      1.141658   140A      1.150418   141A      1.151587
     142A      1.162820   143A      1.176490   144A      1.205449
     145A      1.218587   146A      1.238969   147A      1.252711
     148A      1.263126   149A      1.264669   150A      1.280051
     151A      1.290758   152A      1.302850   153A      1.310605
     154A      1.318647   155A      1.330398   156A      1.343068
     157A      1.359728   158A      1.387424   159A      1.401964
     160A      1.425243   161A      1.448512   162A      1.454732
     163A      1.482090   164A      1.507870   165A      1.529699
     166A      1.551856   167A      1.564929   168A      1.568977
     169A      1.580708   170A      1.614472   171A      1.627829
     172A      1.669754   173A      1.684845   174A      1.693343
     175A      1.710276   176A      1.737388   177A      1.746746
     178A      1.759618   179A      1.766016   180A      1.774153
     181A      1.792350   182A      1.802505   183A      1.809254
     184A      1.823786   185A      1.855670   186A      1.864369
     187A      1.886616   188A      1.888435   189A      1.900692
     190A      1.905642   191A      1.915567   192A      1.923534
     193A      1.925925   194A      1.930125   195A      1.940237
     196A      1.948665   197A      1.960823   198A      1.966442
     199A      1.975577   200A      1.981890   201A      1.987847
     202A      1.994751   203A      2.004926   204A      2.007623
     205A      2.015963   206A      2.035606   207A      2.052021
     208A      2.056737   209A      2.063517   210A      2.076393
     211A      2.085980   212A      2.092566   213A      2.114022
     214A      2.119147   215A      2.147355   216A      2.159131
     217A      2.167829   218A      2.188752   219A      2.196009
     220A      2.217456   221A      2.221986   222A      2.244078
     223A      2.266276   224A      2.282892   225A      2.299431
     226A      2.304611   227A      2.311698   228A      2.323811
     229A      2.326345   230A      2.333076   231A      2.356827
     232A      2.381518   233A      2.402894   234A      2.459317
     235A      2.479475   236A      2.480258   237A      2.495362
     238A      2.502205   239A      2.510512   240A      2.524756
     241A      2.553176   242A      2.563095   243A      2.600769
     244A      2.616122   245A      2.640136   246A      2.672731
     247A      2.744867   248A      2.755017   249A      2.759060
     250A      2.770837   251A      2.775839   252A      2.783534
     253A      2.794556   254A      2.808037   255A      2.826747
     256A      2.850301   257A      2.862240   258A      2.881375
     259A      2.885233   260A      2.920070   261A      2.933534
     262A      2.958432   263A      2.990149   264A      3.006778
     265A      3.018384   266A      3.029371   267A      3.048843
     268A      3.061426   269A      3.158715   270A      3.172112
     271A      3.220688   272A      3.253115   273A      3.336200
     274A      3.452363   275A      3.796873   276A      3.996829

    Final Occupation by Irrep:
              A
    DOCC [    51 ]

  @RHF Final Energy:  -572.65600476910083

   => Energetics <=

    Nuclear Repulsion Energy =            822.0812398271053780
    One-Electron Energy =               -2406.9991822701117599
    Two-Electron Energy =                1012.2619376739054360
    Total Energy =                       -572.6560047691008322

Computation Completed

Properties will be evaluated at   0.000000,   0.000000,   0.000000 [a0]

Properties computed using the SCF density matrix

  Nuclear Dipole Moment: [e a0]
     X:    -1.7172      Y:    -0.5451      Z:    -4.3521

  Electronic Dipole Moment: [e a0]
     X:     2.6450      Y:     0.9878      Z:     5.1531

  Dipole Moment: [e a0]
     X:     0.9278      Y:     0.4427      Z:     0.8011     Total:     1.3033

  Dipole Moment: [D]
     X:     2.3583      Y:     1.1251      Z:     2.0361     Total:     3.3126

*** tstop() called on ds3 at Tue Apr 28 00:42:34 2020
Module time:
	user time   =     310.88 seconds =       5.18 minutes
	system time =     117.76 seconds =       1.96 minutes
	total time  =        960 seconds =      16.00 minutes
Total time:
	user time   =     310.88 seconds =       5.18 minutes
	system time =     117.76 seconds =       1.96 minutes
	total time  =        960 seconds =      16.00 minutes
                                     G D M A

                                 by Anthony Stone

                           version 2.2.06, 22 June 2011

               Distributed Multipoles from Gaussian wavefunctions

Starting at 0:42:34 on 28 Apr 2020

Using SCF density matrix from file ./SSI/SSI-021PHE-251HIE-1-dimer.test.5275.fchk

                         Distributed Multipole Analysis

Standard DMA

Positions and radii in angstrom
Multipole moments in atomic units, ea_0^k for rank k

C          x = -3.139615  y =  2.398527  z =  1.203788 angstrom
           Maximum rank =  0   Radius =  0.650 angstrom
                   Q00  =  -0.205833

C          x =  0.173385  y =  1.258527  z = -0.286212 angstrom
           Maximum rank =  0   Radius =  0.650 angstrom
                   Q00  =  -0.074328

C          x = -0.982615  y =  1.296527  z =  0.484788 angstrom
           Maximum rank =  0   Radius =  0.650 angstrom
                   Q00  =  -0.068696

C          x =  0.397385  y =  2.233527  z = -1.248212 angstrom
           Maximum rank =  0   Radius =  0.650 angstrom
                   Q00  =  -0.096692

C          x = -1.923615  y =  2.317527  z =  0.311788 angstrom
           Maximum rank =  0   Radius =  0.650 angstrom
                   Q00  =  -0.109234

C          x = -0.500615  y =  3.264527  z = -1.388212 angstrom
           Maximum rank =  0   Radius =  0.650 angstrom
                   Q00  =  -0.002857

C          x = -1.655615  y =  3.305527  z = -0.628212 angstrom
           Maximum rank =  0   Radius =  0.650 angstrom
                   Q00  =  -0.034147

H          x =  0.905385  y =  0.495527  z = -0.129212 angstrom
           Maximum rank =  0   Radius =  0.325 angstrom
                   Q00  =   0.077191

H          x = -1.144615  y =  0.532527  z =  1.233788 angstrom
           Maximum rank =  0   Radius =  0.325 angstrom
                   Q00  =   0.054906

H          x =  1.293385  y =  2.208527  z = -1.854212 angstrom
           Maximum rank =  0   Radius =  0.325 angstrom
                   Q00  =   0.049251

H          x = -0.306615  y =  4.029527  z = -2.122212 angstrom
           Maximum rank =  0   Radius =  0.325 angstrom
                   Q00  =   0.056803

H          x = -3.493615  y =  1.386527  z =  1.398788 angstrom
           Maximum rank =  0   Radius =  0.325 angstrom
                   Q00  =   0.101715

H          x = -3.938615  y =  2.939527  z =  0.692788 angstrom
           Maximum rank =  0   Radius =  0.325 angstrom
                   Q00  =   0.098413

H          x = -2.334615  y =  4.137527  z = -0.744212 angstrom
           Maximum rank =  0   Radius =  0.325 angstrom
                   Q00  =   0.051704

H          x = -2.920245  y =  2.879437  z =  2.168468 angstrom
           Maximum rank =  0   Radius =  0.325 angstrom
                   Q00  =   0.102264

C          x =  0.672385  y = -2.201473  z = -1.557212 angstrom
           Maximum rank =  0   Radius =  0.650 angstrom
                   Q00  =  -0.033549

C          x =  1.240385  y = -3.446473  z = -2.222212 angstrom
           Maximum rank =  0   Radius =  0.650 angstrom
                   Q00  =  -0.228064

C          x =  0.963385  y = -2.087473  z = -0.092212 angstrom
           Maximum rank =  0   Radius =  0.650 angstrom
                   Q00  =   0.224182

C          x =  2.077385  y = -1.618473  z =  0.503788 angstrom
           Maximum rank =  0   Radius =  0.650 angstrom
                   Q00  =  -0.022041

C          x =  0.615385  y = -2.046473  z =  2.076788 angstrom
           Maximum rank =  0   Radius =  0.650 angstrom
                   Q00  =   0.457453

N          x =  0.041385  y = -2.330473  z =  0.904788 angstrom
           Maximum rank =  0   Radius =  0.650 angstrom
                   Q00  =  -0.782156

N          x =  1.857385  y = -1.632473  z =  1.863788 angstrom
           Maximum rank =  0   Radius =  0.650 angstrom
                   Q00  =  -0.473946

H          x =  1.051385  y = -1.306473  z = -2.048212 angstrom
           Maximum rank =  0   Radius =  0.325 angstrom
                   Q00  =   0.057981

H          x = -0.407615  y = -2.183473  z = -1.651212 angstrom
           Maximum rank =  0   Radius =  0.325 angstrom
                   Q00  =   0.096870

H          x =  2.320385  y = -3.476473  z = -2.072212 angstrom
           Maximum rank =  0   Radius =  0.325 angstrom
                   Q00  =   0.078777

H          x =  2.772385  y = -1.065473  z = -0.079212 angstrom
           Maximum rank =  0   Radius =  0.325 angstrom
                   Q00  =   0.103429

H          x =  0.135385  y = -2.123473  z =  3.045788 angstrom
           Maximum rank =  0   Radius =  0.325 angstrom
                   Q00  =   0.124656

H          x =  2.466385  y = -1.290473  z =  2.603788 angstrom
           Maximum rank =  0   Radius =  0.325 angstrom
                   Q00  =   0.225259

H          x =  0.990255  y = -3.410313  z = -3.292782 angstrom
           Maximum rank =  0   Radius =  0.325 angstrom
                   Q00  =   0.081182

H          x =  0.785155  y = -4.346743  z = -1.783712 angstrom
           Maximum rank =  0   Radius =  0.325 angstrom
                   Q00  =   0.089509

Total multipoles referred to origin at
           x =   0.000000,  y =    0.000000,  z =    0.000000 angstrom
                   Q00  =  -0.000000

Finished at 0:42:34 on 28 Apr 2020

  DMA results are available in the Python driver through the
	  variable('DMA DISTRIBUTED MULTIPOLES')
  and
	  variable('DMA TOTAL MULTIPOLES')
  commands.

    Psi4 stopped on: Tuesday, 28 April 2020 12:42AM
    Psi4 wall time for execution: 0:16:00.32

*** Psi4 exiting successfully. Buy a developer a beer!
