                               Psi4 1.3.2 release

  ==> Input File <==

--------------------------------------------------------------------------
import numpy as np
set {scf_type pk
basis cc-pvdz
d_convergence 10
gdma_switch   0
gdma_limit    0
gdma_origin   [ 0.0,  0.0,  0.0 ]
}
molecule test {
    units Angstrom
    0 1
    --
    0 1
    C                1.148262530735145    -1.045575737855003    -0.947409396518949
    C                1.776262530735145    -2.431575737855003    -0.844409396518949
    C                0.298262530735145    -0.683575737855003     0.240590603481051
    C                0.873262530735145    -0.246575737855003     1.429590603481051
    C               -1.073737469264855    -0.808575737855003     0.167590603481051
    C                0.082262530735145     0.035424262144997     2.543590603481051
    C               -1.866737469264855    -0.486575737855003     1.250590603481051
    C               -1.285737469264855    -0.085575737855003     2.460590603481051
    H                1.937262530735145    -0.299575737855003    -1.047409396518949
    H                0.544262530735145    -0.999575737855003    -1.852409396518949
    H                0.977262530735145    -3.155575737855003    -0.738409396518949
    H                1.943262530735145    -0.147575737855003     1.511590603481051
    H               -1.537737469264855    -1.154575737855003    -0.745409396518949
    H                0.545262530735145     0.344424262144997     3.470590603481051
    H               -2.937737469264855    -0.592575737855003     1.178590603481051
    H               -1.907737469264855     0.121424262144997     3.319590603481051
    H                2.457302530735145    -2.489085737855003     0.017490603481051
    H                2.368742530735146    -2.657384737855003    -1.743288396518949
    C                0.321262530735145     2.261424262144997    -2.159409396518949
    C               -0.576737469264855     3.071424262144997    -3.103409396518949
    H                0.981262530735145     1.625424262144997    -2.736409396518949
    H                0.918262530735145     2.941424262144997    -1.551409396518949
    H               -0.294737469264855     1.647424262144997    -1.503409396518949
    H               -1.164737469264855     3.758424262144997    -2.495409396518950
    H               -1.246789469264855     2.385538262144997    -3.642474396518949
    H                0.028824530735145     3.669820262144997    -3.799984396518949

}
e, wfn = energy('scf', return_wfn=True)
gdma(wfn)
dmavals = variable('DMA DISTRIBUTED MULTIPOLES')
charges = np.array(dmavals)
print(charges)
np.save('SSI-079PHE-104LEU-1-dimer.npy', np.array(charges))--------------------------------------------------------------------------

*** tstart() called on ds3
*** at Mon Apr 27 23:13:57 2020

   => Loading Basis Set <=

    Name: CC-PVDZ
    Role: ORBITAL
    Keyword: BASIS
    atoms 1-8, 19-20  entry C          line   138 file /theoryfs2/ds/metcalf/miniconda2/envs/tf2gpu/share/psi4/basis/cc-pvdz.gbs
    atoms 9-18, 21-26 entry H          line    22 file /theoryfs2/ds/metcalf/miniconda2/envs/tf2gpu/share/psi4/basis/cc-pvdz.gbs

         ---------------------------------------------------------
                                   SCF
               by Justin Turney, Rob Parrish, Andy Simmonett
                          and Daniel G. A. Smith
                              RHF Reference
                        1 Threads,    500 MiB Core
         ---------------------------------------------------------

  ==> Geometry <==

    Molecular point group: c1
    Full point group: C1

    Geometry (in Angstrom), charge = 0, multiplicity = 1:

       Center              X                  Y                   Z               Mass
    ------------   -----------------  -----------------  -----------------  -----------------
         C            1.148262530735    -1.045575737855    -0.947409396519    12.000000000000
         C            1.776262530735    -2.431575737855    -0.844409396519    12.000000000000
         C            0.298262530735    -0.683575737855     0.240590603481    12.000000000000
         C            0.873262530735    -0.246575737855     1.429590603481    12.000000000000
         C           -1.073737469265    -0.808575737855     0.167590603481    12.000000000000
         C            0.082262530735     0.035424262145     2.543590603481    12.000000000000
         C           -1.866737469265    -0.486575737855     1.250590603481    12.000000000000
         C           -1.285737469265    -0.085575737855     2.460590603481    12.000000000000
         H            1.937262530735    -0.299575737855    -1.047409396519     1.007825032230
         H            0.544262530735    -0.999575737855    -1.852409396519     1.007825032230
         H            0.977262530735    -3.155575737855    -0.738409396519     1.007825032230
         H            1.943262530735    -0.147575737855     1.511590603481     1.007825032230
         H           -1.537737469265    -1.154575737855    -0.745409396519     1.007825032230
         H            0.545262530735     0.344424262145     3.470590603481     1.007825032230
         H           -2.937737469265    -0.592575737855     1.178590603481     1.007825032230
         H           -1.907737469265     0.121424262145     3.319590603481     1.007825032230
         H            2.457302530735    -2.489085737855     0.017490603481     1.007825032230
         H            2.368742530735    -2.657384737855    -1.743288396519     1.007825032230
         C            0.321262530735     2.261424262145    -2.159409396519    12.000000000000
         C           -0.576737469265     3.071424262145    -3.103409396519    12.000000000000
         H            0.981262530735     1.625424262145    -2.736409396519     1.007825032230
         H            0.918262530735     2.941424262145    -1.551409396519     1.007825032230
         H           -0.294737469265     1.647424262145    -1.503409396519     1.007825032230
         H           -1.164737469265     3.758424262145    -2.495409396519     1.007825032230
         H           -1.246789469265     2.385538262145    -3.642474396519     1.007825032230
         H            0.028824530735     3.669820262145    -3.799984396519     1.007825032230

  Running in c1 symmetry.

  Rotational constants: A =      0.04235  B =      0.02426  C =      0.01848 [cm^-1]
  Rotational constants: A =   1269.68957  B =    727.28523  C =    554.00896 [MHz]
  Nuclear repulsion =  493.650751894618168

  Charge       = 0
  Multiplicity = 1
  Electrons    = 76
  Nalpha       = 38
  Nbeta        = 38

  ==> Algorithm <==

  SCF Algorithm Type is PK.
  DIIS enabled.
  MOM disabled.
  Fractional occupation disabled.
  Guess Type is SAD.
  Energy threshold   = 1.00e-06
  Density threshold  = 1.00e-10
  Integral threshold = 0.00e+00

  ==> Primary Basis <==

  Basis Set: CC-PVDZ
    Blend: CC-PVDZ
    Number of shells: 108
    Number of basis function: 220
    Number of Cartesian functions: 230
    Spherical Harmonics?: true
    Max angular momentum: 2

  ==> Pre-Iterations <==

   -------------------------------------------------------
    Irrep   Nso     Nmo     Nalpha   Nbeta   Ndocc  Nsocc
   -------------------------------------------------------
     A        220     220       0       0       0       0
   -------------------------------------------------------
    Total     220     220      38      38      38       0
   -------------------------------------------------------

  ==> Integral Setup <==

  Using integral reordering PK algorithm.
  Sizing the integral batches needed.
  Building batch lookup table.
   Calculation information:
      Number of atoms:                  26
      Number of AO shells:             108
      Number of primitives:            300
      Number of atomic orbitals:       230
      Number of basis functions:       220

      Integral cutoff                 1.00e-12
      Number of threads:                 1

	Batch   1 pq = [       0,    9405] index = [             0,44231715] size =     44231715
	Batch   2 pq = [    9405,   13301] index = [      44231715,88464951] size =     44233236
	Batch   3 pq = [   13301,   16290] index = [      88464951,132690195] size =     44225244
	Batch   4 pq = [   16290,   18810] index = [     132690195,176917455] size =     44227260
	Batch   5 pq = [   18810,   21030] index = [     176917455,221140965] size =     44223510
	Batch   6 pq = [   21030,   23037] index = [     221140965,265363203] size =     44222238
	Batch   7 pq = [   23037,   24310] index = [     265363203,295500205] size =     30137002
  Task number: 27
  Buffer size: 11059200
  Buffer per thread: 2
  We computed 15938205 shell quartets total.
  Whereas there are 17325441 unique shell quartets.

  ==> DiskJK: Disk-Based J/K Matrices <==

    J tasked:                  Yes
    K tasked:                  Yes
    wK tasked:                  No
    Memory [MiB]:              375
    Schwarz Cutoff:          1E-12

    OpenMP threads:              1

  Minimum eigenvalue in the overlap matrix is 2.9970003857E-04.
  Using Symmetric Orthogonalization.

  SCF Guess: Superposition of Atomic Densities via on-the-fly atomic UHF.

  ==> Iterations <==

                        Total Energy        Delta E     RMS |[F,P]|

   @RHF iter SAD:  -386.94979787188282   -3.86950e+02   0.00000e+00
   @RHF iter   1:  -387.77568518612009   -8.25887e-01   2.73815e-03 DIIS
   @RHF iter   2:  -387.99174573013670   -2.16061e-01   1.14112e-03 DIIS
   @RHF iter   3:  -388.02613576383089   -3.43900e-02   2.48795e-04 DIIS
   @RHF iter   4:  -388.02896768459561   -2.83192e-03   6.04269e-05 DIIS
   @RHF iter   5:  -388.02907728878830   -1.09604e-04   2.13817e-05 DIIS
   @RHF iter   6:  -388.02909186847955   -1.45797e-05   4.07741e-06 DIIS
   @RHF iter   7:  -388.02909259844972   -7.29970e-07   1.20979e-06 DIIS
   @RHF iter   8:  -388.02909267397229   -7.55226e-08   4.14448e-07 DIIS
   @RHF iter   9:  -388.02909269344548   -1.94732e-08   1.96640e-07 DIIS
   @RHF iter  10:  -388.02909269948515   -6.03967e-09   9.09772e-08 DIIS
   @RHF iter  11:  -388.02909270074099   -1.25584e-09   2.38906e-08 DIIS
   @RHF iter  12:  -388.02909270079869   -5.76961e-11   8.84279e-09 DIIS
   @RHF iter  13:  -388.02909270080198   -3.29692e-12   3.60161e-09 DIIS
   @RHF iter  14:  -388.02909270080443   -2.44427e-12   9.23006e-10 DIIS
   @RHF iter  15:  -388.02909270080556   -1.13687e-12   4.35004e-10 DIIS
   @RHF iter  16:  -388.02909270080568   -1.13687e-13   2.02686e-10 DIIS
   @RHF iter  17:  -388.02909270080454    1.13687e-12   8.86074e-11 DIIS
  Energy and wave function converged.

  ==> Post-Iterations <==

    Orbital Energies [Eh]
    ---------------------

    Doubly Occupied:

       1A    -11.235234     2A    -11.234157     3A    -11.233919
       4A    -11.230267     5A    -11.229505     6A    -11.227404
       7A    -11.227031     8A    -11.221976     9A    -11.215824
      10A    -11.210130    11A     -1.157534    12A     -1.064463
      13A     -1.013631    14A     -1.013108    15A     -0.983086
      16A     -0.862289    17A     -0.831869    18A     -0.825580
      19A     -0.786891    20A     -0.692259    21A     -0.641637
      22A     -0.633117    23A     -0.596370    24A     -0.593695
      25A     -0.593386    26A     -0.585675    27A     -0.578160
      28A     -0.543619    29A     -0.517943    30A     -0.498733
      31A     -0.490687    32A     -0.486200    33A     -0.483312
      34A     -0.479174    35A     -0.475764    36A     -0.467800
      37A     -0.333873    38A     -0.322060

    Virtual:

      39A      0.135030    40A      0.141807    41A      0.177246
      42A      0.192078    43A      0.201671    44A      0.211852
      45A      0.227539    46A      0.239365    47A      0.241895
      48A      0.256095    49A      0.261220    50A      0.266728
      51A      0.279631    52A      0.285571    53A      0.288636
      54A      0.299159    55A      0.303270    56A      0.316042
      57A      0.346176    58A      0.393019    59A      0.400626
      60A      0.422138    61A      0.453216    62A      0.470401
      63A      0.493039    64A      0.498544    65A      0.570634
      66A      0.575075    67A      0.600745    68A      0.603447
      69A      0.607060    70A      0.623810    71A      0.625028
      72A      0.660165    73A      0.676634    74A      0.688167
      75A      0.701552    76A      0.719829    77A      0.730090
      78A      0.739024    79A      0.741730    80A      0.749108
      81A      0.753447    82A      0.766306    83A      0.786643
      84A      0.800882    85A      0.829395    86A      0.845147
      87A      0.852245    88A      0.867556    89A      0.882866
      90A      0.888761    91A      0.893011    92A      0.896239
      93A      0.900483    94A      0.904196    95A      0.905490
      96A      0.910117    97A      0.920447    98A      0.925083
      99A      0.938279   100A      0.943575   101A      0.956855
     102A      0.965197   103A      0.970988   104A      0.997270
     105A      1.004053   106A      1.026753   107A      1.042860
     108A      1.085699   109A      1.123361   110A      1.129617
     111A      1.146350   112A      1.148696   113A      1.154040
     114A      1.158813   115A      1.188098   116A      1.220139
     117A      1.237406   118A      1.252775   119A      1.256878
     120A      1.273021   121A      1.299239   122A      1.307417
     123A      1.321546   124A      1.334206   125A      1.393310
     126A      1.427443   127A      1.441146   128A      1.480323
     129A      1.490655   130A      1.514434   131A      1.534298
     132A      1.587725   133A      1.616641   134A      1.621725
     135A      1.678774   136A      1.685783   137A      1.687148
     138A      1.695596   139A      1.723334   140A      1.747240
     141A      1.762235   142A      1.775148   143A      1.849881
     144A      1.853847   145A      1.860033   146A      1.873370
     147A      1.881782   148A      1.885902   149A      1.893472
     150A      1.901325   151A      1.907408   152A      1.925152
     153A      1.930111   154A      1.937334   155A      1.944331
     156A      1.947664   157A      1.953702   158A      1.957429
     159A      1.964655   160A      1.967776   161A      1.972405
     162A      1.978032   163A      1.992134   164A      2.004001
     165A      2.009427   166A      2.026790   167A      2.047148
     168A      2.065526   169A      2.086925   170A      2.102341
     171A      2.110955   172A      2.125918   173A      2.138636
     174A      2.157559   175A      2.166691   176A      2.170118
     177A      2.177902   178A      2.196659   179A      2.241273
     180A      2.259211   181A      2.277410   182A      2.299258
     183A      2.308010   184A      2.319932   185A      2.321784
     186A      2.358166   187A      2.388648   188A      2.456115
     189A      2.464762   190A      2.479023   191A      2.483648
     192A      2.499935   193A      2.529715   194A      2.553183
     195A      2.571321   196A      2.585733   197A      2.592505
     198A      2.637017   199A      2.744739   200A      2.765980
     201A      2.768557   202A      2.781156   203A      2.793065
     204A      2.810901   205A      2.811567   206A      2.846742
     207A      2.854676   208A      2.855624   209A      2.878267
     210A      2.912759   211A      2.954093   212A      2.971650
     213A      2.979451   214A      3.012537   215A      3.031758
     216A      3.059830   217A      3.198394   218A      3.217961
     219A      3.317849   220A      3.988656

    Final Occupation by Irrep:
              A
    DOCC [    38 ]

  @RHF Final Energy:  -388.02909270080454

   => Energetics <=

    Nuclear Repulsion Energy =            493.6507518946181676
    One-Electron Energy =               -1501.7249653516141734
    Two-Electron Energy =                 620.0451207561914089
    Total Energy =                       -388.0290927008045401

Computation Completed

Properties will be evaluated at   0.000000,   0.000000,   0.000000 [a0]

Properties computed using the SCF density matrix

  Nuclear Dipole Moment: [e a0]
     X:     3.3864      Y:     4.6855      Z:   -11.5854

  Electronic Dipole Moment: [e a0]
     X:    -3.3169      Y:    -4.7617      Z:    11.5620

  Dipole Moment: [e a0]
     X:     0.0694      Y:    -0.0763      Z:    -0.0234     Total:     0.1058

  Dipole Moment: [D]
     X:     0.1765      Y:    -0.1939      Z:    -0.0595     Total:     0.2689

*** tstop() called on ds3 at Mon Apr 27 23:16:37 2020
Module time:
	user time   =     119.93 seconds =       2.00 minutes
	system time =      48.41 seconds =       0.81 minutes
	total time  =        160 seconds =       2.67 minutes
Total time:
	user time   =     119.93 seconds =       2.00 minutes
	system time =      48.41 seconds =       0.81 minutes
	total time  =        160 seconds =       2.67 minutes
                                     G D M A

                                 by Anthony Stone

                           version 2.2.06, 22 June 2011

               Distributed Multipoles from Gaussian wavefunctions

Starting at 23:16:37 on 27 Apr 2020

Using SCF density matrix from file ./SSI/SSI-079PHE-104LEU-1-dimer.test.1848.fchk

                         Distributed Multipole Analysis

Standard DMA

Positions and radii in angstrom
Multipole moments in atomic units, ea_0^k for rank k

C          x =  1.148263  y = -1.045576  z = -0.947409 angstrom
           Maximum rank =  0   Radius =  0.650 angstrom
                   Q00  =  -0.040214

C          x =  1.776263  y = -2.431576  z = -0.844409 angstrom
           Maximum rank =  0   Radius =  0.650 angstrom
                   Q00  =  -0.228504

C          x =  0.298263  y = -0.683576  z =  0.240591 angstrom
           Maximum rank =  0   Radius =  0.650 angstrom
                   Q00  =  -0.106419

C          x =  0.873263  y = -0.246576  z =  1.429591 angstrom
           Maximum rank =  0   Radius =  0.650 angstrom
                   Q00  =  -0.000295

C          x = -1.073737  y = -0.808576  z =  0.167591 angstrom
           Maximum rank =  0   Radius =  0.650 angstrom
                   Q00  =  -0.083547

C          x =  0.082263  y =  0.035424  z =  2.543591 angstrom
           Maximum rank =  0   Radius =  0.650 angstrom
                   Q00  =  -0.074938

C          x = -1.866737  y = -0.486576  z =  1.250591 angstrom
           Maximum rank =  0   Radius =  0.650 angstrom
                   Q00  =  -0.062391

C          x = -1.285737  y = -0.085576  z =  2.460591 angstrom
           Maximum rank =  0   Radius =  0.650 angstrom
                   Q00  =  -0.079433

H          x =  1.937263  y = -0.299576  z = -1.047409 angstrom
           Maximum rank =  0   Radius =  0.325 angstrom
                   Q00  =   0.069137

H          x =  0.544263  y = -0.999576  z = -1.852409 angstrom
           Maximum rank =  0   Radius =  0.325 angstrom
                   Q00  =   0.064560

H          x =  0.977263  y = -3.155576  z = -0.738409 angstrom
           Maximum rank =  0   Radius =  0.325 angstrom
                   Q00  =   0.084354

H          x =  1.943263  y = -0.147576  z =  1.511591 angstrom
           Maximum rank =  0   Radius =  0.325 angstrom
                   Q00  =   0.054881

H          x = -1.537737  y = -1.154576  z = -0.745409 angstrom
           Maximum rank =  0   Radius =  0.325 angstrom
                   Q00  =   0.052684

H          x =  0.545263  y =  0.344424  z =  3.470591 angstrom
           Maximum rank =  0   Radius =  0.325 angstrom
                   Q00  =   0.063429

H          x = -2.937737  y = -0.592576  z =  1.178591 angstrom
           Maximum rank =  0   Radius =  0.325 angstrom
                   Q00  =   0.063813

H          x = -1.907737  y =  0.121424  z =  3.319591 angstrom
           Maximum rank =  0   Radius =  0.325 angstrom
                   Q00  =   0.061569

H          x =  2.457303  y = -2.489086  z =  0.017491 angstrom
           Maximum rank =  0   Radius =  0.325 angstrom
                   Q00  =   0.081990

H          x =  2.368743  y = -2.657385  z = -1.743288 angstrom
           Maximum rank =  0   Radius =  0.325 angstrom
                   Q00  =   0.081599

C          x =  0.321263  y =  2.261424  z = -2.159409 angstrom
           Maximum rank =  0   Radius =  0.650 angstrom
                   Q00  =  -0.241653

C          x = -0.576737  y =  3.071424  z = -3.103409 angstrom
           Maximum rank =  0   Radius =  0.650 angstrom
                   Q00  =  -0.236026

H          x =  0.981263  y =  1.625424  z = -2.736409 angstrom
           Maximum rank =  0   Radius =  0.325 angstrom
                   Q00  =   0.073768

H          x =  0.918263  y =  2.941424  z = -1.551409 angstrom
           Maximum rank =  0   Radius =  0.325 angstrom
                   Q00  =   0.078244

H          x = -0.294737  y =  1.647424  z = -1.503409 angstrom
           Maximum rank =  0   Radius =  0.325 angstrom
                   Q00  =   0.090071

H          x = -1.164737  y =  3.758424  z = -2.495409 angstrom
           Maximum rank =  0   Radius =  0.325 angstrom
                   Q00  =   0.078807

H          x = -1.246789  y =  2.385538  z = -3.642474 angstrom
           Maximum rank =  0   Radius =  0.325 angstrom
                   Q00  =   0.076727

H          x =  0.028825  y =  3.669820  z = -3.799984 angstrom
           Maximum rank =  0   Radius =  0.325 angstrom
                   Q00  =   0.077787

Total multipoles referred to origin at
           x =   0.000000,  y =    0.000000,  z =    0.000000 angstrom
                   Q00  =  -0.000000

Finished at 23:16:37 on 27 Apr 2020

  DMA results are available in the Python driver through the
	  variable('DMA DISTRIBUTED MULTIPOLES')
  and
	  variable('DMA TOTAL MULTIPOLES')
  commands.

    Psi4 stopped on: Monday, 27 April 2020 11:16PM
    Psi4 wall time for execution: 0:02:40.82

*** Psi4 exiting successfully. Buy a developer a beer!
