                               Psi4 1.3.2 release

  ==> Input File <==

--------------------------------------------------------------------------
import numpy as np
set {scf_type pk
basis cc-pvdz
d_convergence 10
gdma_switch   0
gdma_limit    0
gdma_origin   [ 0.0,  0.0,  0.0 ]
}
molecule test {
    units Angstrom
    0 1
    --
    0 1
    C                1.546449345221754    -1.973788427017492     1.203021028602541
    C                1.658449345221754    -2.901788427017492     2.421021028602541
    C                1.818449345221754    -0.529788427017492     1.614021028602541
    C                2.545449345221754    -2.411788427017491     0.137021028602541
    H                0.549449345221754    -2.052788427017492     0.784021028602541
    H                2.687449345221755    -2.860788427017492     2.784021028602541
    H                1.476449345221754    -3.925788427017492     2.084021028602541
    H                2.774449345221754    -0.447788427017492     2.130021028602541
    H                1.838449345221754     0.101211572982508     0.725021028602541
    H                1.017449345221755    -0.164788427017492     2.256021028602541
    H                2.343449345221754    -3.439788427017492    -0.164978971397459
    H                2.453449345221754    -1.765788427017492    -0.735978971397459
    H                3.559449345221755    -2.341788427017492     0.527021028602541
    H                0.991539345221754    -2.690468427017492     3.269881028602541
    C               -1.848550654778246     3.228211572982508     0.406021028602541
    C               -1.226550654778246    -0.402788427017492    -0.509978971397459
    C               -0.730550654778246    -0.286788427017492    -1.809978971397459
    C               -1.571550654778246     0.741211572982508     0.210021028602541
    C               -1.433550654778246     2.005211572982508    -0.359978971397459
    C               -0.585550654778246     0.977211572982508    -2.386978971397459
    C               -0.936550654778246     2.118211572982508    -1.660978971397459
    H               -1.363550654778246    -1.378788427017491    -0.066978971397459
    H               -0.461550654778246    -1.175788427017492    -2.358978971397459
    H               -1.944550654778246     0.637211572982508     1.217021028602541
    H               -0.208550654778246     1.083211572982508    -3.392978971397460
    H               -1.118550654778246     4.017211572982509     0.213021028602541
    H               -1.821550654778246     3.008211572982508     1.473021028602541
    H               -0.824550654778246     3.091211572982508    -2.116978971397459
    H               -2.851230654778246     3.598641572982509     0.146361028602541

}
e, wfn = energy('scf', return_wfn=True)
gdma(wfn)
dmavals = variable('DMA DISTRIBUTED MULTIPOLES')
charges = np.array(dmavals)
print(charges)
np.save('SSI-002LEU-153PHE-1-dimer.npy', np.array(charges))--------------------------------------------------------------------------

*** tstart() called on ds3
*** at Mon Apr 27 13:18:58 2020

   => Loading Basis Set <=

    Name: CC-PVDZ
    Role: ORBITAL
    Keyword: BASIS
    atoms 1-4, 15-21  entry C          line   138 file /theoryfs2/ds/metcalf/miniconda2/envs/tf2gpu/share/psi4/basis/cc-pvdz.gbs
    atoms 5-14, 22-29 entry H          line    22 file /theoryfs2/ds/metcalf/miniconda2/envs/tf2gpu/share/psi4/basis/cc-pvdz.gbs

         ---------------------------------------------------------
                                   SCF
               by Justin Turney, Rob Parrish, Andy Simmonett
                          and Daniel G. A. Smith
                              RHF Reference
                        1 Threads,    500 MiB Core
         ---------------------------------------------------------

  ==> Geometry <==

    Molecular point group: c1
    Full point group: C1

    Geometry (in Angstrom), charge = 0, multiplicity = 1:

       Center              X                  Y                   Z               Mass
    ------------   -----------------  -----------------  -----------------  -----------------
         C            1.546449345222    -1.973788427017     1.203021028603    12.000000000000
         C            1.658449345222    -2.901788427017     2.421021028603    12.000000000000
         C            1.818449345222    -0.529788427017     1.614021028603    12.000000000000
         C            2.545449345222    -2.411788427017     0.137021028603    12.000000000000
         H            0.549449345222    -2.052788427017     0.784021028603     1.007825032230
         H            2.687449345222    -2.860788427017     2.784021028603     1.007825032230
         H            1.476449345222    -3.925788427017     2.084021028603     1.007825032230
         H            2.774449345222    -0.447788427017     2.130021028603     1.007825032230
         H            1.838449345222     0.101211572983     0.725021028603     1.007825032230
         H            1.017449345222    -0.164788427017     2.256021028603     1.007825032230
         H            2.343449345222    -3.439788427017    -0.164978971397     1.007825032230
         H            2.453449345222    -1.765788427017    -0.735978971397     1.007825032230
         H            3.559449345222    -2.341788427017     0.527021028603     1.007825032230
         H            0.991539345222    -2.690468427017     3.269881028603     1.007825032230
         C           -1.848550654778     3.228211572983     0.406021028603    12.000000000000
         C           -1.226550654778    -0.402788427017    -0.509978971397    12.000000000000
         C           -0.730550654778    -0.286788427017    -1.809978971397    12.000000000000
         C           -1.571550654778     0.741211572983     0.210021028603    12.000000000000
         C           -1.433550654778     2.005211572983    -0.359978971397    12.000000000000
         C           -0.585550654778     0.977211572983    -2.386978971397    12.000000000000
         C           -0.936550654778     2.118211572983    -1.660978971397    12.000000000000
         H           -1.363550654778    -1.378788427017    -0.066978971397     1.007825032230
         H           -0.461550654778    -1.175788427017    -2.358978971397     1.007825032230
         H           -1.944550654778     0.637211572983     1.217021028603     1.007825032230
         H           -0.208550654778     1.083211572983    -3.392978971397     1.007825032230
         H           -1.118550654778     4.017211572983     0.213021028603     1.007825032230
         H           -1.821550654778     3.008211572983     1.473021028603     1.007825032230
         H           -0.824550654778     3.091211572983    -2.116978971397     1.007825032230
         H           -2.851230654778     3.598641572983     0.146361028603     1.007825032230

  Running in c1 symmetry.

  Rotational constants: A =      0.05712  B =      0.01573  C =      0.01399 [cm^-1]
  Rotational constants: A =   1712.26592  B =    471.51407  C =    419.50040 [MHz]
  Nuclear repulsion =  579.295579253857341

  Charge       = 0
  Multiplicity = 1
  Electrons    = 84
  Nalpha       = 42
  Nbeta        = 42

  ==> Algorithm <==

  SCF Algorithm Type is PK.
  DIIS enabled.
  MOM disabled.
  Fractional occupation disabled.
  Guess Type is SAD.
  Energy threshold   = 1.00e-06
  Density threshold  = 1.00e-10
  Integral threshold = 0.00e+00

  ==> Primary Basis <==

  Basis Set: CC-PVDZ
    Blend: CC-PVDZ
    Number of shells: 120
    Number of basis function: 244
    Number of Cartesian functions: 255
    Spherical Harmonics?: true
    Max angular momentum: 2

  ==> Pre-Iterations <==

   -------------------------------------------------------
    Irrep   Nso     Nmo     Nalpha   Nbeta   Ndocc  Nsocc
   -------------------------------------------------------
     A        244     244       0       0       0       0
   -------------------------------------------------------
    Total     244     244      42      42      42       0
   -------------------------------------------------------

  ==> Integral Setup <==

  Using integral reordering PK algorithm.
  Sizing the integral batches needed.
  Building batch lookup table.
   Calculation information:
      Number of atoms:                  29
      Number of AO shells:             120
      Number of primitives:            332
      Number of atomic orbitals:       255
      Number of basis functions:       244

      Integral cutoff                 1.00e-12
      Number of threads:                 1

	Batch   1 pq = [       0,    9405] index = [             0,44231715] size =     44231715
	Batch   2 pq = [    9405,   13301] index = [      44231715,88464951] size =     44233236
	Batch   3 pq = [   13301,   16290] index = [      88464951,132690195] size =     44225244
	Batch   4 pq = [   16290,   18810] index = [     132690195,176917455] size =     44227260
	Batch   5 pq = [   18810,   21030] index = [     176917455,221140965] size =     44223510
	Batch   6 pq = [   21030,   23037] index = [     221140965,265363203] size =     44222238
	Batch   7 pq = [   23037,   24883] index = [     265363203,309594286] size =     44231083
	Batch   8 pq = [   24883,   26601] index = [     309594286,353819901] size =     44225615
	Batch   9 pq = [   26601,   28214] index = [     353819901,398029005] size =     44209104
	Batch  10 pq = [   28214,   29740] index = [     398029005,442248670] size =     44219665
	Batch  11 pq = [   29740,   29890] index = [     442248670,446720995] size =      4472325
  Task number: 41
  Buffer size: 11059200
  Buffer per thread: 2
  We computed 25682808 shell quartets total.
  Whereas there are 26357430 unique shell quartets.

  ==> DiskJK: Disk-Based J/K Matrices <==

    J tasked:                  Yes
    K tasked:                  Yes
    wK tasked:                  No
    Memory [MiB]:              375
    Schwarz Cutoff:          1E-12

    OpenMP threads:              1

  Minimum eigenvalue in the overlap matrix is 3.1681299824E-04.
  Using Symmetric Orthogonalization.

  SCF Guess: Superposition of Atomic Densities via on-the-fly atomic UHF.

  ==> Iterations <==

                        Total Energy        Delta E     RMS |[F,P]|

   @RHF iter SAD:  -425.93428766607911   -4.25934e+02   0.00000e+00
   @RHF iter   1:  -426.77164575511756   -8.37358e-01   2.65428e-03 DIIS
   @RHF iter   2:  -427.02116177297461   -2.49516e-01   1.12973e-03 DIIS
   @RHF iter   3:  -427.06220811272908   -4.10463e-02   2.47046e-04 DIIS
   @RHF iter   4:  -427.06552397627223   -3.31586e-03   5.81948e-05 DIIS
   @RHF iter   5:  -427.06565377387835   -1.29798e-04   1.39135e-05 DIIS
   @RHF iter   6:  -427.06566173024208   -7.95636e-06   4.53207e-06 DIIS
   @RHF iter   7:  -427.06566258411857   -8.53876e-07   1.20957e-06 DIIS
   @RHF iter   8:  -427.06566265531774   -7.11992e-08   2.82375e-07 DIIS
   @RHF iter   9:  -427.06566266270164   -7.38390e-09   1.05118e-07 DIIS
   @RHF iter  10:  -427.06566266397562   -1.27397e-09   5.15614e-08 DIIS
   @RHF iter  11:  -427.06566266433384   -3.58227e-10   2.37397e-08 DIIS
   @RHF iter  12:  -427.06566266443485   -1.01011e-10   1.06777e-08 DIIS
   @RHF iter  13:  -427.06566266445213   -1.72804e-11   4.27101e-09 DIIS
   @RHF iter  14:  -427.06566266445532   -3.18323e-12   1.13010e-09 DIIS
   @RHF iter  15:  -427.06566266445435    9.66338e-13   3.29447e-10 DIIS
   @RHF iter  16:  -427.06566266445373    6.25278e-13   1.55281e-10 DIIS
   @RHF iter  17:  -427.06566266445236    1.36424e-12   6.92376e-11 DIIS
  Energy and wave function converged.

  ==> Post-Iterations <==

    Orbital Energies [Eh]
    ---------------------

    Doubly Occupied:

       1A    -11.241909     2A    -11.238391     3A    -11.237215
       4A    -11.233619     5A    -11.232413     6A    -11.231418
       7A    -11.229648     8A    -11.217593     9A    -11.211472
      10A    -11.209263    11A    -11.205149    12A     -1.152059
      13A     -1.078340    14A     -1.044851    15A     -1.012047
      16A     -0.931413    17A     -0.921155    18A     -0.920545
      19A     -0.825773    20A     -0.796819    21A     -0.761628
      22A     -0.691556    23A     -0.634353    24A     -0.631309
      25A     -0.627238    26A     -0.587653    27A     -0.584180
      28A     -0.578416    29A     -0.577215    30A     -0.563135
      31A     -0.535537    32A     -0.532007    33A     -0.525942
      34A     -0.502769    35A     -0.487250    36A     -0.486800
      37A     -0.482648    38A     -0.457261    39A     -0.454202
      40A     -0.448259    41A     -0.332257    42A     -0.322255

    Virtual:

      43A      0.132855    44A      0.137405    45A      0.169175
      46A      0.192785    47A      0.201429    48A      0.210277
      49A      0.227688    50A      0.231510    51A      0.247425
      52A      0.250816    53A      0.255818    54A      0.259784
      55A      0.270133    56A      0.278453    57A      0.282257
      58A      0.292778    59A      0.311909    60A      0.314152
      61A      0.329899    62A      0.339017    63A      0.367209
      64A      0.374751    65A      0.388159    66A      0.409745
      67A      0.412003    68A      0.448862    69A      0.461195
      70A      0.477575    71A      0.491018    72A      0.555597
      73A      0.565076    74A      0.570863    75A      0.593499
      76A      0.607842    77A      0.618252    78A      0.627512
      79A      0.643677    80A      0.679192    81A      0.685541
      82A      0.706216    83A      0.726124    84A      0.735297
      85A      0.738102    86A      0.741197    87A      0.748239
      88A      0.758107    89A      0.764076    90A      0.773473
      91A      0.785251    92A      0.798330    93A      0.829810
      94A      0.842615    95A      0.846833    96A      0.854540
      97A      0.866493    98A      0.869314    99A      0.872837
     100A      0.875418   101A      0.892903   102A      0.899723
     103A      0.902014   104A      0.903588   105A      0.907981
     106A      0.917636   107A      0.918692   108A      0.922783
     109A      0.936361   110A      0.939254   111A      0.947825
     112A      0.955586   113A      0.968436   114A      0.972717
     115A      0.981263   116A      1.004301   117A      1.006007
     118A      1.013862   119A      1.029416   120A      1.079159
     121A      1.116705   122A      1.131492   123A      1.137914
     124A      1.142289   125A      1.152828   126A      1.167568
     127A      1.169876   128A      1.204871   129A      1.242164
     130A      1.242920   131A      1.253416   132A      1.269010
     133A      1.296101   134A      1.305256   135A      1.322667
     136A      1.327765   137A      1.378160   138A      1.411797
     139A      1.412994   140A      1.434700   141A      1.504602
     142A      1.519937   143A      1.545038   144A      1.559605
     145A      1.577721   146A      1.603436   147A      1.660561
     148A      1.671202   149A      1.677497   150A      1.689007
     151A      1.698596   152A      1.702623   153A      1.706251
     154A      1.721282   155A      1.723819   156A      1.738275
     157A      1.758486   158A      1.766576   159A      1.801107
     160A      1.813421   161A      1.842463   162A      1.850926
     163A      1.858153   164A      1.866315   165A      1.886948
     166A      1.898229   167A      1.907102   168A      1.918214
     169A      1.922628   170A      1.934024   171A      1.939246
     172A      1.943377   173A      1.952718   174A      1.963086
     175A      1.967000   176A      1.975032   177A      1.981453
     178A      1.990124   179A      1.995660   180A      2.005334
     181A      2.015051   182A      2.030379   183A      2.043596
     184A      2.053455   185A      2.068692   186A      2.077669
     187A      2.105157   188A      2.105990   189A      2.121809
     190A      2.133960   191A      2.139385   192A      2.153974
     193A      2.157523   194A      2.161329   195A      2.168465
     196A      2.186836   197A      2.247361   198A      2.259672
     199A      2.267125   200A      2.280229   201A      2.294061
     202A      2.297822   203A      2.307629   204A      2.320434
     205A      2.328139   206A      2.335393   207A      2.351761
     208A      2.370651   209A      2.402117   210A      2.462495
     211A      2.478058   212A      2.491998   213A      2.502775
     214A      2.535761   215A      2.589810   216A      2.612118
     217A      2.620201   218A      2.634806   219A      2.712233
     220A      2.731490   221A      2.739860   222A      2.754316
     223A      2.762103   224A      2.766843   225A      2.785540
     226A      2.796339   227A      2.800423   228A      2.808292
     229A      2.810801   230A      2.843275   231A      2.846783
     232A      2.858570   233A      2.864776   234A      2.878040
     235A      2.975875   236A      3.003731   237A      3.017627
     238A      3.029643   239A      3.047859   240A      3.150959
     241A      3.158518   242A      3.199290   243A      3.291311
     244A      3.959935

    Final Occupation by Irrep:
              A
    DOCC [    42 ]

  @RHF Final Energy:  -427.06566266445236

   => Energetics <=

    Nuclear Repulsion Energy =            579.2955792538573405
    One-Electron Energy =               -1724.7725583826322691
    Two-Electron Energy =                 718.4113164643225673
    Total Energy =                       -427.0656626644523612

Computation Completed

Properties will be evaluated at   0.000000,   0.000000,   0.000000 [a0]

Properties computed using the SCF density matrix

  Nuclear Dipole Moment: [e a0]
     X:     8.5286      Y:    -6.2880      Z:     8.2240

  Electronic Dipole Moment: [e a0]
     X:    -8.6583      Y:     6.4682      Z:    -8.2479

  Dipole Moment: [e a0]
     X:    -0.1297      Y:     0.1802      Z:    -0.0239     Total:     0.2233

  Dipole Moment: [D]
     X:    -0.3297      Y:     0.4580      Z:    -0.0608     Total:     0.5676

*** tstop() called on ds3 at Mon Apr 27 13:23:22 2020
Module time:
	user time   =     194.91 seconds =       3.25 minutes
	system time =      79.69 seconds =       1.33 minutes
	total time  =        264 seconds =       4.40 minutes
Total time:
	user time   =     194.91 seconds =       3.25 minutes
	system time =      79.69 seconds =       1.33 minutes
	total time  =        264 seconds =       4.40 minutes
                                     G D M A

                                 by Anthony Stone

                           version 2.2.06, 22 June 2011

               Distributed Multipoles from Gaussian wavefunctions

Starting at 13:23:22 on 27 Apr 2020

Using SCF density matrix from file ./SSI/SSI-002LEU-153PHE-1-dimer.test.6141.fchk

                         Distributed Multipole Analysis

Standard DMA

Positions and radii in angstrom
Multipole moments in atomic units, ea_0^k for rank k

C          x =  1.546449  y = -1.973788  z =  1.203021 angstrom
           Maximum rank =  0   Radius =  0.650 angstrom
                   Q00  =   0.015355

C          x =  1.658449  y = -2.901788  z =  2.421021 angstrom
           Maximum rank =  0   Radius =  0.650 angstrom
                   Q00  =  -0.247318

C          x =  1.818449  y = -0.529788  z =  1.614021 angstrom
           Maximum rank =  0   Radius =  0.650 angstrom
                   Q00  =  -0.238006

C          x =  2.545449  y = -2.411788  z =  0.137021 angstrom
           Maximum rank =  0   Radius =  0.650 angstrom
                   Q00  =  -0.245665

H          x =  0.549449  y = -2.052788  z =  0.784021 angstrom
           Maximum rank =  0   Radius =  0.325 angstrom
                   Q00  =   0.013401

H          x =  2.687449  y = -2.860788  z =  2.784021 angstrom
           Maximum rank =  0   Radius =  0.325 angstrom
                   Q00  =   0.072997

H          x =  1.476449  y = -3.925788  z =  2.084021 angstrom
           Maximum rank =  0   Radius =  0.325 angstrom
                   Q00  =   0.074100

H          x =  2.774449  y = -0.447788  z =  2.130021 angstrom
           Maximum rank =  0   Radius =  0.325 angstrom
                   Q00  =   0.072532

H          x =  1.838449  y =  0.101212  z =  0.725021 angstrom
           Maximum rank =  0   Radius =  0.325 angstrom
                   Q00  =   0.086566

H          x =  1.017449  y = -0.164788  z =  2.256021 angstrom
           Maximum rank =  0   Radius =  0.325 angstrom
                   Q00  =   0.078332

H          x =  2.343449  y = -3.439788  z = -0.164979 angstrom
           Maximum rank =  0   Radius =  0.325 angstrom
                   Q00  =   0.076153

H          x =  2.453449  y = -1.765788  z = -0.735979 angstrom
           Maximum rank =  0   Radius =  0.325 angstrom
                   Q00  =   0.083087

H          x =  3.559449  y = -2.341788  z =  0.527021 angstrom
           Maximum rank =  0   Radius =  0.325 angstrom
                   Q00  =   0.075710

H          x =  0.991539  y = -2.690468  z =  3.269881 angstrom
           Maximum rank =  0   Radius =  0.325 angstrom
                   Q00  =   0.081938

C          x = -1.848551  y =  3.228212  z =  0.406021 angstrom
           Maximum rank =  0   Radius =  0.650 angstrom
                   Q00  =  -0.197687

C          x = -1.226551  y = -0.402788  z = -0.509979 angstrom
           Maximum rank =  0   Radius =  0.650 angstrom
                   Q00  =  -0.073375

C          x = -0.730551  y = -0.286788  z = -1.809979 angstrom
           Maximum rank =  0   Radius =  0.650 angstrom
                   Q00  =  -0.100834

C          x = -1.571551  y =  0.741212  z =  0.210021 angstrom
           Maximum rank =  0   Radius =  0.650 angstrom
                   Q00  =  -0.014834

C          x = -1.433551  y =  2.005212  z = -0.359979 angstrom
           Maximum rank =  0   Radius =  0.650 angstrom
                   Q00  =  -0.097442

C          x = -0.585551  y =  0.977212  z = -2.386979 angstrom
           Maximum rank =  0   Radius =  0.650 angstrom
                   Q00  =  -0.068486

C          x = -0.936551  y =  2.118212  z = -1.660979 angstrom
           Maximum rank =  0   Radius =  0.650 angstrom
                   Q00  =  -0.061496

H          x = -1.363551  y = -1.378788  z = -0.066979 angstrom
           Maximum rank =  0   Radius =  0.325 angstrom
                   Q00  =   0.068239

H          x = -0.461551  y = -1.175788  z = -2.358979 angstrom
           Maximum rank =  0   Radius =  0.325 angstrom
                   Q00  =   0.063511

H          x = -1.944551  y =  0.637212  z =  1.217021 angstrom
           Maximum rank =  0   Radius =  0.325 angstrom
                   Q00  =   0.058524

H          x = -0.208551  y =  1.083212  z = -3.392979 angstrom
           Maximum rank =  0   Radius =  0.325 angstrom
                   Q00  =   0.066717

H          x = -1.118551  y =  4.017212  z =  0.213021 angstrom
           Maximum rank =  0   Radius =  0.325 angstrom
                   Q00  =   0.097508

H          x = -1.821551  y =  3.008212  z =  1.473021 angstrom
           Maximum rank =  0   Radius =  0.325 angstrom
                   Q00  =   0.097489

H          x = -0.824551  y =  3.091212  z = -2.116979 angstrom
           Maximum rank =  0   Radius =  0.325 angstrom
                   Q00  =   0.057559

H          x = -2.851231  y =  3.598642  z =  0.146361 angstrom
           Maximum rank =  0   Radius =  0.325 angstrom
                   Q00  =   0.105424

Total multipoles referred to origin at
           x =   0.000000,  y =    0.000000,  z =    0.000000 angstrom
                   Q00  =  -0.000000

Finished at 13:23:22 on 27 Apr 2020

  DMA results are available in the Python driver through the
	  variable('DMA DISTRIBUTED MULTIPOLES')
  and
	  variable('DMA TOTAL MULTIPOLES')
  commands.

    Psi4 stopped on: Monday, 27 April 2020 01:23PM
    Psi4 wall time for execution: 0:04:24.09

*** Psi4 exiting successfully. Buy a developer a beer!
