                               Psi4 1.3.2 release

  ==> Input File <==

--------------------------------------------------------------------------
import numpy as np
set {scf_type pk
basis cc-pvdz
d_convergence 10
gdma_switch   0
gdma_limit    0
gdma_origin   [ 0.0,  0.0,  0.0 ]
}
molecule test {
    units Angstrom
    0 1
    --
    0 1
    C               -3.624770008735829     0.378092313352394     0.452937682263928
    C               -3.601770008735830    -1.025907686647606    -0.147062317736072
    H               -4.651770008735831     0.669092313352394     0.685937682263928
    H               -3.062770008735829     0.412092313352394     1.379937682263928
    H               -3.196770008735830     1.105092313352394    -0.238062317736072
    H               -2.583770008735829    -1.255907686647606    -0.465062317736072
    H               -4.263710008735830    -1.071707686647606    -1.024402317736071
    H               -3.886250008735829    -1.781907686647606     0.599617682263929
    C                1.090229991264171     0.176092313352394     2.874937682263929
    C               -0.157770008735830     0.404092313352394    -0.690062317736072
    C               -0.109770008735830     0.441092313352394     0.692937682263929
    C                0.976229991264171     0.050092313352394    -1.407062317736071
    C                1.058229991264170     0.114092313352394     1.372937682263929
    C                2.157229991264171    -0.269907686647606    -0.744062317736071
    C                2.194229991264171    -0.236907686647606     0.645937682263929
    O                0.910229991264170     0.021092313352394    -2.761062317736071
    H               -1.066770008735829     0.667092313352394    -1.209062317736072
    H               -0.974770008735830     0.746092313352394     1.255937682263928
    H                0.055229991264170     0.310092313352394    -3.082062317736071
    H                3.030229991264170    -0.545907686647606    -1.316062317736072
    H                1.949229991264170    -0.376907686647606     3.258937682263929
    H                0.184229991264170    -0.305907686647606     3.245937682263929
    H                3.110229991264171    -0.488907686647606     1.162937682263928
    H                1.124909991264170     1.215752313352394     3.232569682263929

}
e, wfn = energy('scf', return_wfn=True)
gdma(wfn)
dmavals = variable('DMA DISTRIBUTED MULTIPOLES')
charges = np.array(dmavals)
print(charges)
np.save('SSI-009ILE-013TYR-1-dimer.npy', np.array(charges))--------------------------------------------------------------------------

*** tstart() called on ds3
*** at Tue Apr 28 12:00:13 2020

   => Loading Basis Set <=

    Name: CC-PVDZ
    Role: ORBITAL
    Keyword: BASIS
    atoms 1-2, 9-15  entry C          line   138 file /theoryfs2/ds/metcalf/miniconda2/envs/tf2gpu/share/psi4/basis/cc-pvdz.gbs
    atoms 3-8, 17-24 entry H          line    22 file /theoryfs2/ds/metcalf/miniconda2/envs/tf2gpu/share/psi4/basis/cc-pvdz.gbs
    atoms 16         entry O          line   198 file /theoryfs2/ds/metcalf/miniconda2/envs/tf2gpu/share/psi4/basis/cc-pvdz.gbs

         ---------------------------------------------------------
                                   SCF
               by Justin Turney, Rob Parrish, Andy Simmonett
                          and Daniel G. A. Smith
                              RHF Reference
                        1 Threads,    500 MiB Core
         ---------------------------------------------------------

  ==> Geometry <==

    Molecular point group: c1
    Full point group: C1

    Geometry (in Angstrom), charge = 0, multiplicity = 1:

       Center              X                  Y                   Z               Mass
    ------------   -----------------  -----------------  -----------------  -----------------
         C           -3.624770008736     0.378092313352     0.452937682264    12.000000000000
         C           -3.601770008736    -1.025907686648    -0.147062317736    12.000000000000
         H           -4.651770008736     0.669092313352     0.685937682264     1.007825032230
         H           -3.062770008736     0.412092313352     1.379937682264     1.007825032230
         H           -3.196770008736     1.105092313352    -0.238062317736     1.007825032230
         H           -2.583770008736    -1.255907686648    -0.465062317736     1.007825032230
         H           -4.263710008736    -1.071707686648    -1.024402317736     1.007825032230
         H           -3.886250008736    -1.781907686648     0.599617682264     1.007825032230
         C            1.090229991264     0.176092313352     2.874937682264    12.000000000000
         C           -0.157770008736     0.404092313352    -0.690062317736    12.000000000000
         C           -0.109770008736     0.441092313352     0.692937682264    12.000000000000
         C            0.976229991264     0.050092313352    -1.407062317736    12.000000000000
         C            1.058229991264     0.114092313352     1.372937682264    12.000000000000
         C            2.157229991264    -0.269907686648    -0.744062317736    12.000000000000
         C            2.194229991264    -0.236907686648     0.645937682264    12.000000000000
         O            0.910229991264     0.021092313352    -2.761062317736    15.994914619570
         H           -1.066770008736     0.667092313352    -1.209062317736     1.007825032230
         H           -0.974770008736     0.746092313352     1.255937682264     1.007825032230
         H            0.055229991264     0.310092313352    -3.082062317736     1.007825032230
         H            3.030229991264    -0.545907686648    -1.316062317736     1.007825032230
         H            1.949229991264    -0.376907686648     3.258937682264     1.007825032230
         H            0.184229991264    -0.305907686648     3.245937682264     1.007825032230
         H            3.110229991264    -0.488907686648     1.162937682264     1.007825032230
         H            1.124909991264     1.215752313352     3.232569682264     1.007825032230

  Running in c1 symmetry.

  Rotational constants: A =      0.04486  B =      0.02721  C =      0.01804 [cm^-1]
  Rotational constants: A =   1344.78925  B =    815.68023  C =    540.92602 [MHz]
  Nuclear repulsion =  500.040131697065306

  Charge       = 0
  Multiplicity = 1
  Electrons    = 76
  Nalpha       = 38
  Nbeta        = 38

  ==> Algorithm <==

  SCF Algorithm Type is PK.
  DIIS enabled.
  MOM disabled.
  Fractional occupation disabled.
  Guess Type is SAD.
  Energy threshold   = 1.00e-06
  Density threshold  = 1.00e-10
  Integral threshold = 0.00e+00

  ==> Primary Basis <==

  Basis Set: CC-PVDZ
    Blend: CC-PVDZ
    Number of shells: 102
    Number of basis function: 210
    Number of Cartesian functions: 220
    Spherical Harmonics?: true
    Max angular momentum: 2

  ==> Pre-Iterations <==

   -------------------------------------------------------
    Irrep   Nso     Nmo     Nalpha   Nbeta   Ndocc  Nsocc
   -------------------------------------------------------
     A        210     210       0       0       0       0
   -------------------------------------------------------
    Total     210     210      38      38      38       0
   -------------------------------------------------------

  ==> Integral Setup <==

  Using integral reordering PK algorithm.
  Sizing the integral batches needed.
  Building batch lookup table.
   Calculation information:
      Number of atoms:                  24
      Number of AO shells:             102
      Number of primitives:            290
      Number of atomic orbitals:       220
      Number of basis functions:       210

      Integral cutoff                 1.00e-12
      Number of threads:                 1

	Batch   1 pq = [       0,    9405] index = [             0,44231715] size =     44231715
	Batch   2 pq = [    9405,   13301] index = [      44231715,88464951] size =     44233236
	Batch   3 pq = [   13301,   16290] index = [      88464951,132690195] size =     44225244
	Batch   4 pq = [   16290,   18810] index = [     132690195,176917455] size =     44227260
	Batch   5 pq = [   18810,   21030] index = [     176917455,221140965] size =     44223510
	Batch   6 pq = [   21030,   22155] index = [     221140965,245433090] size =     24292125
  Task number: 23
  Buffer size: 11059200
  Buffer per thread: 2
  We computed 12115468 shell quartets total.
  Whereas there are 13799631 unique shell quartets.

  ==> DiskJK: Disk-Based J/K Matrices <==

    J tasked:                  Yes
    K tasked:                  Yes
    wK tasked:                  No
    Memory [MiB]:              375
    Schwarz Cutoff:          1E-12

    OpenMP threads:              1

  Minimum eigenvalue in the overlap matrix is 3.0752942322E-04.
  Using Symmetric Orthogonalization.

  SCF Guess: Superposition of Atomic Densities via on-the-fly atomic UHF.

  ==> Iterations <==

                        Total Energy        Delta E     RMS |[F,P]|

   @RHF iter SAD:  -422.79734981306603   -4.22797e+02   0.00000e+00
   @RHF iter   1:  -423.59799963866499   -8.00650e-01   2.98702e-03 DIIS
   @RHF iter   2:  -423.81614627352167   -2.18147e-01   1.25437e-03 DIIS
   @RHF iter   3:  -423.85099845652451   -3.48522e-02   2.84744e-04 DIIS
   @RHF iter   4:  -423.85387605166369   -2.87760e-03   1.16978e-04 DIIS
   @RHF iter   5:  -423.85422773545338   -3.51684e-04   2.06000e-05 DIIS
   @RHF iter   6:  -423.85424485823279   -1.71228e-05   6.23141e-06 DIIS
   @RHF iter   7:  -423.85424641687251   -1.55864e-06   2.00058e-06 DIIS
   @RHF iter   8:  -423.85424662667452   -2.09802e-07   7.37561e-07 DIIS
   @RHF iter   9:  -423.85424665983857   -3.31640e-08   3.01124e-07 DIIS
   @RHF iter  10:  -423.85424666620287   -6.36430e-09   1.27634e-07 DIIS
   @RHF iter  11:  -423.85424666821041   -2.00754e-09   5.51179e-08 DIIS
   @RHF iter  12:  -423.85424666858427   -3.73859e-10   2.66023e-08 DIIS
   @RHF iter  13:  -423.85424666865117   -6.69047e-11   7.70499e-09 DIIS
   @RHF iter  14:  -423.85424666865379   -2.61480e-12   2.02087e-09 DIIS
   @RHF iter  15:  -423.85424666865612   -2.33058e-12   6.42168e-10 DIIS
   @RHF iter  16:  -423.85424666865322    2.89901e-12   1.89045e-10 DIIS
   @RHF iter  17:  -423.85424666865629   -3.06954e-12   6.96367e-11 DIIS
  Energy and wave function converged.

  ==> Post-Iterations <==

    Orbital Energies [Eh]
    ---------------------

    Doubly Occupied:

       1A    -20.581343     2A    -11.297461     3A    -11.237125
       4A    -11.234778     5A    -11.230630     6A    -11.230312
       7A    -11.229060     8A    -11.227215     9A    -11.222683
      10A    -11.221831    11A     -1.403159    12A     -1.152105
      13A     -1.037600    14A     -1.024931    15A     -1.017854
      16A     -0.925263    17A     -0.846272    18A     -0.842202
      19A     -0.802573    20A     -0.733846    21A     -0.670300
      22A     -0.642244    23A     -0.611828    24A     -0.604678
      25A     -0.599895    26A     -0.588368    27A     -0.581869
      28A     -0.571310    29A     -0.567433    30A     -0.526150
      31A     -0.507391    32A     -0.497770    33A     -0.494690
      34A     -0.488947    35A     -0.479235    36A     -0.466553
      37A     -0.339394    38A     -0.299624

    Virtual:

      39A      0.130312    40A      0.155263    41A      0.171475
      42A      0.184067    43A      0.202386    44A      0.213199
      45A      0.226156    46A      0.241099    47A      0.248843
      48A      0.257211    49A      0.268280    50A      0.277714
      51A      0.291143    52A      0.294887    53A      0.319893
      54A      0.360462    55A      0.376022    56A      0.380386
      57A      0.395141    58A      0.435476    59A      0.453908
      60A      0.483090    61A      0.504297    62A      0.512089
      63A      0.589290    64A      0.604438    65A      0.607439
      66A      0.615215    67A      0.637945    68A      0.653883
      69A      0.659193    70A      0.679198    71A      0.695772
      72A      0.701137    73A      0.712587    74A      0.723496
      75A      0.736520    76A      0.759714    77A      0.771090
      78A      0.781472    79A      0.791065    80A      0.797404
      81A      0.818232    82A      0.827594    83A      0.842347
      84A      0.848087    85A      0.857150    86A      0.874562
      87A      0.886404    88A      0.892528    89A      0.895857
      90A      0.906098    91A      0.908986    92A      0.912938
      93A      0.929993    94A      0.934631    95A      0.949119
      96A      0.953017    97A      0.970824    98A      0.984851
      99A      1.017387   100A      1.019969   101A      1.053088
     102A      1.062161   103A      1.113209   104A      1.116382
     105A      1.137933   106A      1.151083   107A      1.172841
     108A      1.205613   109A      1.213640   110A      1.231022
     111A      1.248042   112A      1.270421   113A      1.280962
     114A      1.291386   115A      1.299996   116A      1.317698
     117A      1.330491   118A      1.362944   119A      1.365370
     120A      1.396644   121A      1.462987   122A      1.476264
     123A      1.489895   124A      1.519285   125A      1.538031
     126A      1.564690   127A      1.597793   128A      1.623746
     129A      1.632342   130A      1.680079   131A      1.686534
     132A      1.699317   133A      1.709551   134A      1.735592
     135A      1.754425   136A      1.786493   137A      1.800992
     138A      1.810971   139A      1.863651   140A      1.866654
     141A      1.885066   142A      1.890682   143A      1.904088
     144A      1.915367   145A      1.918080   146A      1.923842
     147A      1.930057   148A      1.936715   149A      1.939099
     150A      1.950164   151A      1.951067   152A      1.961476
     153A      1.973828   154A      1.977383   155A      1.998798
     156A      2.010075   157A      2.038553   158A      2.053764
     159A      2.067716   160A      2.075806   161A      2.082331
     162A      2.109471   163A      2.120897   164A      2.137261
     165A      2.157346   166A      2.191548   167A      2.223330
     168A      2.234170   169A      2.266792   170A      2.279054
     171A      2.302528   172A      2.312937   173A      2.336289
     174A      2.348644   175A      2.370328   176A      2.414147
     177A      2.450579   178A      2.466384   179A      2.474736
     180A      2.483233   181A      2.503208   182A      2.536569
     183A      2.549483   184A      2.563169   185A      2.580256
     186A      2.618996   187A      2.657382   188A      2.758891
     189A      2.761368   190A      2.774213   191A      2.791072
     192A      2.804196   193A      2.828934   194A      2.837461
     195A      2.859242   196A      2.870654   197A      2.901983
     198A      2.945398   199A      2.968452   200A      2.982537
     201A      3.017637   202A      3.100423   203A      3.124765
     204A      3.258193   205A      3.297969   206A      3.353238
     207A      3.588339   208A      3.683292   209A      3.996170
     210A      4.199762

    Final Occupation by Irrep:
              A
    DOCC [    38 ]

  @RHF Final Energy:  -423.85424666865629

   => Energetics <=

    Nuclear Repulsion Energy =            500.0401316970653056
    One-Electron Energy =               -1565.7169048378166281
    Two-Electron Energy =                 641.8225264720949781
    Total Energy =                       -423.8542466686562875

Computation Completed

Properties will be evaluated at   0.000000,   0.000000,   0.000000 [a0]

Properties computed using the SCF density matrix

  Nuclear Dipole Moment: [e a0]
     X:   -13.3382      Y:    -0.6579      Z:     7.0057

  Electronic Dipole Moment: [e a0]
     X:    12.8458      Y:     0.8416      Z:    -6.7892

  Dipole Moment: [e a0]
     X:    -0.4923      Y:     0.1837      Z:     0.2164     Total:     0.5683

  Dipole Moment: [D]
     X:    -1.2514      Y:     0.4669      Z:     0.5501     Total:     1.4445

*** tstop() called on ds3 at Tue Apr 28 12:02:20 2020
Module time:
	user time   =      92.67 seconds =       1.54 minutes
	system time =      39.93 seconds =       0.67 minutes
	total time  =        127 seconds =       2.12 minutes
Total time:
	user time   =      92.67 seconds =       1.54 minutes
	system time =      39.93 seconds =       0.67 minutes
	total time  =        127 seconds =       2.12 minutes
                                     G D M A

                                 by Anthony Stone

                           version 2.2.06, 22 June 2011

               Distributed Multipoles from Gaussian wavefunctions

Starting at 12:2:20 on 28 Apr 2020

Using SCF density matrix from file ./SSI/SSI-009ILE-013TYR-1-dimer.test.28753.fchk

                         Distributed Multipole Analysis

Standard DMA

Positions and radii in angstrom
Multipole moments in atomic units, ea_0^k for rank k

C          x = -3.624770  y =  0.378092  z =  0.452938 angstrom
           Maximum rank =  0   Radius =  0.650 angstrom
                   Q00  =  -0.246665

C          x = -3.601770  y = -1.025908  z = -0.147062 angstrom
           Maximum rank =  0   Radius =  0.650 angstrom
                   Q00  =  -0.230299

H          x = -4.651770  y =  0.669092  z =  0.685938 angstrom
           Maximum rank =  0   Radius =  0.325 angstrom
                   Q00  =   0.081472

H          x = -3.062770  y =  0.412092  z =  1.379938 angstrom
           Maximum rank =  0   Radius =  0.325 angstrom
                   Q00  =   0.077383

H          x = -3.196770  y =  1.105092  z = -0.238062 angstrom
           Maximum rank =  0   Radius =  0.325 angstrom
                   Q00  =   0.072235

H          x = -2.583770  y = -1.255908  z = -0.465062 angstrom
           Maximum rank =  0   Radius =  0.325 angstrom
                   Q00  =   0.085357

H          x = -4.263710  y = -1.071708  z = -1.024402 angstrom
           Maximum rank =  0   Radius =  0.325 angstrom
                   Q00  =   0.077497

H          x = -3.886250  y = -1.781908  z =  0.599618 angstrom
           Maximum rank =  0   Radius =  0.325 angstrom
                   Q00  =   0.083750

C          x =  1.090230  y =  0.176092  z =  2.874938 angstrom
           Maximum rank =  0   Radius =  0.650 angstrom
                   Q00  =  -0.193162

C          x = -0.157770  y =  0.404092  z = -0.690062 angstrom
           Maximum rank =  0   Radius =  0.650 angstrom
                   Q00  =  -0.188562

C          x = -0.109770  y =  0.441092  z =  0.692938 angstrom
           Maximum rank =  0   Radius =  0.650 angstrom
                   Q00  =   0.027799

C          x =  0.976230  y =  0.050092  z = -1.407062 angstrom
           Maximum rank =  0   Radius =  0.650 angstrom
                   Q00  =   0.328711

C          x =  1.058230  y =  0.114092  z =  1.372938 angstrom
           Maximum rank =  0   Radius =  0.650 angstrom
                   Q00  =  -0.133554

C          x =  2.157230  y = -0.269908  z = -0.744062 angstrom
           Maximum rank =  0   Radius =  0.650 angstrom
                   Q00  =  -0.124680

C          x =  2.194230  y = -0.236908  z =  0.645938 angstrom
           Maximum rank =  0   Radius =  0.650 angstrom
                   Q00  =  -0.048772

O          x =  0.910230  y =  0.021092  z = -2.761062 angstrom
           Maximum rank =  0   Radius =  0.650 angstrom
                   Q00  =  -0.642818

H          x = -1.066770  y =  0.667092  z = -1.209062 angstrom
           Maximum rank =  0   Radius =  0.325 angstrom
                   Q00  =   0.068420

H          x = -0.974770  y =  0.746092  z =  1.255938 angstrom
           Maximum rank =  0   Radius =  0.325 angstrom
                   Q00  =   0.066504

H          x =  0.055230  y =  0.310092  z = -3.082062 angstrom
           Maximum rank =  0   Radius =  0.325 angstrom
                   Q00  =   0.404468

H          x =  3.030230  y = -0.545908  z = -1.316062 angstrom
           Maximum rank =  0   Radius =  0.325 angstrom
                   Q00  =   0.081442

H          x =  1.949230  y = -0.376908  z =  3.258938 angstrom
           Maximum rank =  0   Radius =  0.325 angstrom
                   Q00  =   0.097954

H          x =  0.184230  y = -0.305908  z =  3.245938 angstrom
           Maximum rank =  0   Radius =  0.325 angstrom
                   Q00  =   0.093140

H          x =  3.110230  y = -0.488908  z =  1.162938 angstrom
           Maximum rank =  0   Radius =  0.325 angstrom
                   Q00  =   0.064210

H          x =  1.124910  y =  1.215752  z =  3.232570 angstrom
           Maximum rank =  0   Radius =  0.325 angstrom
                   Q00  =   0.098169

Total multipoles referred to origin at
           x =   0.000000,  y =    0.000000,  z =    0.000000 angstrom
                   Q00  =  -0.000000

Finished at 12:2:21 on 28 Apr 2020

  DMA results are available in the Python driver through the
	  variable('DMA DISTRIBUTED MULTIPOLES')
  and
	  variable('DMA TOTAL MULTIPOLES')
  commands.

    Psi4 stopped on: Tuesday, 28 April 2020 12:02PM
    Psi4 wall time for execution: 0:02:07.11

*** Psi4 exiting successfully. Buy a developer a beer!
