                               Psi4 1.3.2 release

  ==> Input File <==

--------------------------------------------------------------------------
import numpy as np
set {scf_type pk
basis cc-pvdz
d_convergence 10
gdma_switch   0
gdma_limit    0
gdma_origin   [ 0.0,  0.0,  0.0 ]
}
molecule test {
    units Angstrom
    0 1
    --
    0 1
    C               -0.747259892597183     0.171962913388898    -1.239874175087079
    C               -0.304259892597183    -0.534037086611102    -2.519874175087079
    C               -0.990259892597183    -0.791037086611102    -0.101874175087079
    C                0.091740107402817    -1.326037086611102     0.626125824912921
    C               -2.289259892597183    -1.203037086611102     0.208125824912921
    C               -0.147259892597183    -2.264037086611102     1.630125824912921
    C               -2.532259892597183    -2.147037086611102     1.230125824912921
    C               -1.445259892597183    -2.683037086611102     1.935125824912921
    H                0.025740107402817     0.852962913388898    -0.938874175087079
    H               -1.654259892597183     0.748962913388898    -1.426874175087079
    H                0.682740107402817    -0.972037086611102    -2.356874175087079
    H                1.105740107402817    -1.024037086611102     0.403125824912921
    H               -3.127259892597183    -0.812037086611102    -0.352874175087079
    H                0.686740107402817    -2.676037086611102     2.184125824912921
    H               -3.541259892597183    -2.468037086611102     1.451125824912921
    H               -1.626259892597183    -3.427037086611102     2.690125824912922
    H               -0.258249892597183     0.173472913388898    -3.360892175087079
    H               -1.012349892597183    -1.353177086611102    -2.713842175087079
    C                0.855740107402817     2.861962913388898     0.681125824912921
    C                1.918740107402817     2.365962913388898    -0.294874175087079
    O                2.875740107402817     1.715962913388898     0.158125824912921
    N                1.763740107402817     2.575962913388898    -1.609874175087079
    H                1.349740107402817     3.448962913388898     1.452125824912921
    H                0.424740107402817     1.980962913388898     1.159125824912921
    H                2.343740107402817     2.026962913388898    -2.247874175087079
    H                0.966740107402817     3.076962913388898    -1.980874175087079
    H                0.042010107402817     3.461742913388898     0.247424624912921

}
e, wfn = energy('scf', return_wfn=True)
gdma(wfn)
dmavals = variable('DMA DISTRIBUTED MULTIPOLES')
charges = np.array(dmavals)
print(charges)
np.save('SSI-055PHE-141GLN-2-dimer.npy', np.array(charges))--------------------------------------------------------------------------

*** tstart() called on ds3
*** at Tue Apr 28 09:44:34 2020

   => Loading Basis Set <=

    Name: CC-PVDZ
    Role: ORBITAL
    Keyword: BASIS
    atoms 1-8, 19-20  entry C          line   138 file /theoryfs2/ds/metcalf/miniconda2/envs/tf2gpu/share/psi4/basis/cc-pvdz.gbs
    atoms 9-18, 23-27 entry H          line    22 file /theoryfs2/ds/metcalf/miniconda2/envs/tf2gpu/share/psi4/basis/cc-pvdz.gbs
    atoms 21          entry O          line   198 file /theoryfs2/ds/metcalf/miniconda2/envs/tf2gpu/share/psi4/basis/cc-pvdz.gbs
    atoms 22          entry N          line   168 file /theoryfs2/ds/metcalf/miniconda2/envs/tf2gpu/share/psi4/basis/cc-pvdz.gbs

         ---------------------------------------------------------
                                   SCF
               by Justin Turney, Rob Parrish, Andy Simmonett
                          and Daniel G. A. Smith
                              RHF Reference
                        1 Threads,    500 MiB Core
         ---------------------------------------------------------

  ==> Geometry <==

    Molecular point group: c1
    Full point group: C1

    Geometry (in Angstrom), charge = 0, multiplicity = 1:

       Center              X                  Y                   Z               Mass
    ------------   -----------------  -----------------  -----------------  -----------------
         C           -0.747259892597     0.171962913389    -1.239874175087    12.000000000000
         C           -0.304259892597    -0.534037086611    -2.519874175087    12.000000000000
         C           -0.990259892597    -0.791037086611    -0.101874175087    12.000000000000
         C            0.091740107403    -1.326037086611     0.626125824913    12.000000000000
         C           -2.289259892597    -1.203037086611     0.208125824913    12.000000000000
         C           -0.147259892597    -2.264037086611     1.630125824913    12.000000000000
         C           -2.532259892597    -2.147037086611     1.230125824913    12.000000000000
         C           -1.445259892597    -2.683037086611     1.935125824913    12.000000000000
         H            0.025740107403     0.852962913389    -0.938874175087     1.007825032230
         H           -1.654259892597     0.748962913389    -1.426874175087     1.007825032230
         H            0.682740107403    -0.972037086611    -2.356874175087     1.007825032230
         H            1.105740107403    -1.024037086611     0.403125824913     1.007825032230
         H           -3.127259892597    -0.812037086611    -0.352874175087     1.007825032230
         H            0.686740107403    -2.676037086611     2.184125824913     1.007825032230
         H           -3.541259892597    -2.468037086611     1.451125824913     1.007825032230
         H           -1.626259892597    -3.427037086611     2.690125824913     1.007825032230
         H           -0.258249892597     0.173472913389    -3.360892175087     1.007825032230
         H           -1.012349892597    -1.353177086611    -2.713842175087     1.007825032230
         C            0.855740107403     2.861962913389     0.681125824913    12.000000000000
         C            1.918740107403     2.365962913389    -0.294874175087    12.000000000000
         O            2.875740107403     1.715962913389     0.158125824913    15.994914619570
         N            1.763740107403     2.575962913389    -1.609874175087    14.003074004430
         H            1.349740107403     3.448962913389     1.452125824913     1.007825032230
         H            0.424740107403     1.980962913389     1.159125824913     1.007825032230
         H            2.343740107403     2.026962913389    -2.247874175087     1.007825032230
         H            0.966740107403     3.076962913389    -1.980874175087     1.007825032230
         H            0.042010107403     3.461742913389     0.247424624913     1.007825032230

  Running in c1 symmetry.

  Rotational constants: A =      0.04764  B =      0.01492  C =      0.01326 [cm^-1]
  Rotational constants: A =   1428.32644  B =    447.33160  C =    397.64965 [MHz]
  Nuclear repulsion =  661.230045312006609

  Charge       = 0
  Multiplicity = 1
  Electrons    = 90
  Nalpha       = 45
  Nbeta        = 45

  ==> Algorithm <==

  SCF Algorithm Type is PK.
  DIIS enabled.
  MOM disabled.
  Fractional occupation disabled.
  Guess Type is SAD.
  Energy threshold   = 1.00e-06
  Density threshold  = 1.00e-10
  Integral threshold = 0.00e+00

  ==> Primary Basis <==

  Basis Set: CC-PVDZ
    Blend: CC-PVDZ
    Number of shells: 117
    Number of basis function: 243
    Number of Cartesian functions: 255
    Spherical Harmonics?: true
    Max angular momentum: 2

  ==> Pre-Iterations <==

   -------------------------------------------------------
    Irrep   Nso     Nmo     Nalpha   Nbeta   Ndocc  Nsocc
   -------------------------------------------------------
     A        243     243       0       0       0       0
   -------------------------------------------------------
    Total     243     243      45      45      45       0
   -------------------------------------------------------

  ==> Integral Setup <==

  Using integral reordering PK algorithm.
  Sizing the integral batches needed.
  Building batch lookup table.
   Calculation information:
      Number of atoms:                  27
      Number of AO shells:             117
      Number of primitives:            339
      Number of atomic orbitals:       255
      Number of basis functions:       243

      Integral cutoff                 1.00e-12
      Number of threads:                 1

	Batch   1 pq = [       0,    9405] index = [             0,44231715] size =     44231715
	Batch   2 pq = [    9405,   13301] index = [      44231715,88464951] size =     44233236
	Batch   3 pq = [   13301,   16290] index = [      88464951,132690195] size =     44225244
	Batch   4 pq = [   16290,   18810] index = [     132690195,176917455] size =     44227260
	Batch   5 pq = [   18810,   21030] index = [     176917455,221140965] size =     44223510
	Batch   6 pq = [   21030,   23037] index = [     221140965,265363203] size =     44222238
	Batch   7 pq = [   23037,   24883] index = [     265363203,309594286] size =     44231083
	Batch   8 pq = [   24883,   26601] index = [     309594286,353819901] size =     44225615
	Batch   9 pq = [   26601,   28214] index = [     353819901,398029005] size =     44209104
	Batch  10 pq = [   28214,   29646] index = [     398029005,439457481] size =     41428476
  Task number: 40
  Buffer size: 11059200
  Buffer per thread: 2
  We computed 23819539 shell quartets total.
  Whereas there are 23829156 unique shell quartets.

  ==> DiskJK: Disk-Based J/K Matrices <==

    J tasked:                  Yes
    K tasked:                  Yes
    wK tasked:                  No
    Memory [MiB]:              375
    Schwarz Cutoff:          1E-12

    OpenMP threads:              1

  Minimum eigenvalue in the overlap matrix is 3.2668399350E-04.
  Using Symmetric Orthogonalization.

  SCF Guess: Superposition of Atomic Densities via on-the-fly atomic UHF.

  ==> Iterations <==

                        Total Energy        Delta E     RMS |[F,P]|

   @RHF iter SAD:  -515.31292829304698   -5.15313e+02   0.00000e+00
   @RHF iter   1:  -516.46453434475677   -1.15161e+00   2.99832e-03 DIIS
   @RHF iter   2:  -516.71626911474027   -2.51735e-01   1.62569e-03 DIIS
   @RHF iter   3:  -516.77872238060809   -6.24533e-02   3.84437e-04 DIIS
   @RHF iter   4:  -516.78376961691981   -5.04724e-03   1.50171e-04 DIIS
   @RHF iter   5:  -516.78456215726271   -7.92540e-04   2.22119e-05 DIIS
   @RHF iter   6:  -516.78459952414823   -3.73669e-05   1.01266e-05 DIIS
   @RHF iter   7:  -516.78460579160446   -6.26746e-06   3.88989e-06 DIIS
   @RHF iter   8:  -516.78460712957803   -1.33797e-06   1.54226e-06 DIIS
   @RHF iter   9:  -516.78460732757037   -1.97992e-07   5.69079e-07 DIIS
   @RHF iter  10:  -516.78460734822818   -2.06578e-08   1.94407e-07 DIIS
   @RHF iter  11:  -516.78460735099031   -2.76214e-09   6.12829e-08 DIIS
   @RHF iter  12:  -516.78460735126214   -2.71825e-10   2.10154e-08 DIIS
   @RHF iter  13:  -516.78460735130614   -4.39968e-11   8.30196e-09 DIIS
   @RHF iter  14:  -516.78460735131080   -4.66116e-12   3.69646e-09 DIIS
   @RHF iter  15:  -516.78460735131614   -5.34328e-12   1.76616e-09 DIIS
   @RHF iter  16:  -516.78460735131443    1.70530e-12   6.31099e-10 DIIS
   @RHF iter  17:  -516.78460735132330   -8.86757e-12   2.18717e-10 DIIS
   @RHF iter  18:  -516.78460735131625    7.04858e-12   8.12474e-11 DIIS
  Energy and wave function converged.

  ==> Post-Iterations <==

    Orbital Energies [Eh]
    ---------------------

    Doubly Occupied:

       1A    -20.508264     2A    -15.596590     3A    -11.356630
       4A    -11.243372     5A    -11.240434     6A    -11.238641
       7A    -11.235113     8A    -11.233324     9A    -11.232233
      10A    -11.231155    11A    -11.229591    12A    -11.227563
      13A     -1.362973    14A     -1.214458    15A     -1.147906
      16A     -1.064214    17A     -1.006688    18A     -0.997800
      19A     -0.981366    20A     -0.862933    21A     -0.822317
      22A     -0.801748    23A     -0.785319    24A     -0.725002
      25A     -0.688511    26A     -0.656465    27A     -0.643404
      28A     -0.636651    29A     -0.610465    30A     -0.593260
      31A     -0.584350    32A     -0.575056    33A     -0.568857
      34A     -0.555829    35A     -0.543488    36A     -0.520524
      37A     -0.517576    38A     -0.500545    39A     -0.479122
      40A     -0.476337    41A     -0.469067    42A     -0.414136
      43A     -0.405535    44A     -0.328665    45A     -0.320116

    Virtual:

      46A      0.133313    47A      0.137428    48A      0.155250
      49A      0.186881    50A      0.191770    51A      0.200923
      52A      0.209932    53A      0.216085    54A      0.231956
      55A      0.248468    56A      0.249805    57A      0.257223
      58A      0.260388    59A      0.271230    60A      0.292621
      61A      0.298464    62A      0.313123    63A      0.334526
      64A      0.340921    65A      0.380166    66A      0.384432
      67A      0.417053    68A      0.450065    69A      0.459667
      70A      0.466779    71A      0.491018    72A      0.494388
      73A      0.564860    74A      0.575865    75A      0.586844
      76A      0.601857    77A      0.614842    78A      0.637616
      79A      0.674747    80A      0.677867    81A      0.683702
      82A      0.694462    83A      0.704218    84A      0.712547
      85A      0.719605    86A      0.734097    87A      0.740232
      88A      0.742984    89A      0.746496    90A      0.748186
      91A      0.760117    92A      0.775829    93A      0.799284
      94A      0.819487    95A      0.827391    96A      0.847377
      97A      0.854020    98A      0.864930    99A      0.872780
     100A      0.874818   101A      0.884507   102A      0.893249
     103A      0.895142   104A      0.901105   105A      0.908216
     106A      0.912807   107A      0.930906   108A      0.936399
     109A      0.939247   110A      0.958644   111A      0.968222
     112A      0.978050   113A      0.990795   114A      1.011712
     115A      1.018982   116A      1.043646   117A      1.050669
     118A      1.077031   119A      1.108859   120A      1.112637
     121A      1.126602   122A      1.143085   123A      1.150762
     124A      1.161970   125A      1.181853   126A      1.214851
     127A      1.236351   128A      1.245180   129A      1.247929
     130A      1.282486   131A      1.288707   132A      1.297447
     133A      1.298544   134A      1.315851   135A      1.343662
     136A      1.347208   137A      1.388268   138A      1.399898
     139A      1.410272   140A      1.425320   141A      1.448958
     142A      1.462353   143A      1.471975   144A      1.506496
     145A      1.539890   146A      1.546589   147A      1.616124
     148A      1.622817   149A      1.637168   150A      1.673492
     151A      1.677337   152A      1.685453   153A      1.722534
     154A      1.737975   155A      1.741957   156A      1.763612
     157A      1.765378   158A      1.805498   159A      1.818789
     160A      1.838068   161A      1.855433   162A      1.859639
     163A      1.871111   164A      1.875744   165A      1.882085
     166A      1.893367   167A      1.901076   168A      1.909437
     169A      1.918981   170A      1.928992   171A      1.936366
     172A      1.939534   173A      1.948821   174A      1.958357
     175A      1.972952   176A      1.976938   177A      1.986755
     178A      1.997024   179A      2.006572   180A      2.036173
     181A      2.038649   182A      2.053238   183A      2.062262
     184A      2.064927   185A      2.076146   186A      2.084082
     187A      2.110951   188A      2.137438   189A      2.153259
     190A      2.156658   191A      2.162139   192A      2.168527
     193A      2.198084   194A      2.232187   195A      2.242275
     196A      2.252710   197A      2.271391   198A      2.301086
     199A      2.316304   200A      2.320371   201A      2.338328
     202A      2.387925   203A      2.407231   204A      2.423747
     205A      2.436615   206A      2.462355   207A      2.480171
     208A      2.485318   209A      2.520481   210A      2.530575
     211A      2.557432   212A      2.568246   213A      2.595445
     214A      2.640100   215A      2.660946   216A      2.738050
     217A      2.745649   218A      2.758803   219A      2.768999
     220A      2.774761   221A      2.778509   222A      2.796169
     223A      2.827952   224A      2.837017   225A      2.856102
     226A      2.878168   227A      2.922854   228A      2.969445
     229A      2.975640   230A      3.005552   231A      3.019785
     232A      3.080958   233A      3.085158   234A      3.120726
     235A      3.184214   236A      3.193753   237A      3.233974
     238A      3.290544   239A      3.477540   240A      3.500207
     241A      3.839519   242A      3.882391   243A      3.939707

    Final Occupation by Irrep:
              A
    DOCC [    45 ]

  @RHF Final Energy:  -516.78460735131625

   => Energetics <=

    Nuclear Repulsion Energy =            661.2300453120066095
    One-Electron Energy =               -2013.1621168631766068
    Two-Electron Energy =                 835.1474641998536299
    Total Energy =                       -516.7846073513162537

Computation Completed

Properties will be evaluated at   0.000000,   0.000000,   0.000000 [a0]

Properties computed using the SCF density matrix

  Nuclear Dipole Moment: [e a0]
     X:    -3.3584      Y:     2.8494      Z:    -5.4242

  Electronic Dipole Moment: [e a0]
     X:     2.2311      Y:    -2.1437      Z:     4.5144

  Dipole Moment: [e a0]
     X:    -1.1274      Y:     0.7056      Z:    -0.9098     Total:     1.6114

  Dipole Moment: [D]
     X:    -2.8655      Y:     1.7935      Z:    -2.3125     Total:     4.0958

*** tstop() called on ds3 at Tue Apr 28 09:49:51 2020
Module time:
	user time   =     181.42 seconds =       3.02 minutes
	system time =      71.01 seconds =       1.18 minutes
	total time  =        317 seconds =       5.28 minutes
Total time:
	user time   =     181.42 seconds =       3.02 minutes
	system time =      71.01 seconds =       1.18 minutes
	total time  =        317 seconds =       5.28 minutes
                                     G D M A

                                 by Anthony Stone

                           version 2.2.06, 22 June 2011

               Distributed Multipoles from Gaussian wavefunctions

Starting at 9:49:51 on 28 Apr 2020

Using SCF density matrix from file ./SSI/SSI-055PHE-141GLN-2-dimer.test.25367.fchk

                         Distributed Multipole Analysis

Standard DMA

Positions and radii in angstrom
Multipole moments in atomic units, ea_0^k for rank k

C          x = -0.747260  y =  0.171963  z = -1.239874 angstrom
           Maximum rank =  0   Radius =  0.650 angstrom
                   Q00  =  -0.042055

C          x = -0.304260  y = -0.534037  z = -2.519874 angstrom
           Maximum rank =  0   Radius =  0.650 angstrom
                   Q00  =  -0.222848

C          x = -0.990260  y = -0.791037  z = -0.101874 angstrom
           Maximum rank =  0   Radius =  0.650 angstrom
                   Q00  =  -0.115415

C          x =  0.091740  y = -1.326037  z =  0.626126 angstrom
           Maximum rank =  0   Radius =  0.650 angstrom
                   Q00  =  -0.096851

C          x = -2.289260  y = -1.203037  z =  0.208126 angstrom
           Maximum rank =  0   Radius =  0.650 angstrom
                   Q00  =  -0.070806

C          x = -0.147260  y = -2.264037  z =  1.630126 angstrom
           Maximum rank =  0   Radius =  0.650 angstrom
                   Q00  =   0.030704

C          x = -2.532260  y = -2.147037  z =  1.230126 angstrom
           Maximum rank =  0   Radius =  0.650 angstrom
                   Q00  =  -0.074412

C          x = -1.445260  y = -2.683037  z =  1.935126 angstrom
           Maximum rank =  0   Radius =  0.650 angstrom
                   Q00  =  -0.099320

H          x =  0.025740  y =  0.852963  z = -0.938874 angstrom
           Maximum rank =  0   Radius =  0.325 angstrom
                   Q00  =   0.040431

H          x = -1.654260  y =  0.748963  z = -1.426874 angstrom
           Maximum rank =  0   Radius =  0.325 angstrom
                   Q00  =   0.059799

H          x =  0.682740  y = -0.972037  z = -2.356874 angstrom
           Maximum rank =  0   Radius =  0.325 angstrom
                   Q00  =   0.086660

H          x =  1.105740  y = -1.024037  z =  0.403126 angstrom
           Maximum rank =  0   Radius =  0.325 angstrom
                   Q00  =   0.067482

H          x = -3.127260  y = -0.812037  z = -0.352874 angstrom
           Maximum rank =  0   Radius =  0.325 angstrom
                   Q00  =   0.054739

H          x =  0.686740  y = -2.676037  z =  2.184126 angstrom
           Maximum rank =  0   Radius =  0.325 angstrom
                   Q00  =   0.067751

H          x = -3.541260  y = -2.468037  z =  1.451126 angstrom
           Maximum rank =  0   Radius =  0.325 angstrom
                   Q00  =   0.068583

H          x = -1.626260  y = -3.427037  z =  2.690126 angstrom
           Maximum rank =  0   Radius =  0.325 angstrom
                   Q00  =   0.063611

H          x = -0.258250  y =  0.173473  z = -3.360892 angstrom
           Maximum rank =  0   Radius =  0.325 angstrom
                   Q00  =   0.073705

H          x = -1.012350  y = -1.353177  z = -2.713842 angstrom
           Maximum rank =  0   Radius =  0.325 angstrom
                   Q00  =   0.088114

C          x =  0.855740  y =  2.861963  z =  0.681126 angstrom
           Maximum rank =  0   Radius =  0.650 angstrom
                   Q00  =  -0.262935

C          x =  1.918740  y =  2.365963  z = -0.294874 angstrom
           Maximum rank =  0   Radius =  0.650 angstrom
                   Q00  =   0.792294

O          x =  2.875740  y =  1.715963  z =  0.158126 angstrom
           Maximum rank =  0   Radius =  0.650 angstrom
                   Q00  =  -0.788693

N          x =  1.763740  y =  2.575963  z = -1.609874 angstrom
           Maximum rank =  0   Radius =  0.650 angstrom
                   Q00  =  -0.515301

H          x =  1.349740  y =  3.448963  z =  1.452126 angstrom
           Maximum rank =  0   Radius =  0.325 angstrom
                   Q00  =   0.138161

H          x =  0.424740  y =  1.980963  z =  1.159126 angstrom
           Maximum rank =  0   Radius =  0.325 angstrom
                   Q00  =   0.141355

H          x =  2.343740  y =  2.026963  z = -2.247874 angstrom
           Maximum rank =  0   Radius =  0.325 angstrom
                   Q00  =   0.224333

H          x =  0.966740  y =  3.076963  z = -1.980874 angstrom
           Maximum rank =  0   Radius =  0.325 angstrom
                   Q00  =   0.211508

H          x =  0.042010  y =  3.461743  z =  0.247425 angstrom
           Maximum rank =  0   Radius =  0.325 angstrom
                   Q00  =   0.079407

Total multipoles referred to origin at
           x =   0.000000,  y =    0.000000,  z =    0.000000 angstrom
                   Q00  =  -0.000000

Finished at 9:49:51 on 28 Apr 2020

  DMA results are available in the Python driver through the
	  variable('DMA DISTRIBUTED MULTIPOLES')
  and
	  variable('DMA TOTAL MULTIPOLES')
  commands.

    Psi4 stopped on: Tuesday, 28 April 2020 09:49AM
    Psi4 wall time for execution: 0:05:17.52

*** Psi4 exiting successfully. Buy a developer a beer!
