                               Psi4 1.3.2 release

  ==> Input File <==

--------------------------------------------------------------------------
import numpy as np
set {scf_type pk
basis cc-pvdz
d_convergence 10
gdma_switch   0
gdma_limit    0
gdma_origin   [ 0.0,  0.0,  0.0 ]
}
molecule test {
    units Angstrom
    0 1
    --
    0 1
    C                1.193876967430159    -2.013215107428640    -1.798653306894320
    C                1.042876967430159    -3.425215107428641    -1.264653306894320
    H                1.270876967430159    -2.008215107428641    -2.884653306894319
    H                0.310876967430159    -1.433215107428640    -1.527653306894320
    H                2.074876967430159    -1.537215107428640    -1.365653306894320
    H                0.180876967430159    -3.879215107428641    -1.745653306894320
    H                1.925616967430159    -4.047437107428641    -1.473496306894320
    H                0.839606967430159    -3.414441107428641    -0.183651306894320
    C               -3.197123032569841     0.834784892571360    -0.093653306894320
    C                0.572876967430159     1.250784892571360    -0.527653306894320
    C               -0.799123032569841     1.277784892571359    -0.777653306894320
    C                1.042876967430159     0.727784892571359     0.666346693105680
    C               -1.706123032569841     0.785784892571359     0.160346693105680
    C                0.134876967430159     0.237784892571359     1.611346693105680
    C               -1.229123032569841     0.273784892571359     1.360346693105680
    O                2.364876967430159     0.650784892571360     0.982346693105680
    H                1.266876967430159     1.623784892571359    -1.263653306894320
    H               -1.160123032569841     1.670784892571360    -1.719653306894320
    H                2.930876967430159     1.134784892571359     0.363346693105680
    H                0.517876967430159    -0.182215107428641     2.526346693105680
    H               -3.726123032569840     0.313784892571359     0.704346693105680
    H               -3.386123032569840     0.292784892571359    -1.019653306894320
    H               -1.918123032569841    -0.119215107428641     2.097346693105680
    H               -3.605203032569840     1.851394892571359    -0.193518306894320

}
e, wfn = energy('scf', return_wfn=True)
gdma(wfn)
dmavals = variable('DMA DISTRIBUTED MULTIPOLES')
charges = np.array(dmavals)
print(charges)
np.save('SSI-134LEU-205TYR-1-dimer.npy', np.array(charges))--------------------------------------------------------------------------

*** tstart() called on ds3
*** at Sun Apr 26 16:58:34 2020

   => Loading Basis Set <=

    Name: CC-PVDZ
    Role: ORBITAL
    Keyword: BASIS
    atoms 1-2, 9-15  entry C          line   138 file /theoryfs2/ds/metcalf/miniconda2/envs/tf2gpu/share/psi4/basis/cc-pvdz.gbs
    atoms 3-8, 17-24 entry H          line    22 file /theoryfs2/ds/metcalf/miniconda2/envs/tf2gpu/share/psi4/basis/cc-pvdz.gbs
    atoms 16         entry O          line   198 file /theoryfs2/ds/metcalf/miniconda2/envs/tf2gpu/share/psi4/basis/cc-pvdz.gbs

         ---------------------------------------------------------
                                   SCF
               by Justin Turney, Rob Parrish, Andy Simmonett
                          and Daniel G. A. Smith
                              RHF Reference
                        1 Threads,    500 MiB Core
         ---------------------------------------------------------

  ==> Geometry <==

    Molecular point group: c1
    Full point group: C1

    Geometry (in Angstrom), charge = 0, multiplicity = 1:

       Center              X                  Y                   Z               Mass
    ------------   -----------------  -----------------  -----------------  -----------------
         C            1.193876967430    -2.013215107429    -1.798653306894    12.000000000000
         C            1.042876967430    -3.425215107429    -1.264653306894    12.000000000000
         H            1.270876967430    -2.008215107429    -2.884653306894     1.007825032230
         H            0.310876967430    -1.433215107429    -1.527653306894     1.007825032230
         H            2.074876967430    -1.537215107429    -1.365653306894     1.007825032230
         H            0.180876967430    -3.879215107429    -1.745653306894     1.007825032230
         H            1.925616967430    -4.047437107429    -1.473496306894     1.007825032230
         H            0.839606967430    -3.414441107429    -0.183651306894     1.007825032230
         C           -3.197123032570     0.834784892571    -0.093653306894    12.000000000000
         C            0.572876967430     1.250784892571    -0.527653306894    12.000000000000
         C           -0.799123032570     1.277784892571    -0.777653306894    12.000000000000
         C            1.042876967430     0.727784892571     0.666346693106    12.000000000000
         C           -1.706123032570     0.785784892571     0.160346693106    12.000000000000
         C            0.134876967430     0.237784892571     1.611346693106    12.000000000000
         C           -1.229123032570     0.273784892571     1.360346693106    12.000000000000
         O            2.364876967430     0.650784892571     0.982346693106    15.994914619570
         H            1.266876967430     1.623784892571    -1.263653306894     1.007825032230
         H           -1.160123032570     1.670784892571    -1.719653306894     1.007825032230
         H            2.930876967430     1.134784892571     0.363346693106     1.007825032230
         H            0.517876967430    -0.182215107429     2.526346693106     1.007825032230
         H           -3.726123032570     0.313784892571     0.704346693106     1.007825032230
         H           -3.386123032570     0.292784892571    -1.019653306894     1.007825032230
         H           -1.918123032570    -0.119215107429     2.097346693106     1.007825032230
         H           -3.605203032570     1.851394892571    -0.193518306894     1.007825032230

  Running in c1 symmetry.

  Rotational constants: A =      0.04387  B =      0.02794  C =      0.02161 [cm^-1]
  Rotational constants: A =   1315.09447  B =    837.64819  C =    647.76740 [MHz]
  Nuclear repulsion =  504.743241003716150

  Charge       = 0
  Multiplicity = 1
  Electrons    = 76
  Nalpha       = 38
  Nbeta        = 38

  ==> Algorithm <==

  SCF Algorithm Type is PK.
  DIIS enabled.
  MOM disabled.
  Fractional occupation disabled.
  Guess Type is SAD.
  Energy threshold   = 1.00e-06
  Density threshold  = 1.00e-10
  Integral threshold = 0.00e+00

  ==> Primary Basis <==

  Basis Set: CC-PVDZ
    Blend: CC-PVDZ
    Number of shells: 102
    Number of basis function: 210
    Number of Cartesian functions: 220
    Spherical Harmonics?: true
    Max angular momentum: 2

  ==> Pre-Iterations <==

   -------------------------------------------------------
    Irrep   Nso     Nmo     Nalpha   Nbeta   Ndocc  Nsocc
   -------------------------------------------------------
     A        210     210       0       0       0       0
   -------------------------------------------------------
    Total     210     210      38      38      38       0
   -------------------------------------------------------

  ==> Integral Setup <==

  Using integral reordering PK algorithm.
  Sizing the integral batches needed.
  Building batch lookup table.
   Calculation information:
      Number of atoms:                  24
      Number of AO shells:             102
      Number of primitives:            290
      Number of atomic orbitals:       220
      Number of basis functions:       210

      Integral cutoff                 1.00e-12
      Number of threads:                 1

	Batch   1 pq = [       0,    9405] index = [             0,44231715] size =     44231715
	Batch   2 pq = [    9405,   13301] index = [      44231715,88464951] size =     44233236
	Batch   3 pq = [   13301,   16290] index = [      88464951,132690195] size =     44225244
	Batch   4 pq = [   16290,   18810] index = [     132690195,176917455] size =     44227260
	Batch   5 pq = [   18810,   21030] index = [     176917455,221140965] size =     44223510
	Batch   6 pq = [   21030,   22155] index = [     221140965,245433090] size =     24292125
  Task number: 23
  Buffer size: 11059200
  Buffer per thread: 2
  We computed 12609675 shell quartets total.
  Whereas there are 13799631 unique shell quartets.

  ==> DiskJK: Disk-Based J/K Matrices <==

    J tasked:                  Yes
    K tasked:                  Yes
    wK tasked:                  No
    Memory [MiB]:              375
    Schwarz Cutoff:          1E-12

    OpenMP threads:              1

  Minimum eigenvalue in the overlap matrix is 3.1982266171E-04.
  Using Symmetric Orthogonalization.

  SCF Guess: Superposition of Atomic Densities via on-the-fly atomic UHF.

  ==> Iterations <==

                        Total Energy        Delta E     RMS |[F,P]|

   @RHF iter SAD:  -422.69974453199006   -4.22700e+02   0.00000e+00
   @RHF iter   1:  -423.59951614233739   -8.99772e-01   2.99545e-03 DIIS
   @RHF iter   2:  -423.81724858981636   -2.17732e-01   1.27439e-03 DIIS
   @RHF iter   3:  -423.85304692238435   -3.57983e-02   2.83974e-04 DIIS
   @RHF iter   4:  -423.85591893563225   -2.87201e-03   1.17198e-04 DIIS
   @RHF iter   5:  -423.85627174534795   -3.52810e-04   2.08272e-05 DIIS
   @RHF iter   6:  -423.85628914038438   -1.73950e-05   6.38385e-06 DIIS
   @RHF iter   7:  -423.85629071466178   -1.57428e-06   2.00048e-06 DIIS
   @RHF iter   8:  -423.85629091002284   -1.95361e-07   7.40459e-07 DIIS
   @RHF iter   9:  -423.85629093598004   -2.59572e-08   2.49353e-07 DIIS
   @RHF iter  10:  -423.85629093937388   -3.39384e-09   7.90553e-08 DIIS
   @RHF iter  11:  -423.85629093997841   -6.04530e-10   3.68050e-08 DIIS
   @RHF iter  12:  -423.85629094012194   -1.43530e-10   1.94549e-08 DIIS
   @RHF iter  13:  -423.85629094017600   -5.40581e-11   7.51170e-09 DIIS
   @RHF iter  14:  -423.85629094018032   -4.32010e-12   2.05120e-09 DIIS
   @RHF iter  15:  -423.85629094018356   -3.24007e-12   7.00520e-10 DIIS
   @RHF iter  16:  -423.85629094018174    1.81899e-12   2.35460e-10 DIIS
   @RHF iter  17:  -423.85629094018395   -2.21689e-12   1.02427e-10 DIIS
   @RHF iter  18:  -423.85629094018356    3.97904e-13   5.38298e-11 DIIS
  Energy and wave function converged.

  ==> Post-Iterations <==

    Orbital Energies [Eh]
    ---------------------

    Doubly Occupied:

       1A    -20.585050     2A    -11.298052     3A    -11.238955
       4A    -11.236228     5A    -11.233471     6A    -11.233340
       7A    -11.228177     8A    -11.228044     9A    -11.210002
      10A    -11.206000    11A     -1.399307    12A     -1.151311
      13A     -1.036839    14A     -1.017899    15A     -1.011675
      16A     -0.926320    17A     -0.844924    18A     -0.828279
      19A     -0.802173    20A     -0.732417    21A     -0.666424
      22A     -0.640425    23A     -0.608058    24A     -0.593461
      25A     -0.590375    26A     -0.586420    27A     -0.582797
      28A     -0.568997    29A     -0.566444    30A     -0.526643
      31A     -0.498522    32A     -0.496285    33A     -0.484531
      34A     -0.479480    35A     -0.475041    36A     -0.462282
      37A     -0.338545    38A     -0.301387

    Virtual:

      39A      0.129627    40A      0.157289    41A      0.171576
      42A      0.183823    43A      0.200742    44A      0.214274
      45A      0.219477    46A      0.249114    47A      0.255733
      48A      0.263383    49A      0.269925    50A      0.274145
      51A      0.276847    52A      0.292776    53A      0.298313
      54A      0.312863    55A      0.369012    56A      0.372380
      57A      0.408736    58A      0.426443    59A      0.453713
      60A      0.487021    61A      0.495315    62A      0.511970
      63A      0.584980    64A      0.594792    65A      0.606067
      66A      0.615026    67A      0.627082    68A      0.641983
      69A      0.658386    70A      0.672014    71A      0.684825
      72A      0.694169    73A      0.711525    74A      0.728726
      75A      0.738894    76A      0.743351    77A      0.769508
      78A      0.775021    79A      0.789593    80A      0.799922
      81A      0.822785    82A      0.829060    83A      0.841149
      84A      0.867325    85A      0.877970    86A      0.885749
      87A      0.892518    88A      0.897109    89A      0.903379
      90A      0.905332    91A      0.914581    92A      0.919753
      93A      0.919918    94A      0.935036    95A      0.938186
      96A      0.944049    97A      0.948392    98A      0.970727
      99A      1.007130   100A      1.018642   101A      1.040563
     102A      1.085992   103A      1.127443   104A      1.132182
     105A      1.138582   106A      1.146319   107A      1.159827
     108A      1.180718   109A      1.211250   110A      1.230028
     111A      1.247643   112A      1.252170   113A      1.264000
     114A      1.298273   115A      1.304389   116A      1.312405
     117A      1.319865   118A      1.357418   119A      1.366731
     120A      1.389431   121A      1.472838   122A      1.486976
     123A      1.493039   124A      1.503314   125A      1.523581
     126A      1.557364   127A      1.590088   128A      1.623695
     129A      1.640032   130A      1.684819   131A      1.686931
     132A      1.693466   133A      1.704213   134A      1.738942
     135A      1.743639   136A      1.783953   137A      1.810772
     138A      1.823291   139A      1.870596   140A      1.870921
     141A      1.879272   142A      1.884721   143A      1.903185
     144A      1.904177   145A      1.913354   146A      1.928904
     147A      1.937278   148A      1.943271   149A      1.955242
     150A      1.957608   151A      1.962357   152A      1.965280
     153A      1.976938   154A      1.985040   155A      1.999118
     156A      2.011841   157A      2.027633   158A      2.052698
     159A      2.062917   160A      2.073675   161A      2.083598
     162A      2.102902   163A      2.125295   164A      2.129749
     165A      2.147176   166A      2.190825   167A      2.197767
     168A      2.215038   169A      2.254386   170A      2.273342
     171A      2.304914   172A      2.321928   173A      2.334197
     174A      2.360856   175A      2.384328   176A      2.399891
     177A      2.443067   178A      2.467611   179A      2.473668
     180A      2.479100   181A      2.512819   182A      2.528100
     183A      2.546917   184A      2.584761   185A      2.585820
     186A      2.611495   187A      2.640147   188A      2.738211
     189A      2.768999   190A      2.771933   191A      2.794116
     192A      2.807298   193A      2.813375   194A      2.848053
     195A      2.873904   196A      2.881960   197A      2.895948
     198A      2.951640   199A      2.977500   200A      2.995448
     201A      3.010540   202A      3.088847   203A      3.127329
     204A      3.246169   205A      3.290303   206A      3.354343
     207A      3.568023   208A      3.680685   209A      3.964141
     210A      4.192245

    Final Occupation by Irrep:
              A
    DOCC [    38 ]

  @RHF Final Energy:  -423.85629094018356

   => Energetics <=

    Nuclear Repulsion Energy =            504.7432410037161503
    One-Electron Energy =               -1575.3699101239772062
    Two-Electron Energy =                 646.7703781800776142
    Total Energy =                       -423.8562909401834986

Computation Completed

Properties will be evaluated at   0.000000,   0.000000,   0.000000 [a0]

Properties computed using the SCF density matrix

  Nuclear Dipole Moment: [e a0]
     X:    -2.3111      Y:    -9.1221      Z:    -7.2005

  Electronic Dipole Moment: [e a0]
     X:     2.2422      Y:     9.4946      Z:     6.7685

  Dipole Moment: [e a0]
     X:    -0.0689      Y:     0.3726      Z:    -0.4320     Total:     0.5746

  Dipole Moment: [D]
     X:    -0.1750      Y:     0.9470      Z:    -1.0981     Total:     1.4606

*** tstop() called on ds3 at Sun Apr 26 17:01:25 2020
Module time:
	user time   =      93.61 seconds =       1.56 minutes
	system time =      39.47 seconds =       0.66 minutes
	total time  =        171 seconds =       2.85 minutes
Total time:
	user time   =      93.61 seconds =       1.56 minutes
	system time =      39.47 seconds =       0.66 minutes
	total time  =        171 seconds =       2.85 minutes
                                     G D M A

                                 by Anthony Stone

                           version 2.2.06, 22 June 2011

               Distributed Multipoles from Gaussian wavefunctions

Starting at 17:1:25 on 26 Apr 2020

Using SCF density matrix from file ./SSI/SSI-134LEU-205TYR-1-dimer.test.17071.fchk

                         Distributed Multipole Analysis

Standard DMA

Positions and radii in angstrom
Multipole moments in atomic units, ea_0^k for rank k

C          x =  1.193877  y = -2.013215  z = -1.798653 angstrom
           Maximum rank =  0   Radius =  0.650 angstrom
                   Q00  =  -0.241351

C          x =  1.042877  y = -3.425215  z = -1.264653 angstrom
           Maximum rank =  0   Radius =  0.650 angstrom
                   Q00  =  -0.222969

H          x =  1.270877  y = -2.008215  z = -2.884653 angstrom
           Maximum rank =  0   Radius =  0.325 angstrom
                   Q00  =   0.070010

H          x =  0.310877  y = -1.433215  z = -1.527653 angstrom
           Maximum rank =  0   Radius =  0.325 angstrom
                   Q00  =   0.089011

H          x =  2.074877  y = -1.537215  z = -1.365653 angstrom
           Maximum rank =  0   Radius =  0.325 angstrom
                   Q00  =   0.068639

H          x =  0.180877  y = -3.879215  z = -1.745653 angstrom
           Maximum rank =  0   Radius =  0.325 angstrom
                   Q00  =   0.072679

H          x =  1.925617  y = -4.047437  z = -1.473496 angstrom
           Maximum rank =  0   Radius =  0.325 angstrom
                   Q00  =   0.074498

H          x =  0.839607  y = -3.414441  z = -0.183651 angstrom
           Maximum rank =  0   Radius =  0.325 angstrom
                   Q00  =   0.080220

C          x = -3.197123  y =  0.834785  z = -0.093653 angstrom
           Maximum rank =  0   Radius =  0.650 angstrom
                   Q00  =  -0.201089

C          x =  0.572877  y =  1.250785  z = -0.527653 angstrom
           Maximum rank =  0   Radius =  0.650 angstrom
                   Q00  =  -0.188133

C          x = -0.799123  y =  1.277785  z = -0.777653 angstrom
           Maximum rank =  0   Radius =  0.650 angstrom
                   Q00  =   0.031803

C          x =  1.042877  y =  0.727785  z =  0.666347 angstrom
           Maximum rank =  0   Radius =  0.650 angstrom
                   Q00  =   0.325030

C          x = -1.706123  y =  0.785785  z =  0.160347 angstrom
           Maximum rank =  0   Radius =  0.650 angstrom
                   Q00  =  -0.128432

C          x =  0.134877  y =  0.237785  z =  1.611347 angstrom
           Maximum rank =  0   Radius =  0.650 angstrom
                   Q00  =  -0.092881

C          x = -1.229123  y =  0.273785  z =  1.360347 angstrom
           Maximum rank =  0   Radius =  0.650 angstrom
                   Q00  =  -0.052085

O          x =  2.364877  y =  0.650785  z =  0.982347 angstrom
           Maximum rank =  0   Radius =  0.650 angstrom
                   Q00  =  -0.669265

H          x =  1.266877  y =  1.623785  z = -1.263653 angstrom
           Maximum rank =  0   Radius =  0.325 angstrom
                   Q00  =   0.074223

H          x = -1.160123  y =  1.670785  z = -1.719653 angstrom
           Maximum rank =  0   Radius =  0.325 angstrom
                   Q00  =   0.066990

H          x =  2.930877  y =  1.134785  z =  0.363347 angstrom
           Maximum rank =  0   Radius =  0.325 angstrom
                   Q00  =   0.407163

H          x =  0.517877  y = -0.182215  z =  2.526347 angstrom
           Maximum rank =  0   Radius =  0.325 angstrom
                   Q00  =   0.079547

H          x = -3.726123  y =  0.313785  z =  0.704347 angstrom
           Maximum rank =  0   Radius =  0.325 angstrom
                   Q00  =   0.096614

H          x = -3.386123  y =  0.292785  z = -1.019653 angstrom
           Maximum rank =  0   Radius =  0.325 angstrom
                   Q00  =   0.095954

H          x = -1.918123  y = -0.119215  z =  2.097347 angstrom
           Maximum rank =  0   Radius =  0.325 angstrom
                   Q00  =   0.064239

H          x = -3.605203  y =  1.851395  z = -0.193518 angstrom
           Maximum rank =  0   Radius =  0.325 angstrom
                   Q00  =   0.099587

Total multipoles referred to origin at
           x =   0.000000,  y =    0.000000,  z =    0.000000 angstrom
                   Q00  =  -0.000000

Finished at 17:1:25 on 26 Apr 2020

  DMA results are available in the Python driver through the
	  variable('DMA DISTRIBUTED MULTIPOLES')
  and
	  variable('DMA TOTAL MULTIPOLES')
  commands.

    Psi4 stopped on: Sunday, 26 April 2020 05:01PM
    Psi4 wall time for execution: 0:02:51.69

*** Psi4 exiting successfully. Buy a developer a beer!
