                               Psi4 1.3.2 release

  ==> Input File <==

--------------------------------------------------------------------------
import numpy as np
set {scf_type pk
basis cc-pvdz
d_convergence 10
gdma_switch   0
gdma_limit    0
gdma_origin   [ 0.0,  0.0,  0.0 ]
}
molecule test {
    units Angstrom
    0 1
    --
    0 1
    C               -0.175242300267745    -1.325984083068090    -0.632220008519178
    C                0.186757699732255    -2.524984083068091     0.215779991480822
    C               -1.548242300267745    -1.521984083068090    -1.277220008519178
    H               -0.249242300267745    -0.480984083068090     0.033779991480822
    H                0.573757699732255    -1.097984083068090    -1.378220008519178
    H                0.125757699732255    -3.420984083068091    -0.402220008519178
    H               -0.565242300267745    -2.619984083068090     1.002779991480822
    H               -1.520242300267745    -2.435984083068090    -1.876220008519178
    H               -2.315242300267744    -1.661984083068090    -0.511220008519178
    H                1.178937699732255    -2.482504083068091     0.688828991480822
    H               -1.795811300267745    -0.679644083068090    -1.939921008519178
    C                0.978757699732255     2.034015916931910     0.409779991480822
    C                0.554757699732255     3.254015916931910     1.238779991480822
    H                0.631757699732255     1.133015916931910     0.897779991480822
    H                0.572757699732255     2.102015916931910    -0.599220008519178
    H                2.066757699732255     1.987015916931910     0.359779991480822
    H               -0.480242300267745     3.501015916931910     0.995779991480822
    H                1.179757699732255     4.097015916931909     0.944779991480822
    H                0.634777699732255     3.071105916931909     2.320510591480821

}
e, wfn = energy('scf', return_wfn=True)
gdma(wfn)
dmavals = variable('DMA DISTRIBUTED MULTIPOLES')
charges = np.array(dmavals)
print(charges)
np.save('SSI-067ARG-077ILE-1-dimer.npy', np.array(charges))--------------------------------------------------------------------------

*** tstart() called on ds3
*** at Tue Apr 28 14:30:35 2020

   => Loading Basis Set <=

    Name: CC-PVDZ
    Role: ORBITAL
    Keyword: BASIS
    atoms 1-3, 12-13  entry C          line   138 file /theoryfs2/ds/metcalf/miniconda2/envs/tf2gpu/share/psi4/basis/cc-pvdz.gbs
    atoms 4-11, 14-19 entry H          line    22 file /theoryfs2/ds/metcalf/miniconda2/envs/tf2gpu/share/psi4/basis/cc-pvdz.gbs

         ---------------------------------------------------------
                                   SCF
               by Justin Turney, Rob Parrish, Andy Simmonett
                          and Daniel G. A. Smith
                              RHF Reference
                        1 Threads,    500 MiB Core
         ---------------------------------------------------------

  ==> Geometry <==

    Molecular point group: c1
    Full point group: C1

    Geometry (in Angstrom), charge = 0, multiplicity = 1:

       Center              X                  Y                   Z               Mass
    ------------   -----------------  -----------------  -----------------  -----------------
         C           -0.175242300268    -1.325984083068    -0.632220008519    12.000000000000
         C            0.186757699732    -2.524984083068     0.215779991481    12.000000000000
         C           -1.548242300268    -1.521984083068    -1.277220008519    12.000000000000
         H           -0.249242300268    -0.480984083068     0.033779991481     1.007825032230
         H            0.573757699732    -1.097984083068    -1.378220008519     1.007825032230
         H            0.125757699732    -3.420984083068    -0.402220008519     1.007825032230
         H           -0.565242300268    -2.619984083068     1.002779991481     1.007825032230
         H           -1.520242300268    -2.435984083068    -1.876220008519     1.007825032230
         H           -2.315242300268    -1.661984083068    -0.511220008519     1.007825032230
         H            1.178937699732    -2.482504083068     0.688828991481     1.007825032230
         H           -1.795811300268    -0.679644083068    -1.939921008519     1.007825032230
         C            0.978757699732     2.034015916932     0.409779991481    12.000000000000
         C            0.554757699732     3.254015916932     1.238779991481    12.000000000000
         H            0.631757699732     1.133015916932     0.897779991481     1.007825032230
         H            0.572757699732     2.102015916932    -0.599220008519     1.007825032230
         H            2.066757699732     1.987015916932     0.359779991481     1.007825032230
         H           -0.480242300268     3.501015916932     0.995779991481     1.007825032230
         H            1.179757699732     4.097015916932     0.944779991481     1.007825032230
         H            0.634777699732     3.071105916932     2.320510591481     1.007825032230

  Running in c1 symmetry.

  Rotational constants: A =      0.23219  B =      0.03670  C =      0.03367 [cm^-1]
  Rotational constants: A =   6960.87656  B =   1100.32180  C =   1009.29203 [MHz]
  Nuclear repulsion =  176.501307172666230

  Charge       = 0
  Multiplicity = 1
  Electrons    = 44
  Nalpha       = 22
  Nbeta        = 22

  ==> Algorithm <==

  SCF Algorithm Type is PK.
  DIIS enabled.
  MOM disabled.
  Fractional occupation disabled.
  Guess Type is SAD.
  Energy threshold   = 1.00e-06
  Density threshold  = 1.00e-10
  Integral threshold = 0.00e+00

  ==> Primary Basis <==

  Basis Set: CC-PVDZ
    Blend: CC-PVDZ
    Number of shells: 72
    Number of basis function: 140
    Number of Cartesian functions: 145
    Spherical Harmonics?: true
    Max angular momentum: 2

  ==> Pre-Iterations <==

   -------------------------------------------------------
    Irrep   Nso     Nmo     Nalpha   Nbeta   Ndocc  Nsocc
   -------------------------------------------------------
     A        140     140       0       0       0       0
   -------------------------------------------------------
    Total     140     140      22      22      22       0
   -------------------------------------------------------

  ==> Integral Setup <==

  Using integral reordering PK algorithm.
  Sizing the integral batches needed.
  Building batch lookup table.
   Calculation information:
      Number of atoms:                  19
      Number of AO shells:              72
      Number of primitives:            180
      Number of atomic orbitals:       145
      Number of basis functions:       140

      Integral cutoff                 1.00e-12
      Number of threads:                 1

	Batch   1 pq = [       0,    9405] index = [             0,44231715] size =     44231715
	Batch   2 pq = [    9405,    9870] index = [      44231715,48713385] size =      4481670
  Task number: 5
  Buffer size: 11059200
  Buffer per thread: 2
  We computed 2727032 shell quartets total.
  Whereas there are 3454506 unique shell quartets.

  ==> DiskJK: Disk-Based J/K Matrices <==

    J tasked:                  Yes
    K tasked:                  Yes
    wK tasked:                  No
    Memory [MiB]:              375
    Schwarz Cutoff:          1E-12

    OpenMP threads:              1

  Minimum eigenvalue in the overlap matrix is 5.2390144629E-03.
  Using Symmetric Orthogonalization.

  SCF Guess: Superposition of Atomic Densities via on-the-fly atomic UHF.

  ==> Iterations <==

                        Total Energy        Delta E     RMS |[F,P]|

   @RHF iter SAD:  -196.41900102717133   -1.96419e+02   0.00000e+00
   @RHF iter   1:  -197.30722093766789   -8.88220e-01   3.81800e-03 DIIS
   @RHF iter   2:  -197.46793973098033   -1.60719e-01   1.64493e-03 DIIS
   @RHF iter   3:  -197.49646101074171   -2.85213e-02   3.26963e-04 DIIS
   @RHF iter   4:  -197.49867955951882   -2.21855e-03   4.80122e-05 DIIS
   @RHF iter   5:  -197.49871819504136   -3.86355e-05   1.46844e-05 DIIS
   @RHF iter   6:  -197.49872146936920   -3.27433e-06   2.52294e-06 DIIS
   @RHF iter   7:  -197.49872158099234   -1.11623e-07   4.49975e-07 DIIS
   @RHF iter   8:  -197.49872158523902   -4.24669e-09   1.09760e-07 DIIS
   @RHF iter   9:  -197.49872158547819   -2.39169e-10   3.56133e-08 DIIS
   @RHF iter  10:  -197.49872158550653   -2.83364e-11   8.12888e-09 DIIS
   @RHF iter  11:  -197.49872158550741   -8.81073e-13   1.58356e-09 DIIS
   @RHF iter  12:  -197.49872158550693    4.83169e-13   2.96117e-10 DIIS
   @RHF iter  13:  -197.49872158550824   -1.30740e-12   6.64700e-11 DIIS
  Energy and wave function converged.

  ==> Post-Iterations <==

    Orbital Energies [Eh]
    ---------------------

    Doubly Occupied:

       1A    -11.218075     2A    -11.216322     3A    -11.215461
       4A    -11.214554     5A    -11.213834     6A     -1.057601
       7A     -1.017677     8A     -0.921080     9A     -0.838398
      10A     -0.799241    11A     -0.629489    12A     -0.602333
      13A     -0.599089    14A     -0.595204    15A     -0.544635
      16A     -0.525625    17A     -0.499680    18A     -0.491855
      19A     -0.485063    20A     -0.477088    21A     -0.471701
      22A     -0.457300

    Virtual:

      23A      0.173916    24A      0.195314    25A      0.213886
      26A      0.224192    27A      0.239334    28A      0.247876
      29A      0.258113    30A      0.263613    31A      0.276606
      32A      0.288559    33A      0.293595    34A      0.302261
      35A      0.312270    36A      0.365176    37A      0.369039
      38A      0.400893    39A      0.430964    40A      0.570562
      41A      0.583516    42A      0.593106    43A      0.599954
      44A      0.607658    45A      0.614983    46A      0.622465
      47A      0.664134    48A      0.702825    49A      0.768149
      50A      0.812249    51A      0.822701    52A      0.843703
      53A      0.872946    54A      0.878855    55A      0.888788
      56A      0.891654    57A      0.893339    58A      0.898888
      59A      0.900322    60A      0.905398    61A      0.910309
      62A      0.916633    63A      0.930876    64A      0.944105
      65A      0.948356    66A      0.971803    67A      0.990890
      68A      1.013383    69A      1.115746    70A      1.127294
      71A      1.131090    72A      1.151570    73A      1.217102
      74A      1.260788    75A      1.362768    76A      1.473779
      77A      1.481904    78A      1.493847    79A      1.498269
      80A      1.554956    81A      1.582912    82A      1.609548
      83A      1.683095    84A      1.685436    85A      1.696123
      86A      1.697508    87A      1.707207    88A      1.847428
      89A      1.861558    90A      1.867703    91A      1.876677
      92A      1.892600    93A      1.896233    94A      1.917894
      95A      1.926552    96A      1.932819    97A      1.937907
      98A      1.939881    99A      1.954839   100A      1.962614
     101A      1.973691   102A      1.976195   103A      1.993196
     104A      2.008155   105A      2.023333   106A      2.046056
     107A      2.053372   108A      2.129068   109A      2.134181
     110A      2.158734   111A      2.180790   112A      2.293798
     113A      2.300699   114A      2.304645   115A      2.321991
     116A      2.328819   117A      2.336590   118A      2.438180
     119A      2.450854   120A      2.499305   121A      2.544678
     122A      2.578380   123A      2.588566   124A      2.602243
     125A      2.634674   126A      2.640108   127A      2.755221
     128A      2.770386   129A      2.772386   130A      2.783911
     131A      2.795961   132A      2.821871   133A      2.831497
     134A      2.853918   135A      2.936305   136A      2.943357
     137A      2.962497   138A      2.967697   139A      2.979042
     140A      3.107978

    Final Occupation by Irrep:
              A
    DOCC [    22 ]

  @RHF Final Energy:  -197.49872158550824

   => Energetics <=

    Nuclear Repulsion Energy =            176.5013071726662304
    One-Electron Energy =                -613.8174506390625993
    Two-Electron Energy =                 239.8174218808881619
    Total Energy =                       -197.4987215855082354

Computation Completed

Properties will be evaluated at   0.000000,   0.000000,   0.000000 [a0]

Properties computed using the SCF density matrix

  Nuclear Dipole Moment: [e a0]
     X:     0.0358      Y:     0.9479      Z:     0.5034

  Electronic Dipole Moment: [e a0]
     X:    -0.0151      Y:    -0.9108      Z:    -0.5016

  Dipole Moment: [e a0]
     X:     0.0208      Y:     0.0371      Z:     0.0018     Total:     0.0426

  Dipole Moment: [D]
     X:     0.0528      Y:     0.0943      Z:     0.0046     Total:     0.1082

*** tstop() called on ds3 at Tue Apr 28 14:31:11 2020
Module time:
	user time   =      14.65 seconds =       0.24 minutes
	system time =       6.29 seconds =       0.10 minutes
	total time  =         36 seconds =       0.60 minutes
Total time:
	user time   =      14.65 seconds =       0.24 minutes
	system time =       6.29 seconds =       0.10 minutes
	total time  =         36 seconds =       0.60 minutes
                                     G D M A

                                 by Anthony Stone

                           version 2.2.06, 22 June 2011

               Distributed Multipoles from Gaussian wavefunctions

Starting at 14:31:11 on 28 Apr 2020

Using SCF density matrix from file ./SSI/SSI-067ARG-077ILE-1-dimer.test.26239.fchk

                         Distributed Multipole Analysis

Standard DMA

Positions and radii in angstrom
Multipole moments in atomic units, ea_0^k for rank k

C          x = -0.175242  y = -1.325984  z = -0.632220 angstrom
           Maximum rank =  0   Radius =  0.650 angstrom
                   Q00  =  -0.089656

C          x =  0.186758  y = -2.524984  z =  0.215780 angstrom
           Maximum rank =  0   Radius =  0.650 angstrom
                   Q00  =  -0.228448

C          x = -1.548242  y = -1.521984  z = -1.277220 angstrom
           Maximum rank =  0   Radius =  0.650 angstrom
                   Q00  =  -0.245276

H          x = -0.249242  y = -0.480984  z =  0.033780 angstrom
           Maximum rank =  0   Radius =  0.325 angstrom
                   Q00  =   0.045616

H          x =  0.573758  y = -1.097984  z = -1.378220 angstrom
           Maximum rank =  0   Radius =  0.325 angstrom
                   Q00  =   0.053848

H          x =  0.125758  y = -3.420984  z = -0.402220 angstrom
           Maximum rank =  0   Radius =  0.325 angstrom
                   Q00  =   0.071110

H          x = -0.565242  y = -2.619984  z =  1.002780 angstrom
           Maximum rank =  0   Radius =  0.325 angstrom
                   Q00  =   0.071516

H          x = -1.520242  y = -2.435984  z = -1.876220 angstrom
           Maximum rank =  0   Radius =  0.325 angstrom
                   Q00  =   0.071425

H          x = -2.315242  y = -1.661984  z = -0.511220 angstrom
           Maximum rank =  0   Radius =  0.325 angstrom
                   Q00  =   0.077791

H          x =  1.178938  y = -2.482504  z =  0.688829 angstrom
           Maximum rank =  0   Radius =  0.325 angstrom
                   Q00  =   0.084668

H          x = -1.795811  y = -0.679644  z = -1.939921 angstrom
           Maximum rank =  0   Radius =  0.325 angstrom
                   Q00  =   0.084209

C          x =  0.978758  y =  2.034016  z =  0.409780 angstrom
           Maximum rank =  0   Radius =  0.650 angstrom
                   Q00  =  -0.230201

C          x =  0.554758  y =  3.254016  z =  1.238780 angstrom
           Maximum rank =  0   Radius =  0.650 angstrom
                   Q00  =  -0.238675

H          x =  0.631758  y =  1.133016  z =  0.897780 angstrom
           Maximum rank =  0   Radius =  0.325 angstrom
                   Q00  =   0.079425

H          x =  0.572758  y =  2.102016  z = -0.599220 angstrom
           Maximum rank =  0   Radius =  0.325 angstrom
                   Q00  =   0.080190

H          x =  2.066758  y =  1.987016  z =  0.359780 angstrom
           Maximum rank =  0   Radius =  0.325 angstrom
                   Q00  =   0.077216

H          x = -0.480242  y =  3.501016  z =  0.995780 angstrom
           Maximum rank =  0   Radius =  0.325 angstrom
                   Q00  =   0.076710

H          x =  1.179758  y =  4.097016  z =  0.944780 angstrom
           Maximum rank =  0   Radius =  0.325 angstrom
                   Q00  =   0.077512

H          x =  0.634778  y =  3.071106  z =  2.320511 angstrom
           Maximum rank =  0   Radius =  0.325 angstrom
                   Q00  =   0.081019

Total multipoles referred to origin at
           x =   0.000000,  y =    0.000000,  z =    0.000000 angstrom
                   Q00  =  -0.000000

Finished at 14:31:11 on 28 Apr 2020

  DMA results are available in the Python driver through the
	  variable('DMA DISTRIBUTED MULTIPOLES')
  and
	  variable('DMA TOTAL MULTIPOLES')
  commands.

    Psi4 stopped on: Tuesday, 28 April 2020 02:31PM
    Psi4 wall time for execution: 0:00:36.45

*** Psi4 exiting successfully. Buy a developer a beer!
