                               Psi4 1.3.2 release

  ==> Input File <==

--------------------------------------------------------------------------
import numpy as np
set {scf_type pk
basis cc-pvdz
d_convergence 10
gdma_switch   0
gdma_limit    0
gdma_origin   [ 0.0,  0.0,  0.0 ]
}
molecule test {
    units Angstrom
    0 1
    --
    0 1
    C               -0.190082696224456     1.545756447254766     2.863791910807147
    C                0.534917303775544     2.693756447254766     3.581791910807146
    C               -1.059082696224456     0.682756447254766     3.792791910807146
    H               -0.821082696224456     1.953756447254766     2.073791910807146
    H                0.544917303775544     0.888756447254766     2.399791910807147
    H                1.136917303775544     2.281756447254766     4.394791910807146
    H               -1.945082696224456     1.228756447254766     4.112791910807146
    H               -1.387082696224456    -0.203243552745234     3.247791910807146
    H               -0.480082696224456     0.367756447254766     4.661791910807146
    H                1.199347103775544     3.213286447254766     2.875661910807147
    H               -0.199571296224456     3.389516447254766     4.013591910807146
    C                0.774917303775544    -2.878243552745234    -2.731208089192854
    C               -0.397082696224456     0.804756447254766    -0.820208089192854
    C               -1.124082696224456    -0.365243552745234    -0.602208089192854
    C                0.720917303775544     0.776756447254766    -1.648208089192854
    C               -0.733082696224456    -1.557243552745234    -1.207208089192854
    C                1.097917303775544    -0.420243552745234    -2.270208089192853
    C                0.375917303775544    -1.590243552745234    -2.054208089192854
    H               -0.704082696224456     1.728756447254766    -0.351208089192854
    H               -1.987082696224456    -0.356243552745234     0.046791910807146
    H                1.288917303775544     1.679756447254766    -1.821208089192854
    H               -1.301082696224456    -2.458243552745234    -1.029208089192854
    H                1.955917303775544    -0.430243552745234    -2.929208089192854
    H                0.562917303775544    -3.714243552745234    -2.062208089192854
    H                1.852917303775544    -2.863243552745234    -2.901208089192854
    H                0.269332083775544    -3.046054552745234    -3.693608089192854

}
e, wfn = energy('scf', return_wfn=True)
gdma(wfn)
dmavals = variable('DMA DISTRIBUTED MULTIPOLES')
charges = np.array(dmavals)
print(charges)
np.save('SSI-049ILE-070PHE-1-dimer.npy', np.array(charges))--------------------------------------------------------------------------

*** tstart() called on ds3
*** at Tue Apr 28 10:40:54 2020

   => Loading Basis Set <=

    Name: CC-PVDZ
    Role: ORBITAL
    Keyword: BASIS
    atoms 1-3, 12-18  entry C          line   138 file /theoryfs2/ds/metcalf/miniconda2/envs/tf2gpu/share/psi4/basis/cc-pvdz.gbs
    atoms 4-11, 19-26 entry H          line    22 file /theoryfs2/ds/metcalf/miniconda2/envs/tf2gpu/share/psi4/basis/cc-pvdz.gbs

         ---------------------------------------------------------
                                   SCF
               by Justin Turney, Rob Parrish, Andy Simmonett
                          and Daniel G. A. Smith
                              RHF Reference
                        1 Threads,    500 MiB Core
         ---------------------------------------------------------

  ==> Geometry <==

    Molecular point group: c1
    Full point group: C1

    Geometry (in Angstrom), charge = 0, multiplicity = 1:

       Center              X                  Y                   Z               Mass
    ------------   -----------------  -----------------  -----------------  -----------------
         C           -0.190082696224     1.545756447255     2.863791910807    12.000000000000
         C            0.534917303776     2.693756447255     3.581791910807    12.000000000000
         C           -1.059082696224     0.682756447255     3.792791910807    12.000000000000
         H           -0.821082696224     1.953756447255     2.073791910807     1.007825032230
         H            0.544917303776     0.888756447255     2.399791910807     1.007825032230
         H            1.136917303776     2.281756447255     4.394791910807     1.007825032230
         H           -1.945082696224     1.228756447255     4.112791910807     1.007825032230
         H           -1.387082696224    -0.203243552745     3.247791910807     1.007825032230
         H           -0.480082696224     0.367756447255     4.661791910807     1.007825032230
         H            1.199347103776     3.213286447255     2.875661910807     1.007825032230
         H           -0.199571296224     3.389516447255     4.013591910807     1.007825032230
         C            0.774917303776    -2.878243552745    -2.731208089193    12.000000000000
         C           -0.397082696224     0.804756447255    -0.820208089193    12.000000000000
         C           -1.124082696224    -0.365243552745    -0.602208089193    12.000000000000
         C            0.720917303776     0.776756447255    -1.648208089193    12.000000000000
         C           -0.733082696224    -1.557243552745    -1.207208089193    12.000000000000
         C            1.097917303776    -0.420243552745    -2.270208089193    12.000000000000
         C            0.375917303776    -1.590243552745    -2.054208089193    12.000000000000
         H           -0.704082696224     1.728756447255    -0.351208089193     1.007825032230
         H           -1.987082696224    -0.356243552745     0.046791910807     1.007825032230
         H            1.288917303776     1.679756447255    -1.821208089193     1.007825032230
         H           -1.301082696224    -2.458243552745    -1.029208089193     1.007825032230
         H            1.955917303776    -0.430243552745    -2.929208089193     1.007825032230
         H            0.562917303776    -3.714243552745    -2.062208089193     1.007825032230
         H            1.852917303776    -2.863243552745    -2.901208089193     1.007825032230
         H            0.269332083776    -3.046054552745    -3.693608089193     1.007825032230

  Running in c1 symmetry.

  Rotational constants: A =      0.07953  B =      0.01464  C =      0.01352 [cm^-1]
  Rotational constants: A =   2384.24140  B =    439.01565  C =    405.32072 [MHz]
  Nuclear repulsion =  473.672163567961832

  Charge       = 0
  Multiplicity = 1
  Electrons    = 76
  Nalpha       = 38
  Nbeta        = 38

  ==> Algorithm <==

  SCF Algorithm Type is PK.
  DIIS enabled.
  MOM disabled.
  Fractional occupation disabled.
  Guess Type is SAD.
  Energy threshold   = 1.00e-06
  Density threshold  = 1.00e-10
  Integral threshold = 0.00e+00

  ==> Primary Basis <==

  Basis Set: CC-PVDZ
    Blend: CC-PVDZ
    Number of shells: 108
    Number of basis function: 220
    Number of Cartesian functions: 230
    Spherical Harmonics?: true
    Max angular momentum: 2

  ==> Pre-Iterations <==

   -------------------------------------------------------
    Irrep   Nso     Nmo     Nalpha   Nbeta   Ndocc  Nsocc
   -------------------------------------------------------
     A        220     220       0       0       0       0
   -------------------------------------------------------
    Total     220     220      38      38      38       0
   -------------------------------------------------------

  ==> Integral Setup <==

  Using integral reordering PK algorithm.
  Sizing the integral batches needed.
  Building batch lookup table.
   Calculation information:
      Number of atoms:                  26
      Number of AO shells:             108
      Number of primitives:            300
      Number of atomic orbitals:       230
      Number of basis functions:       220

      Integral cutoff                 1.00e-12
      Number of threads:                 1

	Batch   1 pq = [       0,    9405] index = [             0,44231715] size =     44231715
	Batch   2 pq = [    9405,   13301] index = [      44231715,88464951] size =     44233236
	Batch   3 pq = [   13301,   16290] index = [      88464951,132690195] size =     44225244
	Batch   4 pq = [   16290,   18810] index = [     132690195,176917455] size =     44227260
	Batch   5 pq = [   18810,   21030] index = [     176917455,221140965] size =     44223510
	Batch   6 pq = [   21030,   23037] index = [     221140965,265363203] size =     44222238
	Batch   7 pq = [   23037,   24310] index = [     265363203,295500205] size =     30137002
  Task number: 27
  Buffer size: 11059200
  Buffer per thread: 2
  We computed 13505595 shell quartets total.
  Whereas there are 17325441 unique shell quartets.

  ==> DiskJK: Disk-Based J/K Matrices <==

    J tasked:                  Yes
    K tasked:                  Yes
    wK tasked:                  No
    Memory [MiB]:              375
    Schwarz Cutoff:          1E-12

    OpenMP threads:              1

  Minimum eigenvalue in the overlap matrix is 3.1378919249E-04.
  Using Symmetric Orthogonalization.

  SCF Guess: Superposition of Atomic Densities via on-the-fly atomic UHF.

  ==> Iterations <==

                        Total Energy        Delta E     RMS |[F,P]|

   @RHF iter SAD:  -386.81464746278363   -3.86815e+02   0.00000e+00
   @RHF iter   1:  -387.77524572550664   -9.60598e-01   2.73820e-03 DIIS
   @RHF iter   2:  -387.99298976609828   -2.17744e-01   1.14662e-03 DIIS
   @RHF iter   3:  -388.02764027386962   -3.46505e-02   2.48768e-04 DIIS
   @RHF iter   4:  -388.03049873019836   -2.85846e-03   5.18388e-05 DIIS
   @RHF iter   5:  -388.03058683706047   -8.81069e-05   1.65441e-05 DIIS
   @RHF iter   6:  -388.03059537006277   -8.53300e-06   4.86659e-06 DIIS
   @RHF iter   7:  -388.03059621190079   -8.41838e-07   1.20831e-06 DIIS
   @RHF iter   8:  -388.03059627903707   -6.71363e-08   3.27828e-07 DIIS
   @RHF iter   9:  -388.03059628991093   -1.08739e-08   1.49141e-07 DIIS
   @RHF iter  10:  -388.03059629265584   -2.74491e-09   7.10818e-08 DIIS
   @RHF iter  11:  -388.03059629347189   -8.16044e-10   2.72316e-08 DIIS
   @RHF iter  12:  -388.03059629357273   -1.00840e-10   9.77766e-09 DIIS
   @RHF iter  13:  -388.03059629358222   -9.49285e-12   3.94041e-09 DIIS
   @RHF iter  14:  -388.03059629358404   -1.81899e-12   1.13214e-09 DIIS
   @RHF iter  15:  -388.03059629358029    3.75167e-12   4.84693e-10 DIIS
   @RHF iter  16:  -388.03059629358256   -2.27374e-12   2.18074e-10 DIIS
   @RHF iter  17:  -388.03059629358211    4.54747e-13   8.92801e-11 DIIS
  Energy and wave function converged.

  ==> Post-Iterations <==

    Orbital Energies [Eh]
    ---------------------

    Doubly Occupied:

       1A    -11.240545     2A    -11.236350     3A    -11.235550
       4A    -11.231564     5A    -11.231297     6A    -11.230555
       7A    -11.229763     8A    -11.217376     9A    -11.216538
      10A    -11.213650    11A     -1.151254    12A     -1.048183
      13A     -1.043334    14A     -1.010170    15A     -0.930632
      16A     -0.922621    17A     -0.824755    18A     -0.796096
      19A     -0.792899    20A     -0.690453    21A     -0.630506
      22A     -0.629831    23A     -0.622549    24A     -0.591433
      25A     -0.581744    26A     -0.576307    27A     -0.562319
      28A     -0.547385    29A     -0.534608    30A     -0.531298
      31A     -0.486684    32A     -0.484745    33A     -0.482008
      34A     -0.467949    35A     -0.466567    36A     -0.464616
      37A     -0.331175    38A     -0.321943

    Virtual:

      39A      0.134627    40A      0.140484    41A      0.170311
      42A      0.190822    43A      0.205954    44A      0.207537
      45A      0.226789    46A      0.234106    47A      0.242208
      48A      0.254618    49A      0.258772    50A      0.264525
      51A      0.277925    52A      0.283856    53A      0.288115
      54A      0.306286    55A      0.313301    56A      0.345218
      57A      0.366512    58A      0.368969    59A      0.376819
      60A      0.420806    61A      0.456582    62A      0.463305
      63A      0.479827    64A      0.491090    65A      0.562200
      66A      0.577690    67A      0.591713    68A      0.608284
      69A      0.615345    70A      0.623834    71A      0.627365
      72A      0.638479    73A      0.682363    74A      0.688028
      75A      0.712295    76A      0.722842    77A      0.737846
      78A      0.739894    79A      0.747012    80A      0.749315
      81A      0.759785    82A      0.777004    83A      0.793680
      84A      0.804223    85A      0.808110    86A      0.834349
      87A      0.846477    88A      0.863655    89A      0.868362
      90A      0.876378    91A      0.883248    92A      0.894598
      93A      0.895849    94A      0.899000    95A      0.901466
      96A      0.908963    97A      0.912230    98A      0.914908
      99A      0.920486   100A      0.927937   101A      0.937241
     102A      0.941244   103A      0.950070   104A      0.977062
     105A      0.994691   106A      0.997077   107A      1.013613
     108A      1.050813   109A      1.113436   110A      1.124908
     111A      1.133093   112A      1.146063   113A      1.151663
     114A      1.158467   115A      1.188311   116A      1.210130
     117A      1.242976   118A      1.248242   119A      1.251544
     120A      1.257847   121A      1.296172   122A      1.305910
     123A      1.320854   124A      1.324533   125A      1.383910
     126A      1.412676   127A      1.472241   128A      1.484742
     129A      1.508179   130A      1.515936   131A      1.526665
     132A      1.555661   133A      1.603045   134A      1.636036
     135A      1.673961   136A      1.680985   137A      1.688240
     138A      1.701016   139A      1.704206   140A      1.731553
     141A      1.751519   142A      1.766140   143A      1.790009
     144A      1.807593   145A      1.855403   146A      1.868571
     147A      1.871477   148A      1.884483   149A      1.888688
     150A      1.895040   151A      1.907190   152A      1.911089
     153A      1.914472   154A      1.923345   155A      1.932629
     156A      1.936505   157A      1.942380   158A      1.957151
     159A      1.964199   160A      1.971163   161A      1.979575
     162A      1.981123   163A      1.986822   164A      1.992120
     165A      1.998674   166A      2.013948   167A      2.033952
     168A      2.052447   169A      2.069536   170A      2.070885
     171A      2.106855   172A      2.128941   173A      2.142816
     174A      2.154602   175A      2.156973   176A      2.163810
     177A      2.173982   178A      2.182358   179A      2.256701
     180A      2.276905   181A      2.287472   182A      2.292111
     183A      2.298227   184A      2.305278   185A      2.310226
     186A      2.319022   187A      2.341590   188A      2.347277
     189A      2.466937   190A      2.474348   191A      2.487529
     192A      2.494520   193A      2.535774   194A      2.540104
     195A      2.577092   196A      2.618508   197A      2.619819
     198A      2.624022   199A      2.739826   200A      2.751042
     201A      2.757635   202A      2.765253   203A      2.767178
     204A      2.787611   205A      2.789777   206A      2.807004
     207A      2.823370   208A      2.847356   209A      2.868520
     210A      2.909229   211A      2.959561   212A      2.973661
     213A      2.979642   214A      3.007136   215A      3.019147
     216A      3.065486   217A      3.151685   218A      3.198285
     219A      3.292818   220A      3.960921

    Final Occupation by Irrep:
              A
    DOCC [    38 ]

  @RHF Final Energy:  -388.03059629358211

   => Energetics <=

    Nuclear Repulsion Energy =            473.6721635679618316
    One-Electron Energy =               -1461.7910151297430730
    Two-Electron Energy =                 600.0882552681990774
    Total Energy =                       -388.0305962935821071

Computation Completed

Properties will be evaluated at   0.000000,   0.000000,   0.000000 [a0]

Properties computed using the SCF density matrix

  Nuclear Dipole Moment: [e a0]
     X:    -0.0131      Y:     3.4317      Z:    12.2236

  Electronic Dipole Moment: [e a0]
     X:     0.0604      Y:    -3.5688      Z:   -12.3387

  Dipole Moment: [e a0]
     X:     0.0474      Y:    -0.1372      Z:    -0.1151     Total:     0.1852

  Dipole Moment: [D]
     X:     0.1204      Y:    -0.3486      Z:    -0.2927     Total:     0.4708

*** tstop() called on ds3 at Tue Apr 28 10:43:18 2020
Module time:
	user time   =      96.83 seconds =       1.61 minutes
	system time =      41.85 seconds =       0.70 minutes
	total time  =        144 seconds =       2.40 minutes
Total time:
	user time   =      96.83 seconds =       1.61 minutes
	system time =      41.85 seconds =       0.70 minutes
	total time  =        144 seconds =       2.40 minutes
                                     G D M A

                                 by Anthony Stone

                           version 2.2.06, 22 June 2011

               Distributed Multipoles from Gaussian wavefunctions

Starting at 10:43:18 on 28 Apr 2020

Using SCF density matrix from file ./SSI/SSI-049ILE-070PHE-1-dimer.test.9553.fchk

                         Distributed Multipole Analysis

Standard DMA

Positions and radii in angstrom
Multipole moments in atomic units, ea_0^k for rank k

C          x = -0.190083  y =  1.545756  z =  2.863792 angstrom
           Maximum rank =  0   Radius =  0.650 angstrom
                   Q00  =  -0.081153

C          x =  0.534917  y =  2.693756  z =  3.581792 angstrom
           Maximum rank =  0   Radius =  0.650 angstrom
                   Q00  =  -0.237799

C          x = -1.059083  y =  0.682756  z =  3.792792 angstrom
           Maximum rank =  0   Radius =  0.650 angstrom
                   Q00  =  -0.250386

H          x = -0.821083  y =  1.953756  z =  2.073792 angstrom
           Maximum rank =  0   Radius =  0.325 angstrom
                   Q00  =   0.042048

H          x =  0.544917  y =  0.888756  z =  2.399792 angstrom
           Maximum rank =  0   Radius =  0.325 angstrom
                   Q00  =   0.054564

H          x =  1.136917  y =  2.281756  z =  4.394792 angstrom
           Maximum rank =  0   Radius =  0.325 angstrom
                   Q00  =   0.077410

H          x = -1.945083  y =  1.228756  z =  4.112792 angstrom
           Maximum rank =  0   Radius =  0.325 angstrom
                   Q00  =   0.076742

H          x = -1.387083  y = -0.203244  z =  3.247792 angstrom
           Maximum rank =  0   Radius =  0.325 angstrom
                   Q00  =   0.082652

H          x = -0.480083  y =  0.367756  z =  4.661792 angstrom
           Maximum rank =  0   Radius =  0.325 angstrom
                   Q00  =   0.077843

H          x =  1.199347  y =  3.213286  z =  2.875662 angstrom
           Maximum rank =  0   Radius =  0.325 angstrom
                   Q00  =   0.084165

H          x = -0.199571  y =  3.389516  z =  4.013592 angstrom
           Maximum rank =  0   Radius =  0.325 angstrom
                   Q00  =   0.075041

C          x =  0.774917  y = -2.878244  z = -2.731208 angstrom
           Maximum rank =  0   Radius =  0.650 angstrom
                   Q00  =  -0.199401

C          x = -0.397083  y =  0.804756  z = -0.820208 angstrom
           Maximum rank =  0   Radius =  0.650 angstrom
                   Q00  =  -0.086708

C          x = -1.124083  y = -0.365244  z = -0.602208 angstrom
           Maximum rank =  0   Radius =  0.650 angstrom
                   Q00  =  -0.081214

C          x =  0.720917  y =  0.776756  z = -1.648208 angstrom
           Maximum rank =  0   Radius =  0.650 angstrom
                   Q00  =  -0.078939

C          x = -0.733083  y = -1.557244  z = -1.207208 angstrom
           Maximum rank =  0   Radius =  0.650 angstrom
                   Q00  =  -0.044330

C          x =  1.097917  y = -0.420244  z = -2.270208 angstrom
           Maximum rank =  0   Radius =  0.650 angstrom
                   Q00  =  -0.015065

C          x =  0.375917  y = -1.590244  z = -2.054208 angstrom
           Maximum rank =  0   Radius =  0.650 angstrom
                   Q00  =  -0.104400

H          x = -0.704083  y =  1.728756  z = -0.351208 angstrom
           Maximum rank =  0   Radius =  0.325 angstrom
                   Q00  =   0.062817

H          x = -1.987083  y = -0.356244  z =  0.046792 angstrom
           Maximum rank =  0   Radius =  0.325 angstrom
                   Q00  =   0.065100

H          x =  1.288917  y =  1.679756  z = -1.821208 angstrom
           Maximum rank =  0   Radius =  0.325 angstrom
                   Q00  =   0.065806

H          x = -1.301083  y = -2.458244  z = -1.029208 angstrom
           Maximum rank =  0   Radius =  0.325 angstrom
                   Q00  =   0.056759

H          x =  1.955917  y = -0.430244  z = -2.929208 angstrom
           Maximum rank =  0   Radius =  0.325 angstrom
                   Q00  =   0.057595

H          x =  0.562917  y = -3.714244  z = -2.062208 angstrom
           Maximum rank =  0   Radius =  0.325 angstrom
                   Q00  =   0.098093

H          x =  1.852917  y = -2.863244  z = -2.901208 angstrom
           Maximum rank =  0   Radius =  0.325 angstrom
                   Q00  =   0.096958

H          x =  0.269332  y = -3.046055  z = -3.693608 angstrom
           Maximum rank =  0   Radius =  0.325 angstrom
                   Q00  =   0.105801

Total multipoles referred to origin at
           x =   0.000000,  y =    0.000000,  z =    0.000000 angstrom
                   Q00  =  -0.000000

Finished at 10:43:18 on 28 Apr 2020

  DMA results are available in the Python driver through the
	  variable('DMA DISTRIBUTED MULTIPOLES')
  and
	  variable('DMA TOTAL MULTIPOLES')
  commands.

    Psi4 stopped on: Tuesday, 28 April 2020 10:43AM
    Psi4 wall time for execution: 0:02:24.47

*** Psi4 exiting successfully. Buy a developer a beer!
