                               Psi4 1.3.2 release

  ==> Input File <==

--------------------------------------------------------------------------
import numpy as np
set {scf_type pk
basis cc-pvdz
d_convergence 10
gdma_switch   0
gdma_limit    0
gdma_origin   [ 0.0,  0.0,  0.0 ]
}
molecule test {
    units Angstrom
    -1 1
    --
    -1 1
    C                0.177312079211733    -0.556869967581908     2.181491991845526
    C               -0.650687920788267    -0.722869967581908     3.450491991845527
    H               -0.402687920788267    -0.020869967581908     1.429491991845527
    H                1.086312079211733     0.004130032418092     2.402491991845527
    H                0.457312079211733    -1.535869967581908     1.790491991845527
    H               -0.034687920788267    -1.229869967581908     4.184491991845527
    H               -1.551622920788267    -1.320369967581908     3.247241191845526
    H               -0.889825920788267     0.268573032418092     3.862624191845526
    C                0.821312079211733    -0.842869967581908    -1.800508008154473
    C                0.061312079211733     0.407130032418092    -1.441508008154473
    O                0.743312079211733     1.438130032418092    -1.348508008154473
    O               -1.157687920788267     0.311130032418092    -1.158508008154473
    H                0.134312079211733    -1.634869967581908    -2.096508008154473
    H                1.335312079211732    -1.181869967581908    -0.897508008154473
    H                1.569172079211732    -0.685084967581908    -2.591593008154474

}
e, wfn = energy('scf', return_wfn=True)
gdma(wfn)
dmavals = variable('DMA DISTRIBUTED MULTIPOLES')
charges = np.array(dmavals)
print(charges)
np.save('SSI-045LEU-055ASP-1-dimer.npy', np.array(charges))--------------------------------------------------------------------------

*** tstart() called on ds3
*** at Mon Apr 27 23:09:12 2020

   => Loading Basis Set <=

    Name: CC-PVDZ
    Role: ORBITAL
    Keyword: BASIS
    atoms 1-2, 9-10  entry C          line   138 file /theoryfs2/ds/metcalf/miniconda2/envs/tf2gpu/share/psi4/basis/cc-pvdz.gbs
    atoms 3-8, 13-15 entry H          line    22 file /theoryfs2/ds/metcalf/miniconda2/envs/tf2gpu/share/psi4/basis/cc-pvdz.gbs
    atoms 11-12      entry O          line   198 file /theoryfs2/ds/metcalf/miniconda2/envs/tf2gpu/share/psi4/basis/cc-pvdz.gbs

         ---------------------------------------------------------
                                   SCF
               by Justin Turney, Rob Parrish, Andy Simmonett
                          and Daniel G. A. Smith
                              RHF Reference
                        1 Threads,    500 MiB Core
         ---------------------------------------------------------

  ==> Geometry <==

    Molecular point group: c1
    Full point group: C1

    Geometry (in Angstrom), charge = -1, multiplicity = 1:

       Center              X                  Y                   Z               Mass
    ------------   -----------------  -----------------  -----------------  -----------------
         C            0.177312079212    -0.556869967582     2.181491991846    12.000000000000
         C           -0.650687920788    -0.722869967582     3.450491991846    12.000000000000
         H           -0.402687920788    -0.020869967582     1.429491991846     1.007825032230
         H            1.086312079212     0.004130032418     2.402491991846     1.007825032230
         H            0.457312079212    -1.535869967582     1.790491991846     1.007825032230
         H           -0.034687920788    -1.229869967582     4.184491991846     1.007825032230
         H           -1.551622920788    -1.320369967582     3.247241191846     1.007825032230
         H           -0.889825920788     0.268573032418     3.862624191846     1.007825032230
         C            0.821312079212    -0.842869967582    -1.800508008154    12.000000000000
         C            0.061312079212     0.407130032418    -1.441508008154    12.000000000000
         O            0.743312079212     1.438130032418    -1.348508008154    15.994914619570
         O           -1.157687920788     0.311130032418    -1.158508008154    15.994914619570
         H            0.134312079212    -1.634869967582    -2.096508008154     1.007825032230
         H            1.335312079212    -1.181869967582    -0.897508008154     1.007825032230
         H            1.569172079212    -0.685084967582    -2.591593008154     1.007825032230

  Running in c1 symmetry.

  Rotational constants: A =      0.17730  B =      0.03770  C =      0.03695 [cm^-1]
  Rotational constants: A =   5315.34681  B =   1130.25176  C =   1107.85843 [MHz]
  Nuclear repulsion =  221.913147068475581

  Charge       = -1
  Multiplicity = 1
  Electrons    = 50
  Nalpha       = 25
  Nbeta        = 25

  ==> Algorithm <==

  SCF Algorithm Type is PK.
  DIIS enabled.
  MOM disabled.
  Fractional occupation disabled.
  Guess Type is SAD.
  Energy threshold   = 1.00e-06
  Density threshold  = 1.00e-10
  Integral threshold = 0.00e+00

  ==> Primary Basis <==

  Basis Set: CC-PVDZ
    Blend: CC-PVDZ
    Number of shells: 63
    Number of basis function: 129
    Number of Cartesian functions: 135
    Spherical Harmonics?: true
    Max angular momentum: 2

  ==> Pre-Iterations <==

   -------------------------------------------------------
    Irrep   Nso     Nmo     Nalpha   Nbeta   Ndocc  Nsocc
   -------------------------------------------------------
     A        129     129       0       0       0       0
   -------------------------------------------------------
    Total     129     129      25      25      25       0
   -------------------------------------------------------

  ==> Integral Setup <==

  Using integral reordering PK algorithm.
  Sizing the integral batches needed.
  Building batch lookup table.
   Calculation information:
      Number of atoms:                  15
      Number of AO shells:              63
      Number of primitives:            177
      Number of atomic orbitals:       135
      Number of basis functions:       129

      Integral cutoff                 1.00e-12
      Number of threads:                 1

	Batch   1 pq = [       0,    8385] index = [             0,35158305] size =     35158305
  Task number: 4
  Buffer size: 11059200
  Buffer per thread: 2
  We computed 1682407 shell quartets total.
  Whereas there are 2033136 unique shell quartets.

  ==> DiskJK: Disk-Based J/K Matrices <==

    J tasked:                  Yes
    K tasked:                  Yes
    wK tasked:                  No
    Memory [MiB]:              375
    Schwarz Cutoff:          1E-12

    OpenMP threads:              1

  Minimum eigenvalue in the overlap matrix is 5.0963759546E-03.
  Using Symmetric Orthogonalization.

  SCF Guess: Superposition of Atomic Densities via on-the-fly atomic UHF.

  ==> Iterations <==

                        Total Energy        Delta E     RMS |[F,P]|

   @RHF iter SAD:  -304.89964932929558   -3.04900e+02   0.00000e+00
   @RHF iter   1:  -306.21293029512788   -1.31328e+00   5.62934e-03 DIIS
   @RHF iter   2:  -306.41372326537851   -2.00793e-01   3.11340e-03 DIIS
   @RHF iter   3:  -306.47301529996179   -5.92920e-02   4.66345e-04 DIIS
   @RHF iter   4:  -306.47552643548977   -2.51114e-03   1.76620e-04 DIIS
   @RHF iter   5:  -306.47589827535188   -3.71840e-04   2.57033e-05 DIIS
   @RHF iter   6:  -306.47590881020409   -1.05349e-05   6.32859e-06 DIIS
   @RHF iter   7:  -306.47590936232217   -5.52118e-07   2.86926e-06 DIIS
   @RHF iter   8:  -306.47590944052672   -7.82046e-08   7.76396e-07 DIIS
   @RHF iter   9:  -306.47590945156986   -1.10431e-08   3.74336e-07 DIIS
   @RHF iter  10:  -306.47590945404022   -2.47036e-09   1.11796e-07 DIIS
   @RHF iter  11:  -306.47590945442880   -3.88582e-10   2.97749e-08 DIIS
   @RHF iter  12:  -306.47590945445302   -2.42153e-11   7.70975e-09 DIIS
   @RHF iter  13:  -306.47590945445427   -1.25056e-12   2.52625e-09 DIIS
   @RHF iter  14:  -306.47590945445484   -5.68434e-13   7.48796e-10 DIIS
   @RHF iter  15:  -306.47590945445290    1.93268e-12   3.17009e-10 DIIS
   @RHF iter  16:  -306.47590945445438   -1.47793e-12   9.44309e-11 DIIS
  Energy and wave function converged.

  ==> Post-Iterations <==

    Orbital Energies [Eh]
    ---------------------

    Doubly Occupied:

       1A    -20.255114     2A    -20.252598     3A    -11.111084
       4A    -11.108801     5A    -11.087555     6A    -11.041945
       7A     -1.145771     8A     -1.035372     9A     -0.903048
      10A     -0.791427    11A     -0.717248    12A     -0.496363
      13A     -0.486192    14A     -0.480618    15A     -0.408015
      16A     -0.403152    17A     -0.399211    18A     -0.380490
      19A     -0.370762    20A     -0.362454    21A     -0.338296
      22A     -0.296778    23A     -0.175865    24A     -0.169659
      25A     -0.157831

    Virtual:

      26A      0.294163    27A      0.332709    28A      0.358553
      29A      0.363869    30A      0.382776    31A      0.396027
      32A      0.418966    33A      0.426241    34A      0.451875
      35A      0.484299    36A      0.536346    37A      0.583620
      38A      0.693011    39A      0.704988    40A      0.717010
      41A      0.727985    42A      0.760193    43A      0.802324
      44A      0.803455    45A      0.837825    46A      0.883065
      47A      0.947607    48A      0.987135    49A      0.998452
      50A      1.001317    51A      1.017186    52A      1.022062
      53A      1.031958    54A      1.036261    55A      1.044412
      56A      1.062417    57A      1.066558    58A      1.103819
      59A      1.133308    60A      1.156731    61A      1.231416
      62A      1.249440    63A      1.261028    64A      1.330134
      65A      1.347647    66A      1.367318    67A      1.390428
      68A      1.539934    69A      1.560615    70A      1.579770
      71A      1.593043    72A      1.604504    73A      1.632215
      74A      1.673472    75A      1.692279    76A      1.725960
      77A      1.750060    78A      1.781633    79A      1.826775
      80A      1.849604    81A      1.859763    82A      1.965831
      83A      1.986386    84A      2.028839    85A      2.051712
      86A      2.053246    87A      2.066936    88A      2.073999
      89A      2.079261    90A      2.085510    91A      2.110275
      92A      2.142997    93A      2.147648    94A      2.208424
      95A      2.220428    96A      2.240726    97A      2.280198
      98A      2.385973    99A      2.420850   100A      2.439861
     101A      2.454734   102A      2.469773   103A      2.567062
     104A      2.591805   105A      2.603899   106A      2.678066
     107A      2.692901   108A      2.698102   109A      2.730264
     110A      2.763670   111A      2.874499   112A      2.924435
     113A      2.929665   114A      2.961037   115A      2.970553
     116A      2.973307   117A      3.014691   118A      3.058679
     119A      3.100381   120A      3.245536   121A      3.277905
     122A      3.306137   123A      3.371606   124A      3.630386
     125A      3.805457   126A      3.877893   127A      4.067293
     128A      4.102762   129A      4.198737

    Final Occupation by Irrep:
              A
    DOCC [    25 ]

  @RHF Final Energy:  -306.47590945445438

   => Energetics <=

    Nuclear Repulsion Energy =            221.9131470684755811
    One-Electron Energy =                -868.0268161139574659
    Two-Electron Energy =                 339.6377595910274749
    Total Energy =                       -306.4759094544543814

Computation Completed

Properties will be evaluated at   0.000000,   0.000000,   0.000000 [a0]

Properties computed using the SCF density matrix

  Nuclear Dipole Moment: [e a0]
     X:     1.5951      Y:    -6.8690      Z:    10.6106

  Electronic Dipole Moment: [e a0]
     X:    -1.0993      Y:     5.2222      Z:    -8.6515

  Dipole Moment: [e a0]
     X:     0.4958      Y:    -1.6468      Z:     1.9591     Total:     2.6069

  Dipole Moment: [D]
     X:     1.2602      Y:    -4.1856      Z:     4.9797     Total:     6.6261

*** tstop() called on ds3 at Mon Apr 27 23:09:31 2020
Module time:
	user time   =      13.41 seconds =       0.22 minutes
	system time =       7.05 seconds =       0.12 minutes
	total time  =         19 seconds =       0.32 minutes
Total time:
	user time   =      13.41 seconds =       0.22 minutes
	system time =       7.05 seconds =       0.12 minutes
	total time  =         19 seconds =       0.32 minutes
                                     G D M A

                                 by Anthony Stone

                           version 2.2.06, 22 June 2011

               Distributed Multipoles from Gaussian wavefunctions

Starting at 23:9:32 on 27 Apr 2020

Using SCF density matrix from file ./SSI/SSI-045LEU-055ASP-1-dimer.test.1302.fchk

                         Distributed Multipole Analysis

Standard DMA

Positions and radii in angstrom
Multipole moments in atomic units, ea_0^k for rank k

C          x =  0.177312  y = -0.556870  z =  2.181492 angstrom
           Maximum rank =  0   Radius =  0.650 angstrom
                   Q00  =  -0.189075

C          x = -0.650688  y = -0.722870  z =  3.450492 angstrom
           Maximum rank =  0   Radius =  0.650 angstrom
                   Q00  =  -0.243929

H          x = -0.402688  y = -0.020870  z =  1.429492 angstrom
           Maximum rank =  0   Radius =  0.325 angstrom
                   Q00  =   0.120500

H          x =  1.086312  y =  0.004130  z =  2.402492 angstrom
           Maximum rank =  0   Radius =  0.325 angstrom
                   Q00  =   0.060672

H          x =  0.457312  y = -1.535870  z =  1.790492 angstrom
           Maximum rank =  0   Radius =  0.325 angstrom
                   Q00  =   0.061425

H          x = -0.034688  y = -1.229870  z =  4.184492 angstrom
           Maximum rank =  0   Radius =  0.325 angstrom
                   Q00  =   0.043518

H          x = -1.551623  y = -1.320370  z =  3.247241 angstrom
           Maximum rank =  0   Radius =  0.325 angstrom
                   Q00  =   0.074467

H          x = -0.889826  y =  0.268573  z =  3.862624 angstrom
           Maximum rank =  0   Radius =  0.325 angstrom
                   Q00  =   0.067982

C          x =  0.821312  y = -0.842870  z = -1.800508 angstrom
           Maximum rank =  0   Radius =  0.650 angstrom
                   Q00  =  -0.279704

C          x =  0.061312  y =  0.407130  z = -1.441508 angstrom
           Maximum rank =  0   Radius =  0.650 angstrom
                   Q00  =   0.980814

O          x =  0.743312  y =  1.438130  z = -1.348508 angstrom
           Maximum rank =  0   Radius =  0.650 angstrom
                   Q00  =  -0.924133

O          x = -1.157688  y =  0.311130  z = -1.158508 angstrom
           Maximum rank =  0   Radius =  0.650 angstrom
                   Q00  =  -0.941707

H          x =  0.134312  y = -1.634870  z = -2.096508 angstrom
           Maximum rank =  0   Radius =  0.325 angstrom
                   Q00  =   0.040555

H          x =  1.335312  y = -1.181870  z = -0.897508 angstrom
           Maximum rank =  0   Radius =  0.325 angstrom
                   Q00  =   0.076262

H          x =  1.569172  y = -0.685085  z = -2.591593 angstrom
           Maximum rank =  0   Radius =  0.325 angstrom
                   Q00  =   0.052353

Total multipoles referred to origin at
           x =   0.000000,  y =    0.000000,  z =    0.000000 angstrom
                   Q00  =  -1.000000

Finished at 23:9:32 on 27 Apr 2020

  DMA results are available in the Python driver through the
	  variable('DMA DISTRIBUTED MULTIPOLES')
  and
	  variable('DMA TOTAL MULTIPOLES')
  commands.

    Psi4 stopped on: Monday, 27 April 2020 11:09PM
    Psi4 wall time for execution: 0:00:20.03

*** Psi4 exiting successfully. Buy a developer a beer!
