                               Psi4 1.3.2 release

  ==> Input File <==

--------------------------------------------------------------------------
import numpy as np
set {scf_type pk
basis cc-pvdz
d_convergence 10
gdma_switch   0
gdma_limit    0
gdma_origin   [ 0.0,  0.0,  0.0 ]
}
molecule test {
    units Angstrom
    0 1
    --
    0 1
    C               -2.513143442966025     1.366031512465961    -0.616417885251343
    C               -3.434143442966025     2.576031512465961    -0.559417885251343
    H               -1.515143442966025     1.640031512465961    -0.275417885251343
    H               -2.906143442966025     0.578031512465961     0.025582114748657
    H               -2.450143442966025     0.984031512465961    -1.635417885251343
    H               -4.413143442965025     2.284031512465960    -0.931417885251343
    H               -3.047801442966025     3.408811512465960    -1.165401885251343
    H               -3.519844442966025     2.904941512465961     0.486754114748657
    C                0.125856557033975    -0.888968487534039     0.751582114748657
    C                0.637856557033975    -1.896968487534039     1.769582114748657
    C                2.611856557033974     0.181031512465961     0.060582114748657
    S                1.207856557033975    -0.669968487534039    -0.681417885251343
    H               -0.853143442966025    -1.212968487534039     0.398582114748657
    H               -0.003143442966025     0.075031512465961     1.245582114748657
    H               -0.078143442966025    -1.960968487534039     2.590582114748657
    H                1.581856557033975    -1.531968487534039     2.172582114748656
    H                3.066856557033975    -0.444968487534039     0.828582114748657
    H                3.354856557033975     0.386031512465961    -0.711417885251343
    H                2.283856557033975     1.124031512465961     0.495582114748657
    H                0.802382557033975    -2.901438487534040     1.352494114748657

}
e, wfn = energy('scf', return_wfn=True)
gdma(wfn)
dmavals = variable('DMA DISTRIBUTED MULTIPOLES')
charges = np.array(dmavals)
print(charges)
np.save('SSI-036THR-104MET-1-dimer.npy', np.array(charges))--------------------------------------------------------------------------

*** tstart() called on ds3
*** at Mon Apr 27 22:14:15 2020

   => Loading Basis Set <=

    Name: CC-PVDZ
    Role: ORBITAL
    Keyword: BASIS
    atoms 1-2, 9-11  entry C          line   138 file /theoryfs2/ds/metcalf/miniconda2/envs/tf2gpu/share/psi4/basis/cc-pvdz.gbs
    atoms 3-8, 13-20 entry H          line    22 file /theoryfs2/ds/metcalf/miniconda2/envs/tf2gpu/share/psi4/basis/cc-pvdz.gbs
    atoms 12         entry S          line   598 file /theoryfs2/ds/metcalf/miniconda2/envs/tf2gpu/share/psi4/basis/cc-pvdz.gbs

         ---------------------------------------------------------
                                   SCF
               by Justin Turney, Rob Parrish, Andy Simmonett
                          and Daniel G. A. Smith
                              RHF Reference
                        1 Threads,    500 MiB Core
         ---------------------------------------------------------

  ==> Geometry <==

    Molecular point group: c1
    Full point group: C1

    Geometry (in Angstrom), charge = 0, multiplicity = 1:

       Center              X                  Y                   Z               Mass
    ------------   -----------------  -----------------  -----------------  -----------------
         C           -2.513143442966     1.366031512466    -0.616417885251    12.000000000000
         C           -3.434143442966     2.576031512466    -0.559417885251    12.000000000000
         H           -1.515143442966     1.640031512466    -0.275417885251     1.007825032230
         H           -2.906143442966     0.578031512466     0.025582114749     1.007825032230
         H           -2.450143442966     0.984031512466    -1.635417885251     1.007825032230
         H           -4.413143442965     2.284031512466    -0.931417885251     1.007825032230
         H           -3.047801442966     3.408811512466    -1.165401885251     1.007825032230
         H           -3.519844442966     2.904941512466     0.486754114749     1.007825032230
         C            0.125856557034    -0.888968487534     0.751582114749    12.000000000000
         C            0.637856557034    -1.896968487534     1.769582114749    12.000000000000
         C            2.611856557034     0.181031512466     0.060582114749    12.000000000000
         S            1.207856557034    -0.669968487534    -0.681417885251    31.972071174400
         H           -0.853143442966    -1.212968487534     0.398582114749     1.007825032230
         H           -0.003143442966     0.075031512466     1.245582114749     1.007825032230
         H           -0.078143442966    -1.960968487534     2.590582114749     1.007825032230
         H            1.581856557034    -1.531968487534     2.172582114749     1.007825032230
         H            3.066856557034    -0.444968487534     0.828582114749     1.007825032230
         H            3.354856557034     0.386031512466    -0.711417885251     1.007825032230
         H            2.283856557034     1.124031512466     0.495582114749     1.007825032230
         H            0.802382557034    -2.901438487534     1.352494114749     1.007825032230

  Running in c1 symmetry.

  Rotational constants: A =      0.10863  B =      0.02699  C =      0.02372 [cm^-1]
  Rotational constants: A =   3256.70338  B =    809.02560  C =    710.95927 [MHz]
  Nuclear repulsion =  292.490804666876386

  Charge       = 0
  Multiplicity = 1
  Electrons    = 60
  Nalpha       = 30
  Nbeta        = 30

  ==> Algorithm <==

  SCF Algorithm Type is PK.
  DIIS enabled.
  MOM disabled.
  Fractional occupation disabled.
  Guess Type is SAD.
  Energy threshold   = 1.00e-06
  Density threshold  = 1.00e-10
  Integral threshold = 0.00e+00

  ==> Primary Basis <==

  Basis Set: CC-PVDZ
    Blend: CC-PVDZ
    Number of shells: 80
    Number of basis function: 158
    Number of Cartesian functions: 164
    Spherical Harmonics?: true
    Max angular momentum: 2

  ==> Pre-Iterations <==

   -------------------------------------------------------
    Irrep   Nso     Nmo     Nalpha   Nbeta   Ndocc  Nsocc
   -------------------------------------------------------
     A        158     158       0       0       0       0
   -------------------------------------------------------
    Total     158     158      30      30      30       0
   -------------------------------------------------------

  ==> Integral Setup <==

  Using integral reordering PK algorithm.
  Sizing the integral batches needed.
  Building batch lookup table.
   Calculation information:
      Number of atoms:                  20
      Number of AO shells:              80
      Number of primitives:            230
      Number of atomic orbitals:       164
      Number of basis functions:       158

      Integral cutoff                 1.00e-12
      Number of threads:                 1

	Batch   1 pq = [       0,    9405] index = [             0,44231715] size =     44231715
	Batch   2 pq = [    9405,   12561] index = [      44231715,78895641] size =     34663926
  Task number: 8
  Buffer size: 11059200
  Buffer per thread: 2
  We computed 4272604 shell quartets total.
  Whereas there are 5250420 unique shell quartets.

  ==> DiskJK: Disk-Based J/K Matrices <==

    J tasked:                  Yes
    K tasked:                  Yes
    wK tasked:                  No
    Memory [MiB]:              375
    Schwarz Cutoff:          1E-12

    OpenMP threads:              1

  Minimum eigenvalue in the overlap matrix is 5.6623928607E-03.
  Using Symmetric Orthogonalization.

  SCF Guess: Superposition of Atomic Densities via on-the-fly atomic UHF.

  ==> Iterations <==

                        Total Energy        Delta E     RMS |[F,P]|

   @RHF iter SAD:  -593.91106358095612   -5.93911e+02   0.00000e+00
   @RHF iter   1:  -594.84901752196117   -9.37954e-01   3.20273e-03 DIIS
   @RHF iter   2:  -595.00145904728095   -1.52442e-01   1.30765e-03 DIIS
   @RHF iter   3:  -595.02503309599138   -2.35740e-02   3.00912e-04 DIIS
   @RHF iter   4:  -595.02735407180921   -2.32098e-03   5.49128e-05 DIIS
   @RHF iter   5:  -595.02741419980998   -6.01280e-05   1.56752e-05 DIIS
   @RHF iter   6:  -595.02741890436164   -4.70455e-06   3.55268e-06 DIIS
   @RHF iter   7:  -595.02741919173968   -2.87378e-07   8.15970e-07 DIIS
   @RHF iter   8:  -595.02741921109362   -1.93539e-08   2.74499e-07 DIIS
   @RHF iter   9:  -595.02741921345591   -2.36230e-09   8.72213e-08 DIIS
   @RHF iter  10:  -595.02741921374138   -2.85468e-10   2.40286e-08 DIIS
   @RHF iter  11:  -595.02741921376798   -2.66027e-11   6.55869e-09 DIIS
   @RHF iter  12:  -595.02741921376878   -7.95808e-13   2.46084e-09 DIIS
   @RHF iter  13:  -595.02741921376992   -1.13687e-12   8.21608e-10 DIIS
   @RHF iter  14:  -595.02741921376992    0.00000e+00   2.04436e-10 DIIS
   @RHF iter  15:  -595.02741921377071   -7.95808e-13   6.04282e-11 DIIS
  Energy and wave function converged.

  ==> Post-Iterations <==

    Orbital Energies [Eh]
    ---------------------

    Doubly Occupied:

       1A    -91.932061     2A    -11.256422     3A    -11.254965
       4A    -11.227210     5A    -11.216956     6A    -11.213626
       7A     -8.936012     8A     -6.618059     9A     -6.616488
      10A     -6.614309    11A     -1.080032    12A     -1.018309
      13A     -0.996068    14A     -0.885375    15A     -0.833941
      16A     -0.783574    17A     -0.631173    18A     -0.605389
      19A     -0.598497    20A     -0.595725    21A     -0.584329
      22A     -0.558154    23A     -0.532324    24A     -0.511546
      25A     -0.498970    26A     -0.484065    27A     -0.482700
      28A     -0.476928    29A     -0.417480    30A     -0.329632

    Virtual:

      31A      0.168989    32A      0.183793    33A      0.195119
      34A      0.212410    35A      0.220582    36A      0.244345
      37A      0.249225    38A      0.253545    39A      0.262384
      40A      0.266745    41A      0.272222    42A      0.282543
      43A      0.298094    44A      0.305634    45A      0.311649
      46A      0.324437    47A      0.377897    48A      0.412803
      49A      0.531452    50A      0.558994    51A      0.579372
      52A      0.591142    53A      0.601778    54A      0.605422
      55A      0.610384    56A      0.632061    57A      0.648602
      58A      0.673950    59A      0.679851    60A      0.705107
      61A      0.737641    62A      0.766114    63A      0.806086
      64A      0.815909    65A      0.825942    66A      0.841781
      67A      0.868357    68A      0.876722    69A      0.880256
      70A      0.887306    71A      0.891061    72A      0.892999
      73A      0.896382    74A      0.898595    75A      0.913930
      76A      0.918874    77A      0.922702    78A      0.929126
      79A      0.949198    80A      0.958547    81A      0.978511
      82A      0.983320    83A      1.014721    84A      1.025187
      85A      1.128160    86A      1.139752    87A      1.163731
      88A      1.223090    89A      1.251097    90A      1.256379
      91A      1.298726    92A      1.337909    93A      1.365018
      94A      1.397621    95A      1.472670    96A      1.476432
      97A      1.485952    98A      1.507011    99A      1.584606
     100A      1.635570   101A      1.654142   102A      1.679231
     103A      1.681883   104A      1.690084   105A      1.697318
     106A      1.845003   107A      1.865085   108A      1.867298
     109A      1.875893   110A      1.888634   111A      1.895754
     112A      1.900249   113A      1.914834   114A      1.925677
     115A      1.939888   116A      1.948762   117A      1.950605
     118A      1.953578   119A      1.960724   120A      1.973505
     121A      1.988583   122A      1.994006   123A      2.022353
     124A      2.037898   125A      2.062239   126A      2.082205
     127A      2.101604   128A      2.118676   129A      2.129959
     130A      2.218833   131A      2.242866   132A      2.299699
     133A      2.307282   134A      2.328139   135A      2.351389
     136A      2.416973   137A      2.449065   138A      2.462447
     139A      2.467242   140A      2.470442   141A      2.542105
     142A      2.560724   143A      2.570354   144A      2.578944
     145A      2.752660   146A      2.762640   147A      2.765269
     148A      2.785519   149A      2.794306   150A      2.798766
     151A      2.807337   152A      2.841793   153A      2.848463
     154A      2.864222   155A      2.893987   156A      2.947005
     157A      2.959861   158A      2.988820

    Final Occupation by Irrep:
              A
    DOCC [    30 ]

  @RHF Final Energy:  -595.02741921377071

   => Energetics <=

    Nuclear Repulsion Energy =            292.4908046668763859
    One-Electron Energy =               -1395.4558089905463021
    Two-Electron Energy =                 507.9375851098993166
    Total Energy =                       -595.0274192137705995

Computation Completed

Properties will be evaluated at   0.000000,   0.000000,   0.000000 [a0]

Properties computed using the SCF density matrix

  Nuclear Dipole Moment: [e a0]
     X:    -7.1837      Y:     4.9815      Z:     4.5543

  Electronic Dipole Moment: [e a0]
     X:     7.2851      Y:    -4.8286      Z:    -3.9180

  Dipole Moment: [e a0]
     X:     0.1014      Y:     0.1530      Z:     0.6363     Total:     0.6623

  Dipole Moment: [D]
     X:     0.2577      Y:     0.3888      Z:     1.6174     Total:     1.6833

*** tstop() called on ds3 at Mon Apr 27 22:14:55 2020
Module time:
	user time   =      30.38 seconds =       0.51 minutes
	system time =      10.71 seconds =       0.18 minutes
	total time  =         40 seconds =       0.67 minutes
Total time:
	user time   =      30.38 seconds =       0.51 minutes
	system time =      10.71 seconds =       0.18 minutes
	total time  =         40 seconds =       0.67 minutes
                                     G D M A

                                 by Anthony Stone

                           version 2.2.06, 22 June 2011

               Distributed Multipoles from Gaussian wavefunctions

Starting at 22:14:55 on 27 Apr 2020

Using SCF density matrix from file ./SSI/SSI-036THR-104MET-1-dimer.test.3466.fchk

                         Distributed Multipole Analysis

Standard DMA

Positions and radii in angstrom
Multipole moments in atomic units, ea_0^k for rank k

C          x = -2.513143  y =  1.366032  z = -0.616418 angstrom
           Maximum rank =  0   Radius =  0.650 angstrom
                   Q00  =  -0.233777

C          x = -3.434143  y =  2.576032  z = -0.559418 angstrom
           Maximum rank =  0   Radius =  0.650 angstrom
                   Q00  =  -0.234511

H          x = -1.515143  y =  1.640032  z = -0.275418 angstrom
           Maximum rank =  0   Radius =  0.325 angstrom
                   Q00  =   0.079633

H          x = -2.906143  y =  0.578032  z =  0.025582 angstrom
           Maximum rank =  0   Radius =  0.325 angstrom
                   Q00  =   0.071509

H          x = -2.450143  y =  0.984032  z = -1.635418 angstrom
           Maximum rank =  0   Radius =  0.325 angstrom
                   Q00  =   0.083279

H          x = -4.413143  y =  2.284032  z = -0.931418 angstrom
           Maximum rank =  0   Radius =  0.325 angstrom
                   Q00  =   0.078758

H          x = -3.047801  y =  3.408812  z = -1.165402 angstrom
           Maximum rank =  0   Radius =  0.325 angstrom
                   Q00  =   0.080203

H          x = -3.519844  y =  2.904942  z =  0.486754 angstrom
           Maximum rank =  0   Radius =  0.325 angstrom
                   Q00  =   0.073869

C          x =  0.125857  y = -0.888968  z =  0.751582 angstrom
           Maximum rank =  0   Radius =  0.650 angstrom
                   Q00  =  -0.188686

C          x =  0.637857  y = -1.896968  z =  1.769582 angstrom
           Maximum rank =  0   Radius =  0.650 angstrom
                   Q00  =  -0.251122

C          x =  2.611857  y =  0.181032  z =  0.060582 angstrom
           Maximum rank =  0   Radius =  0.650 angstrom
                   Q00  =  -0.364394

S          x =  1.207857  y = -0.669968  z = -0.681418 angstrom
           Maximum rank =  0   Radius =  0.650 angstrom
                   Q00  =   0.106523

H          x = -0.853143  y = -1.212968  z =  0.398582 angstrom
           Maximum rank =  0   Radius =  0.325 angstrom
                   Q00  =   0.090438

H          x = -0.003143  y =  0.075032  z =  1.245582 angstrom
           Maximum rank =  0   Radius =  0.325 angstrom
                   Q00  =   0.056629

H          x = -0.078143  y = -1.960968  z =  2.590582 angstrom
           Maximum rank =  0   Radius =  0.325 angstrom
                   Q00  =   0.085761

H          x =  1.581857  y = -1.531968  z =  2.172582 angstrom
           Maximum rank =  0   Radius =  0.325 angstrom
                   Q00  =   0.077623

H          x =  3.066857  y = -0.444968  z =  0.828582 angstrom
           Maximum rank =  0   Radius =  0.325 angstrom
                   Q00  =   0.086658

H          x =  3.354857  y =  0.386032  z = -0.711418 angstrom
           Maximum rank =  0   Radius =  0.325 angstrom
                   Q00  =   0.123066

H          x =  2.283857  y =  1.124032  z =  0.495582 angstrom
           Maximum rank =  0   Radius =  0.325 angstrom
                   Q00  =   0.085969

H          x =  0.802383  y = -2.901438  z =  1.352494 angstrom
           Maximum rank =  0   Radius =  0.325 angstrom
                   Q00  =   0.092571

Total multipoles referred to origin at
           x =   0.000000,  y =    0.000000,  z =    0.000000 angstrom
                   Q00  =  -0.000000

Finished at 22:14:55 on 27 Apr 2020

  DMA results are available in the Python driver through the
	  variable('DMA DISTRIBUTED MULTIPOLES')
  and
	  variable('DMA TOTAL MULTIPOLES')
  commands.

    Psi4 stopped on: Monday, 27 April 2020 10:14PM
    Psi4 wall time for execution: 0:00:40.53

*** Psi4 exiting successfully. Buy a developer a beer!
