                               Psi4 1.3.2 release

  ==> Input File <==

--------------------------------------------------------------------------
import numpy as np
set {scf_type pk
basis cc-pvdz
d_convergence 10
gdma_switch   0
gdma_limit    0
gdma_origin   [ 0.0,  0.0,  0.0 ]
}
molecule test {
    units Angstrom
    0 1
    --
    0 1
    C               -2.361345384421994     0.555889360547466     2.977817460085326
    C               -0.879345384421994    -0.220110639452534    -0.971182539914674
    C               -0.605345384421994    -1.103110639452535     0.068817460085326
    C               -1.638345384421994     0.880889360547465    -0.742182539914674
    C               -1.084345384421994    -0.864110639452534     1.335817460085326
    C               -2.134345384421994     1.123889360547466     0.527817460085326
    C               -1.843345384421995     0.264889360547466     1.584817460085326
    H               -0.493345384421994    -0.413110639452534    -1.962182539914674
    H               -0.003345384421994    -1.975110639452534    -0.122182539914674
    H               -1.878345384421994     1.544889360547466    -1.555182539914674
    H               -0.857345384421994    -1.556110639452534     2.135817460085326
    H               -2.744345384421994     1.997889360547466     0.693817460085326
    H               -2.351345384421994     1.632889360547465     3.144817460085326
    H               -1.682345384421994     0.108889360547466     3.703817460085326
    H               -3.373455384421994     0.164780360547466     3.158551460085326
    C                2.697654615578005     0.008889360547466    -1.016182539914674
    C                4.156654615578005     0.453889360547466    -1.265182539914674
    O                2.300654615578005    -0.944110639452534    -2.014182539914674
    H                2.602654615578006    -0.427110639452534    -0.021182539914674
    H                2.039654615578006     0.876889360547465    -1.082182539914674
    H                4.202654615578005     0.750889360547466    -2.313182539914674
    H                2.717654615578005    -1.784110639452534    -1.772182539914674
    H                4.835244615578007    -0.399455639452534    -1.119175539914674
    H                4.434254615578006     1.352144360547466    -0.694153539914674

}
e, wfn = energy('scf', return_wfn=True)
gdma(wfn)
dmavals = variable('DMA DISTRIBUTED MULTIPOLES')
charges = np.array(dmavals)
print(charges)
np.save('SSI-027PHE-069SER-1-dimer.npy', np.array(charges))--------------------------------------------------------------------------

*** tstart() called on ds3
*** at Mon Apr 27 16:26:15 2020

   => Loading Basis Set <=

    Name: CC-PVDZ
    Role: ORBITAL
    Keyword: BASIS
    atoms 1-7, 16-17  entry C          line   138 file /theoryfs2/ds/metcalf/miniconda2/envs/tf2gpu/share/psi4/basis/cc-pvdz.gbs
    atoms 8-15, 19-24 entry H          line    22 file /theoryfs2/ds/metcalf/miniconda2/envs/tf2gpu/share/psi4/basis/cc-pvdz.gbs
    atoms 18          entry O          line   198 file /theoryfs2/ds/metcalf/miniconda2/envs/tf2gpu/share/psi4/basis/cc-pvdz.gbs

         ---------------------------------------------------------
                                   SCF
               by Justin Turney, Rob Parrish, Andy Simmonett
                          and Daniel G. A. Smith
                              RHF Reference
                        1 Threads,    500 MiB Core
         ---------------------------------------------------------

  ==> Geometry <==

    Molecular point group: c1
    Full point group: C1

    Geometry (in Angstrom), charge = 0, multiplicity = 1:

       Center              X                  Y                   Z               Mass
    ------------   -----------------  -----------------  -----------------  -----------------
         C           -2.361345384422     0.555889360547     2.977817460085    12.000000000000
         C           -0.879345384422    -0.220110639453    -0.971182539915    12.000000000000
         C           -0.605345384422    -1.103110639453     0.068817460085    12.000000000000
         C           -1.638345384422     0.880889360547    -0.742182539915    12.000000000000
         C           -1.084345384422    -0.864110639453     1.335817460085    12.000000000000
         C           -2.134345384422     1.123889360547     0.527817460085    12.000000000000
         C           -1.843345384422     0.264889360547     1.584817460085    12.000000000000
         H           -0.493345384422    -0.413110639453    -1.962182539915     1.007825032230
         H           -0.003345384422    -1.975110639453    -0.122182539915     1.007825032230
         H           -1.878345384422     1.544889360547    -1.555182539915     1.007825032230
         H           -0.857345384422    -1.556110639453     2.135817460085     1.007825032230
         H           -2.744345384422     1.997889360547     0.693817460085     1.007825032230
         H           -2.351345384422     1.632889360547     3.144817460085     1.007825032230
         H           -1.682345384422     0.108889360547     3.703817460085     1.007825032230
         H           -3.373455384422     0.164780360547     3.158551460085     1.007825032230
         C            2.697654615578     0.008889360547    -1.016182539915    12.000000000000
         C            4.156654615578     0.453889360547    -1.265182539915    12.000000000000
         O            2.300654615578    -0.944110639453    -2.014182539915    15.994914619570
         H            2.602654615578    -0.427110639453    -0.021182539915     1.007825032230
         H            2.039654615578     0.876889360547    -1.082182539915     1.007825032230
         H            4.202654615578     0.750889360547    -2.313182539915     1.007825032230
         H            2.717654615578    -1.784110639453    -1.772182539915     1.007825032230
         H            4.835244615578    -0.399455639453    -1.119175539915     1.007825032230
         H            4.434254615578     1.352144360547    -0.694153539915     1.007825032230

  Running in c1 symmetry.

  Rotational constants: A =      0.07901  B =      0.01669  C =      0.01601 [cm^-1]
  Rotational constants: A =   2368.68426  B =    500.32203  C =    479.97356 [MHz]
  Nuclear repulsion =  487.676649372253223

  Charge       = 0
  Multiplicity = 1
  Electrons    = 76
  Nalpha       = 38
  Nbeta        = 38

  ==> Algorithm <==

  SCF Algorithm Type is PK.
  DIIS enabled.
  MOM disabled.
  Fractional occupation disabled.
  Guess Type is SAD.
  Energy threshold   = 1.00e-06
  Density threshold  = 1.00e-10
  Integral threshold = 0.00e+00

  ==> Primary Basis <==

  Basis Set: CC-PVDZ
    Blend: CC-PVDZ
    Number of shells: 102
    Number of basis function: 210
    Number of Cartesian functions: 220
    Spherical Harmonics?: true
    Max angular momentum: 2

  ==> Pre-Iterations <==

   -------------------------------------------------------
    Irrep   Nso     Nmo     Nalpha   Nbeta   Ndocc  Nsocc
   -------------------------------------------------------
     A        210     210       0       0       0       0
   -------------------------------------------------------
    Total     210     210      38      38      38       0
   -------------------------------------------------------

  ==> Integral Setup <==

  Using integral reordering PK algorithm.
  Sizing the integral batches needed.
  Building batch lookup table.
   Calculation information:
      Number of atoms:                  24
      Number of AO shells:             102
      Number of primitives:            290
      Number of atomic orbitals:       220
      Number of basis functions:       210

      Integral cutoff                 1.00e-12
      Number of threads:                 1

	Batch   1 pq = [       0,    9405] index = [             0,44231715] size =     44231715
	Batch   2 pq = [    9405,   13301] index = [      44231715,88464951] size =     44233236
	Batch   3 pq = [   13301,   16290] index = [      88464951,132690195] size =     44225244
	Batch   4 pq = [   16290,   18810] index = [     132690195,176917455] size =     44227260
	Batch   5 pq = [   18810,   21030] index = [     176917455,221140965] size =     44223510
	Batch   6 pq = [   21030,   22155] index = [     221140965,245433090] size =     24292125
  Task number: 23
  Buffer size: 11059200
  Buffer per thread: 2
  We computed 11187620 shell quartets total.
  Whereas there are 13799631 unique shell quartets.

  ==> DiskJK: Disk-Based J/K Matrices <==

    J tasked:                  Yes
    K tasked:                  Yes
    wK tasked:                  No
    Memory [MiB]:              375
    Schwarz Cutoff:          1E-12

    OpenMP threads:              1

  Minimum eigenvalue in the overlap matrix is 2.8971241937E-04.
  Using Symmetric Orthogonalization.

  SCF Guess: Superposition of Atomic Densities via on-the-fly atomic UHF.

  ==> Iterations <==

                        Total Energy        Delta E     RMS |[F,P]|

   @RHF iter SAD:  -422.65024375695316   -4.22650e+02   0.00000e+00
   @RHF iter   1:  -423.60037411136125   -9.50130e-01   2.95362e-03 DIIS
   @RHF iter   2:  -423.81061547424832   -2.10241e-01   1.31907e-03 DIIS
   @RHF iter   3:  -423.84615180378199   -3.55363e-02   2.84225e-04 DIIS
   @RHF iter   4:  -423.84893246154940   -2.78066e-03   8.73267e-05 DIIS
   @RHF iter   5:  -423.84911617316766   -1.83712e-04   1.75853e-05 DIIS
   @RHF iter   6:  -423.84912673163711   -1.05585e-05   4.62459e-06 DIIS
   @RHF iter   7:  -423.84912759286755   -8.61230e-07   1.37426e-06 DIIS
   @RHF iter   8:  -423.84912770175151   -1.08884e-07   5.66484e-07 DIIS
   @RHF iter   9:  -423.84912772964060   -2.78891e-08   2.50651e-07 DIIS
   @RHF iter  10:  -423.84912773545415   -5.81355e-09   1.26192e-07 DIIS
   @RHF iter  11:  -423.84912773763455   -2.18040e-09   4.20566e-08 DIIS
   @RHF iter  12:  -423.84912773787289   -2.38344e-10   1.44226e-08 DIIS
   @RHF iter  13:  -423.84912773789216   -1.92699e-11   4.52347e-09 DIIS
   @RHF iter  14:  -423.84912773789375   -1.59162e-12   1.57880e-09 DIIS
   @RHF iter  15:  -423.84912773789290    8.52651e-13   7.83496e-10 DIIS
   @RHF iter  16:  -423.84912773789262    2.84217e-13   3.24216e-10 DIIS
   @RHF iter  17:  -423.84912773789483   -2.21689e-12   1.37263e-10 DIIS
   @RHF iter  18:  -423.84912773789279    2.04636e-12   5.79811e-11 DIIS
  Energy and wave function converged.

  ==> Post-Iterations <==

    Orbital Energies [Eh]
    ---------------------

    Doubly Occupied:

       1A    -20.552905     2A    -11.275220     3A    -11.234983
       4A    -11.227317     5A    -11.226292     6A    -11.224519
       7A    -11.223770     8A    -11.223279     9A    -11.221833
      10A    -11.218307    11A     -1.347918    12A     -1.154659
      13A     -1.041958    14A     -1.010962    15A     -1.001496
      16A     -0.928662    17A     -0.838259    18A     -0.821892
      19A     -0.792583    20A     -0.689041    21A     -0.683415
      22A     -0.630214    23A     -0.623120    24A     -0.619014
      25A     -0.584792    26A     -0.580145    27A     -0.573903
      28A     -0.555471    29A     -0.537954    30A     -0.533008
      31A     -0.520670    32A     -0.486991    33A     -0.480001
      34A     -0.476634    35A     -0.475464    36A     -0.433864
      37A     -0.332008    38A     -0.317645

    Virtual:

      39A      0.140734    40A      0.149640    41A      0.169968
      42A      0.191661    43A      0.209521    44A      0.211392
      45A      0.227708    46A      0.246115    47A      0.251307
      48A      0.259448    49A      0.267101    50A      0.270205
      51A      0.282874    52A      0.290221    53A      0.296979
      54A      0.304392    55A      0.376429    56A      0.377452
      57A      0.386106    58A      0.391550    59A      0.464368
      60A      0.474065    61A      0.487327    62A      0.496836
      63A      0.565886    64A      0.585200    65A      0.601909
      66A      0.612075    67A      0.640256    68A      0.656679
      69A      0.689356    70A      0.691803    71A      0.709716
      72A      0.728050    73A      0.733179    74A      0.737521
      75A      0.743727    76A      0.745652    77A      0.759998
      78A      0.762183    79A      0.771461    80A      0.779631
      81A      0.794308    82A      0.833949    83A      0.849708
      84A      0.861338    85A      0.864066    86A      0.877448
      87A      0.881750    88A      0.887979    89A      0.892872
      90A      0.902172    91A      0.907035    92A      0.912873
      93A      0.923118    94A      0.933143    95A      0.939110
      96A      0.942670    97A      0.946956    98A      0.975446
      99A      1.012941   100A      1.026417   101A      1.056462
     102A      1.112625   103A      1.139918   104A      1.144408
     105A      1.154153   106A      1.159447   107A      1.164707
     108A      1.191266   109A      1.204277   110A      1.243283
     111A      1.252378   112A      1.263514   113A      1.268383
     114A      1.291346   115A      1.303387   116A      1.316522
     117A      1.335348   118A      1.346090   119A      1.369841
     120A      1.375619   121A      1.420771   122A      1.479366
     123A      1.508948   124A      1.525426   125A      1.529109
     126A      1.557998   127A      1.589464   128A      1.624857
     129A      1.652877   130A      1.673744   131A      1.678261
     132A      1.705913   133A      1.743183   134A      1.747646
     135A      1.767826   136A      1.780833   137A      1.796638
     138A      1.819366   139A      1.846497   140A      1.865510
     141A      1.884573   142A      1.895932   143A      1.901969
     144A      1.909135   145A      1.922785   146A      1.928502
     147A      1.929616   148A      1.942931   149A      1.951251
     150A      1.957292   151A      1.967615   152A      1.977273
     153A      1.980005   154A      1.993200   155A      2.001990
     156A      2.011995   157A      2.030730   158A      2.058033
     159A      2.079522   160A      2.084156   161A      2.105674
     162A      2.128593   163A      2.162052   164A      2.167793
     165A      2.184467   166A      2.187369   167A      2.194904
     168A      2.208703   169A      2.238248   170A      2.271370
     171A      2.292653   172A      2.298133   173A      2.304179
     174A      2.308191   175A      2.329430   176A      2.349540
     177A      2.361469   178A      2.433134   179A      2.476396
     180A      2.484261   181A      2.498566   182A      2.504488
     183A      2.539686   184A      2.558540   185A      2.566171
     186A      2.632817   187A      2.746991   188A      2.754410
     189A      2.768408   190A      2.772360   191A      2.779934
     192A      2.806128   193A      2.810655   194A      2.827622
     195A      2.856108   196A      2.863756   197A      2.890109
     198A      2.932935   199A      3.015716   200A      3.035353
     201A      3.044048   202A      3.178261   203A      3.230439
     204A      3.325719   205A      3.332912   206A      3.376594
     207A      3.462286   208A      3.609849   209A      4.017158
     210A      4.095919

    Final Occupation by Irrep:
              A
    DOCC [    38 ]

  @RHF Final Energy:  -423.84912773789279

   => Energetics <=

    Nuclear Repulsion Energy =            487.6766493722532232
    One-Electron Energy =               -1541.6512182991050395
    Two-Electron Energy =                 630.1254411889590301
    Total Energy =                       -423.8491277378927862

Computation Completed

Properties will be evaluated at   0.000000,   0.000000,   0.000000 [a0]

Properties computed using the SCF density matrix

  Nuclear Dipole Moment: [e a0]
     X:     6.9936      Y:     1.7525      Z:     2.0483

  Electronic Dipole Moment: [e a0]
     X:    -6.5866      Y:    -1.8370      Z:    -1.4930

  Dipole Moment: [e a0]
     X:     0.4070      Y:    -0.0845      Z:     0.5553     Total:     0.6936

  Dipole Moment: [D]
     X:     1.0345      Y:    -0.2148      Z:     1.4113     Total:     1.7630

*** tstop() called on ds3 at Mon Apr 27 16:28:29 2020
Module time:
	user time   =      86.83 seconds =       1.45 minutes
	system time =      43.31 seconds =       0.72 minutes
	total time  =        134 seconds =       2.23 minutes
Total time:
	user time   =      86.83 seconds =       1.45 minutes
	system time =      43.31 seconds =       0.72 minutes
	total time  =        134 seconds =       2.23 minutes
                                     G D M A

                                 by Anthony Stone

                           version 2.2.06, 22 June 2011

               Distributed Multipoles from Gaussian wavefunctions

Starting at 16:28:29 on 27 Apr 2020

Using SCF density matrix from file ./SSI/SSI-027PHE-069SER-1-dimer.test.26819.fchk

                         Distributed Multipole Analysis

Standard DMA

Positions and radii in angstrom
Multipole moments in atomic units, ea_0^k for rank k

C          x = -2.361345  y =  0.555889  z =  2.977817 angstrom
           Maximum rank =  0   Radius =  0.650 angstrom
                   Q00  =  -0.201648

C          x = -0.879345  y = -0.220111  z = -0.971183 angstrom
           Maximum rank =  0   Radius =  0.650 angstrom
                   Q00  =  -0.068749

C          x = -0.605345  y = -1.103111  z =  0.068817 angstrom
           Maximum rank =  0   Radius =  0.650 angstrom
                   Q00  =  -0.015588

C          x = -1.638345  y =  0.880889  z = -0.742183 angstrom
           Maximum rank =  0   Radius =  0.650 angstrom
                   Q00  =  -0.073301

C          x = -1.084345  y = -0.864111  z =  1.335817 angstrom
           Maximum rank =  0   Radius =  0.650 angstrom
                   Q00  =  -0.084961

C          x = -2.134345  y =  1.123889  z =  0.527817 angstrom
           Maximum rank =  0   Radius =  0.650 angstrom
                   Q00  =  -0.024457

C          x = -1.843345  y =  0.264889  z =  1.584817 angstrom
           Maximum rank =  0   Radius =  0.650 angstrom
                   Q00  =  -0.113739

H          x = -0.493345  y = -0.413111  z = -1.962183 angstrom
           Maximum rank =  0   Radius =  0.325 angstrom
                   Q00  =   0.066748

H          x = -0.003345  y = -1.975111  z = -0.122183 angstrom
           Maximum rank =  0   Radius =  0.325 angstrom
                   Q00  =   0.052868

H          x = -1.878345  y =  1.544889  z = -1.555183 angstrom
           Maximum rank =  0   Radius =  0.325 angstrom
                   Q00  =   0.057879

H          x = -0.857345  y = -1.556111  z =  2.135817 angstrom
           Maximum rank =  0   Radius =  0.325 angstrom
                   Q00  =   0.050868

H          x = -2.744345  y =  1.997889  z =  0.693817 angstrom
           Maximum rank =  0   Radius =  0.325 angstrom
                   Q00  =   0.051633

H          x = -2.351345  y =  1.632889  z =  3.144817 angstrom
           Maximum rank =  0   Radius =  0.325 angstrom
                   Q00  =   0.098741

H          x = -1.682345  y =  0.108889  z =  3.703817 angstrom
           Maximum rank =  0   Radius =  0.325 angstrom
                   Q00  =   0.095300

H          x = -3.373455  y =  0.164780  z =  3.158551 angstrom
           Maximum rank =  0   Radius =  0.325 angstrom
                   Q00  =   0.104713

C          x =  2.697655  y =  0.008889  z = -1.016183 angstrom
           Maximum rank =  0   Radius =  0.650 angstrom
                   Q00  =   0.094844

C          x =  4.156655  y =  0.453889  z = -1.265183 angstrom
           Maximum rank =  0   Radius =  0.650 angstrom
                   Q00  =  -0.259595

O          x =  2.300655  y = -0.944111  z = -2.014183 angstrom
           Maximum rank =  0   Radius =  0.650 angstrom
                   Q00  =  -0.601226

H          x =  2.602655  y = -0.427111  z = -0.021183 angstrom
           Maximum rank =  0   Radius =  0.325 angstrom
                   Q00  =   0.042712

H          x =  2.039655  y =  0.876889  z = -1.082183 angstrom
           Maximum rank =  0   Radius =  0.325 angstrom
                   Q00  =   0.092821

H          x =  4.202655  y =  0.750889  z = -2.313183 angstrom
           Maximum rank =  0   Radius =  0.325 angstrom
                   Q00  =   0.090434

H          x =  2.717655  y = -1.784111  z = -1.772183 angstrom
           Maximum rank =  0   Radius =  0.325 angstrom
                   Q00  =   0.380803

H          x =  4.835245  y = -0.399456  z = -1.119176 angstrom
           Maximum rank =  0   Radius =  0.325 angstrom
                   Q00  =   0.076186

H          x =  4.434255  y =  1.352144  z = -0.694154 angstrom
           Maximum rank =  0   Radius =  0.325 angstrom
                   Q00  =   0.086714

Total multipoles referred to origin at
           x =   0.000000,  y =    0.000000,  z =    0.000000 angstrom
                   Q00  =  -0.000000

Finished at 16:28:29 on 27 Apr 2020

  DMA results are available in the Python driver through the
	  variable('DMA DISTRIBUTED MULTIPOLES')
  and
	  variable('DMA TOTAL MULTIPOLES')
  commands.

    Psi4 stopped on: Monday, 27 April 2020 04:28PM
    Psi4 wall time for execution: 0:02:14.21

*** Psi4 exiting successfully. Buy a developer a beer!
