                               Psi4 1.3.2 release

  ==> Input File <==

--------------------------------------------------------------------------
import numpy as np
set {scf_type pk
basis cc-pvdz
d_convergence 10
gdma_switch   0
gdma_limit    0
gdma_origin   [ 0.0,  0.0,  0.0 ]
}
molecule test {
    units Angstrom
    0 1
    --
    0 1
    C               -2.478377386446013    -1.691726649820600    -0.597773524422787
    C               -2.125377386446013     0.767273350179400    -0.731773524422787
    C               -2.495377386446013    -0.419726649820600    -1.366773524422787
    C               -2.176377386446013     1.979273350179400    -1.422773524422787
    C               -2.594377386446014     1.997273350179400    -2.757773524422787
    C               -2.913377386446014    -0.404726649820600    -2.699773524422787
    C               -2.963377386446013     0.808273350179400    -3.398773524422787
    H               -1.801377386446013     0.742273350179400     0.300226475577213
    H               -1.897377386446013     2.901273350179399    -0.929773524422787
    H               -1.519377386446013    -1.740726649820600    -0.089773524422787
    H               -2.540377386446013    -2.502726649820600    -1.323773524422787
    H               -2.631377386446013     2.933273350179399    -3.293773524422787
    H               -3.201377386446013    -1.326726649820600    -3.189773524422787
    H               -3.287377386446013     0.826273350179400    -4.430773524422787
    H               -3.276295386446013    -1.766216649820600     0.155736475577213
    C                2.139622613553987     1.815273350179399    -0.462773524422787
    C                1.165622613553987    -0.312726649820600     0.543226475577213
    C                2.156622613553986     0.684273350179400     0.551226475577213
    C                1.155622613553987    -1.324726649820601     1.538226475577213
    C                2.161622613553987    -1.334726649820601     2.527226475577212
    C                3.147622613553987     0.652273350179400     1.535226475577213
    C                3.153622613553987    -0.342726649820600     2.512226475577213
    O                2.225622613553987    -2.286726649820600     3.517226475577213
    H                0.407622613553987    -0.300726649820600    -0.230773524422787
    H                0.386622613553987    -2.086726649820601     1.551226475577213
    H                1.909622613553987     1.405273350179400    -1.445773524422787
    H                3.125622613553987     2.282273350179400    -0.493773524422787
    H                3.915622613553987     1.409273350179400     1.535226475577213
    H                1.512622613553987    -2.942726649820600     3.466226475577213
    H                3.928622613553987    -0.352726649820600     3.266226475577213
    H                1.393312613553987     2.605143350179400    -0.292083524422787

}
e, wfn = energy('scf', return_wfn=True)
gdma(wfn)
dmavals = variable('DMA DISTRIBUTED MULTIPOLES')
charges = np.array(dmavals)
print(charges)
np.save('SSI-005PHE-043TYR-1-dimer.npy', np.array(charges))--------------------------------------------------------------------------

*** tstart() called on ds3
*** at Mon Apr 27 17:02:57 2020

   => Loading Basis Set <=

    Name: CC-PVDZ
    Role: ORBITAL
    Keyword: BASIS
    atoms 1-7, 16-22  entry C          line   138 file /theoryfs2/ds/metcalf/miniconda2/envs/tf2gpu/share/psi4/basis/cc-pvdz.gbs
    atoms 8-15, 24-31 entry H          line    22 file /theoryfs2/ds/metcalf/miniconda2/envs/tf2gpu/share/psi4/basis/cc-pvdz.gbs
    atoms 23          entry O          line   198 file /theoryfs2/ds/metcalf/miniconda2/envs/tf2gpu/share/psi4/basis/cc-pvdz.gbs

         ---------------------------------------------------------
                                   SCF
               by Justin Turney, Rob Parrish, Andy Simmonett
                          and Daniel G. A. Smith
                              RHF Reference
                        1 Threads,    500 MiB Core
         ---------------------------------------------------------

  ==> Geometry <==

    Molecular point group: c1
    Full point group: C1

    Geometry (in Angstrom), charge = 0, multiplicity = 1:

       Center              X                  Y                   Z               Mass
    ------------   -----------------  -----------------  -----------------  -----------------
         C           -2.478377386446    -1.691726649821    -0.597773524423    12.000000000000
         C           -2.125377386446     0.767273350179    -0.731773524423    12.000000000000
         C           -2.495377386446    -0.419726649821    -1.366773524423    12.000000000000
         C           -2.176377386446     1.979273350179    -1.422773524423    12.000000000000
         C           -2.594377386446     1.997273350179    -2.757773524423    12.000000000000
         C           -2.913377386446    -0.404726649821    -2.699773524423    12.000000000000
         C           -2.963377386446     0.808273350179    -3.398773524423    12.000000000000
         H           -1.801377386446     0.742273350179     0.300226475577     1.007825032230
         H           -1.897377386446     2.901273350179    -0.929773524423     1.007825032230
         H           -1.519377386446    -1.740726649821    -0.089773524423     1.007825032230
         H           -2.540377386446    -2.502726649821    -1.323773524423     1.007825032230
         H           -2.631377386446     2.933273350179    -3.293773524423     1.007825032230
         H           -3.201377386446    -1.326726649821    -3.189773524423     1.007825032230
         H           -3.287377386446     0.826273350179    -4.430773524423     1.007825032230
         H           -3.276295386446    -1.766216649821     0.155736475577     1.007825032230
         C            2.139622613554     1.815273350179    -0.462773524423    12.000000000000
         C            1.165622613554    -0.312726649821     0.543226475577    12.000000000000
         C            2.156622613554     0.684273350179     0.551226475577    12.000000000000
         C            1.155622613554    -1.324726649821     1.538226475577    12.000000000000
         C            2.161622613554    -1.334726649821     2.527226475577    12.000000000000
         C            3.147622613554     0.652273350179     1.535226475577    12.000000000000
         C            3.153622613554    -0.342726649821     2.512226475577    12.000000000000
         O            2.225622613554    -2.286726649821     3.517226475577    15.994914619570
         H            0.407622613554    -0.300726649821    -0.230773524423     1.007825032230
         H            0.386622613554    -2.086726649821     1.551226475577     1.007825032230
         H            1.909622613554     1.405273350179    -1.445773524423     1.007825032230
         H            3.125622613554     2.282273350179    -0.493773524423     1.007825032230
         H            3.915622613554     1.409273350179     1.535226475577     1.007825032230
         H            1.512622613554    -2.942726649821     3.466226475577     1.007825032230
         H            3.928622613554    -0.352726649821     3.266226475577     1.007825032230
         H            1.393312613554     2.605143350179    -0.292083524423     1.007825032230

  Running in c1 symmetry.

  Rotational constants: A =      0.03520  B =      0.00844  C =      0.00712 [cm^-1]
  Rotational constants: A =   1055.13632  B =    253.05128  C =    213.33708 [MHz]
  Nuclear repulsion =  869.892589310340668

  Charge       = 0
  Multiplicity = 1
  Electrons    = 108
  Nalpha       = 54
  Nbeta        = 54

  ==> Algorithm <==

  SCF Algorithm Type is PK.
  DIIS enabled.
  MOM disabled.
  Fractional occupation disabled.
  Guess Type is SAD.
  Energy threshold   = 1.00e-06
  Density threshold  = 1.00e-10
  Integral threshold = 0.00e+00

  ==> Primary Basis <==

  Basis Set: CC-PVDZ
    Blend: CC-PVDZ
    Number of shells: 138
    Number of basis function: 290
    Number of Cartesian functions: 305
    Spherical Harmonics?: true
    Max angular momentum: 2

  ==> Pre-Iterations <==

   -------------------------------------------------------
    Irrep   Nso     Nmo     Nalpha   Nbeta   Ndocc  Nsocc
   -------------------------------------------------------
     A        290     290       0       0       0       0
   -------------------------------------------------------
    Total     290     290      54      54      54       0
   -------------------------------------------------------

  ==> Integral Setup <==

  Using integral reordering PK algorithm.
  Sizing the integral batches needed.
  Building batch lookup table.
   Calculation information:
      Number of atoms:                  31
      Number of AO shells:             138
      Number of primitives:            410
      Number of atomic orbitals:       305
      Number of basis functions:       290

      Integral cutoff                 1.00e-12
      Number of threads:                 1

	Batch   1 pq = [       0,    9405] index = [             0,44231715] size =     44231715
	Batch   2 pq = [    9405,   13301] index = [      44231715,88464951] size =     44233236
	Batch   3 pq = [   13301,   16290] index = [      88464951,132690195] size =     44225244
	Batch   4 pq = [   16290,   18810] index = [     132690195,176917455] size =     44227260
	Batch   5 pq = [   18810,   21030] index = [     176917455,221140965] size =     44223510
	Batch   6 pq = [   21030,   23037] index = [     221140965,265363203] size =     44222238
	Batch   7 pq = [   23037,   24883] index = [     265363203,309594286] size =     44231083
	Batch   8 pq = [   24883,   26601] index = [     309594286,353819901] size =     44225615
	Batch   9 pq = [   26601,   28214] index = [     353819901,398029005] size =     44209104
	Batch  10 pq = [   28214,   29740] index = [     398029005,442248670] size =     44219665
	Batch  11 pq = [   29740,   31191] index = [     442248670,486454836] size =     44206166
	Batch  12 pq = [   31191,   32578] index = [     486454836,530679331] size =     44224495
	Batch  13 pq = [   32578,   33908] index = [     530679331,574893186] size =     44213855
	Batch  14 pq = [   33908,   35188] index = [     574893186,619115266] size =     44222080
	Batch  15 pq = [   35188,   36423] index = [     619115266,663335676] size =     44220410
	Batch  16 pq = [   36423,   37617] index = [     663335676,707538153] size =     44202477
	Batch  17 pq = [   37617,   38775] index = [     707538153,751769700] size =     44231547
	Batch  18 pq = [   38775,   39899] index = [     751769700,795985050] size =     44215350
	Batch  19 pq = [   39899,   40992] index = [     795985050,840192528] size =     44207478
	Batch  20 pq = [   40992,   42057] index = [     840192528,884416653] size =     44224125
	Batch  21 pq = [   42057,   42195] index = [     884416653,890230110] size =      5813457
  Task number: 81
  Buffer size: 11059200
  Buffer per thread: 2
  We computed 41668786 shell quartets total.
  Whereas there are 45998436 unique shell quartets.

  ==> DiskJK: Disk-Based J/K Matrices <==

    J tasked:                  Yes
    K tasked:                  Yes
    wK tasked:                  No
    Memory [MiB]:              375
    Schwarz Cutoff:          1E-12

    OpenMP threads:              1

  Minimum eigenvalue in the overlap matrix is 3.1921834995E-04.
  Using Symmetric Orthogonalization.

  SCF Guess: Superposition of Atomic Densities via on-the-fly atomic UHF.

  ==> Iterations <==

                        Total Energy        Delta E     RMS |[F,P]|

   @RHF iter SAD:  -613.01127283597941   -6.13011e+02   0.00000e+00
   @RHF iter   1:  -614.05995324355615   -1.04868e+00   2.35816e-03 DIIS
   @RHF iter   2:  -614.33229812393074   -2.72345e-01   9.87491e-04 DIIS
   @RHF iter   3:  -614.37402889236841   -4.17308e-02   2.42155e-04 DIIS
   @RHF iter   4:  -614.37775082195583   -3.72193e-03   9.68644e-05 DIIS
   @RHF iter   5:  -614.37821549536125   -4.64673e-04   1.69840e-05 DIIS
   @RHF iter   6:  -614.37823690622793   -2.14109e-05   5.80535e-06 DIIS
   @RHF iter   7:  -614.37823940753037   -2.50130e-06   1.78433e-06 DIIS
   @RHF iter   8:  -614.37823976096047   -3.53430e-07   7.16600e-07 DIIS
   @RHF iter   9:  -614.37823982500277   -6.40423e-08   3.07496e-07 DIIS
   @RHF iter  10:  -614.37823983937255   -1.43698e-08   1.32003e-07 DIIS
   @RHF iter  11:  -614.37823984382715   -4.45459e-09   5.75187e-08 DIIS
   @RHF iter  12:  -614.37823984458703   -7.59883e-10   2.71062e-08 DIIS
   @RHF iter  13:  -614.37823984470867   -1.21645e-10   7.52571e-09 DIIS
   @RHF iter  14:  -614.37823984472186   -1.31877e-11   2.40250e-09 DIIS
   @RHF iter  15:  -614.37823984471811    3.75167e-12   9.03274e-10 DIIS
   @RHF iter  16:  -614.37823984471936   -1.25056e-12   4.23675e-10 DIIS
   @RHF iter  17:  -614.37823984472175   -2.38742e-12   2.15320e-10 DIIS
   @RHF iter  18:  -614.37823984471993    1.81899e-12   8.77737e-11 DIIS
  Energy and wave function converged.

  ==> Post-Iterations <==

    Orbital Energies [Eh]
    ---------------------

    Doubly Occupied:

       1A    -20.584568     2A    -11.303856     3A    -11.242780
       4A    -11.242382     5A    -11.241247     6A    -11.240893
       7A    -11.240298     8A    -11.237290     9A    -11.235990
      10A    -11.235860    11A    -11.235157    12A    -11.233742
      13A    -11.231443    14A    -11.230702    15A    -11.226073
      16A     -1.392309    17A     -1.154081    18A     -1.142652
      19A     -1.049957    20A     -1.031366    21A     -1.013941
      22A     -1.011586    23A     -0.933754    24A     -0.922833
      25A     -0.841346    26A     -0.828790    27A     -0.799186
      28A     -0.795799    29A     -0.727674    30A     -0.692240
      31A     -0.660550    32A     -0.640030    33A     -0.635547
      34A     -0.635062    35A     -0.607611    36A     -0.590541
      37A     -0.586514    38A     -0.580492    39A     -0.576690
      40A     -0.565691    41A     -0.563844    42A     -0.559047
      43A     -0.540644    44A     -0.526140    45A     -0.496214
      46A     -0.490412    47A     -0.488470    48A     -0.483739
      49A     -0.481974    50A     -0.461787    51A     -0.336382
      52A     -0.333436    53A     -0.323224    54A     -0.299838

    Virtual:

      55A      0.124343    56A      0.131651    57A      0.136728
      58A      0.152188    59A      0.174486    60A      0.178883
      61A      0.191825    62A      0.197588    63A      0.213658
      64A      0.223094    65A      0.239319    66A      0.247403
      67A      0.253409    68A      0.258528    69A      0.264481
      70A      0.281872    71A      0.291160    72A      0.299675
      73A      0.304507    74A      0.327857    75A      0.355776
      76A      0.372097    77A      0.378333    78A      0.402220
      79A      0.426326    80A      0.445041    81A      0.454886
      82A      0.463746    83A      0.473365    84A      0.492599
      85A      0.496505    86A      0.507503    87A      0.521418
      88A      0.571548    89A      0.588904    90A      0.612095
      91A      0.630443    92A      0.635822    93A      0.642721
      94A      0.653915    95A      0.669314    96A      0.690001
      97A      0.694308    98A      0.697050    99A      0.701592
     100A      0.707911   101A      0.712957   102A      0.729949
     103A      0.734203   104A      0.737129   105A      0.739544
     106A      0.741644   107A      0.746716   108A      0.760848
     109A      0.767759   110A      0.775382   111A      0.778338
     112A      0.779402   113A      0.782729   114A      0.793148
     115A      0.811044   116A      0.825709   117A      0.840722
     118A      0.846760   119A      0.853307   120A      0.861902
     121A      0.863070   122A      0.874713   123A      0.884107
     124A      0.886309   125A      0.889555   126A      0.895903
     127A      0.903289   128A      0.907625   129A      0.918290
     130A      0.920045   131A      0.928378   132A      0.932791
     133A      0.962304   134A      0.967006   135A      0.978079
     136A      0.992844   137A      1.000244   138A      1.013764
     139A      1.039606   140A      1.061572   141A      1.070176
     142A      1.081501   143A      1.113710   144A      1.124426
     145A      1.132458   146A      1.143472   147A      1.145299
     148A      1.158993   149A      1.166869   150A      1.195011
     151A      1.198475   152A      1.204900   153A      1.223851
     154A      1.235135   155A      1.242379   156A      1.247772
     157A      1.249519   158A      1.265332   159A      1.271706
     160A      1.280436   161A      1.285423   162A      1.295349
     163A      1.302951   164A      1.311258   165A      1.314734
     166A      1.320970   167A      1.351380   168A      1.354772
     169A      1.367665   170A      1.382481   171A      1.431558
     172A      1.489912   173A      1.500966   174A      1.508032
     175A      1.539065   176A      1.550238   177A      1.555664
     178A      1.574437   179A      1.608744   180A      1.619204
     181A      1.632057   182A      1.677959   183A      1.692012
     184A      1.700757   185A      1.707304   186A      1.721479
     187A      1.736574   188A      1.738333   189A      1.744424
     190A      1.758188   191A      1.773947   192A      1.791827
     193A      1.799647   194A      1.805660   195A      1.811170
     196A      1.851173   197A      1.867965   198A      1.871330
     199A      1.873448   200A      1.883880   201A      1.894813
     202A      1.906572   203A      1.910169   204A      1.915519
     205A      1.918726   206A      1.922633   207A      1.932560
     208A      1.940571   209A      1.941997   210A      1.947931
     211A      1.958922   212A      1.965970   213A      1.979265
     214A      1.993287   215A      1.996515   216A      2.008640
     217A      2.030108   218A      2.031645   219A      2.041506
     220A      2.048709   221A      2.055041   222A      2.060582
     223A      2.068535   224A      2.075430   225A      2.111523
     226A      2.128570   227A      2.136722   228A      2.140471
     229A      2.147412   230A      2.150415   231A      2.164645
     232A      2.180445   233A      2.199904   234A      2.210756
     235A      2.220696   236A      2.228391   237A      2.254984
     238A      2.270451   239A      2.276206   240A      2.297309
     241A      2.304146   242A      2.315141   243A      2.322482
     244A      2.340409   245A      2.345493   246A      2.366979
     247A      2.409314   248A      2.440176   249A      2.455105
     250A      2.472369   251A      2.483777   252A      2.493049
     253A      2.520380   254A      2.520925   255A      2.538670
     256A      2.544687   257A      2.593725   258A      2.613228
     259A      2.621711   260A      2.733929   261A      2.740520
     262A      2.751136   263A      2.771840   264A      2.779571
     265A      2.784961   266A      2.790903   267A      2.801550
     268A      2.818824   269A      2.850105   270A      2.857654
     271A      2.881508   272A      2.897352   273A      2.938858
     274A      2.966084   275A      2.994829   276A      3.002996
     277A      3.022308   278A      3.063625   279A      3.110504
     280A      3.142049   281A      3.189787   282A      3.230370
     283A      3.268959   284A      3.288157   285A      3.341051
     286A      3.545937   287A      3.650945   288A      3.927284
     289A      3.954734   290A      4.179917

    Final Occupation by Irrep:
              A
    DOCC [    54 ]

  @RHF Final Energy:  -614.37823984471993

   => Energetics <=

    Nuclear Repulsion Energy =            869.8925893103406679
    One-Electron Energy =               -2559.0143088991849254
    Two-Electron Energy =                1074.7434797441244427
    Total Energy =                       -614.3782398447199284

Computation Completed

Properties will be evaluated at   0.000000,   0.000000,   0.000000 [a0]

Properties computed using the SCF density matrix

  Nuclear Dipole Moment: [e a0]
     X:    -3.3410      Y:     1.9443      Z:    -5.0878

  Electronic Dipole Moment: [e a0]
     X:     2.8387      Y:    -2.0973      Z:     4.7840

  Dipole Moment: [e a0]
     X:    -0.5023      Y:    -0.1530      Z:    -0.3038     Total:     0.6067

  Dipole Moment: [D]
     X:    -1.2768      Y:    -0.3888      Z:    -0.7722     Total:     1.5420

*** tstop() called on ds3 at Mon Apr 27 17:15:28 2020
Module time:
	user time   =     358.80 seconds =       5.98 minutes
	system time =     145.91 seconds =       2.43 minutes
	total time  =        751 seconds =      12.52 minutes
Total time:
	user time   =     358.80 seconds =       5.98 minutes
	system time =     145.91 seconds =       2.43 minutes
	total time  =        751 seconds =      12.52 minutes
                                     G D M A

                                 by Anthony Stone

                           version 2.2.06, 22 June 2011

               Distributed Multipoles from Gaussian wavefunctions

Starting at 17:15:29 on 27 Apr 2020

Using SCF density matrix from file ./SSI/SSI-005PHE-043TYR-1-dimer.test.3103.fchk

                         Distributed Multipole Analysis

Standard DMA

Positions and radii in angstrom
Multipole moments in atomic units, ea_0^k for rank k

C          x = -2.478377  y = -1.691727  z = -0.597774 angstrom
           Maximum rank =  0   Radius =  0.650 angstrom
                   Q00  =  -0.181769

C          x = -2.125377  y =  0.767273  z = -0.731774 angstrom
           Maximum rank =  0   Radius =  0.650 angstrom
                   Q00  =  -0.101063

C          x = -2.495377  y = -0.419727  z = -1.366774 angstrom
           Maximum rank =  0   Radius =  0.650 angstrom
                   Q00  =  -0.056093

C          x = -2.176377  y =  1.979273  z = -1.422774 angstrom
           Maximum rank =  0   Radius =  0.650 angstrom
                   Q00  =  -0.069836

C          x = -2.594377  y =  1.997273  z = -2.757774 angstrom
           Maximum rank =  0   Radius =  0.650 angstrom
                   Q00  =  -0.044026

C          x = -2.913377  y = -0.404727  z = -2.699774 angstrom
           Maximum rank =  0   Radius =  0.650 angstrom
                   Q00  =  -0.084721

C          x = -2.963377  y =  0.808273  z = -3.398774 angstrom
           Maximum rank =  0   Radius =  0.650 angstrom
                   Q00  =  -0.076033

H          x = -1.801377  y =  0.742273  z =  0.300226 angstrom
           Maximum rank =  0   Radius =  0.325 angstrom
                   Q00  =   0.061029

H          x = -1.897377  y =  2.901273  z = -0.929774 angstrom
           Maximum rank =  0   Radius =  0.325 angstrom
                   Q00  =   0.068778

H          x = -1.519377  y = -1.740727  z = -0.089774 angstrom
           Maximum rank =  0   Radius =  0.325 angstrom
                   Q00  =   0.088906

H          x = -2.540377  y = -2.502727  z = -1.323774 angstrom
           Maximum rank =  0   Radius =  0.325 angstrom
                   Q00  =   0.095450

H          x = -2.631377  y =  2.933273  z = -3.293774 angstrom
           Maximum rank =  0   Radius =  0.325 angstrom
                   Q00  =   0.063407

H          x = -3.201377  y = -1.326727  z = -3.189774 angstrom
           Maximum rank =  0   Radius =  0.325 angstrom
                   Q00  =   0.061708

H          x = -3.287377  y =  0.826273  z = -4.430774 angstrom
           Maximum rank =  0   Radius =  0.325 angstrom
                   Q00  =   0.068698

H          x = -3.276295  y = -1.766217  z =  0.155736 angstrom
           Maximum rank =  0   Radius =  0.325 angstrom
                   Q00  =   0.105445

C          x =  2.139623  y =  1.815273  z = -0.462774 angstrom
           Maximum rank =  0   Radius =  0.650 angstrom
                   Q00  =  -0.203968

C          x =  1.165623  y = -0.312727  z =  0.543226 angstrom
           Maximum rank =  0   Radius =  0.650 angstrom
                   Q00  =  -0.077186

C          x =  2.156623  y =  0.684273  z =  0.551226 angstrom
           Maximum rank =  0   Radius =  0.650 angstrom
                   Q00  =  -0.125568

C          x =  1.155623  y = -1.324727  z =  1.538226 angstrom
           Maximum rank =  0   Radius =  0.650 angstrom
                   Q00  =  -0.200383

C          x =  2.161623  y = -1.334727  z =  2.527226 angstrom
           Maximum rank =  0   Radius =  0.650 angstrom
                   Q00  =   0.307945

C          x =  3.147623  y =  0.652273  z =  1.535226 angstrom
           Maximum rank =  0   Radius =  0.650 angstrom
                   Q00  =   0.031282

C          x =  3.153623  y = -0.342727  z =  2.512226 angstrom
           Maximum rank =  0   Radius =  0.650 angstrom
                   Q00  =  -0.057448

O          x =  2.225623  y = -2.286727  z =  3.517226 angstrom
           Maximum rank =  0   Radius =  0.650 angstrom
                   Q00  =  -0.678695

H          x =  0.407623  y = -0.300727  z = -0.230774 angstrom
           Maximum rank =  0   Radius =  0.325 angstrom
                   Q00  =   0.080627

H          x =  0.386623  y = -2.086727  z =  1.551226 angstrom
           Maximum rank =  0   Radius =  0.325 angstrom
                   Q00  =   0.074282

H          x =  1.909623  y =  1.405273  z = -1.445774 angstrom
           Maximum rank =  0   Radius =  0.325 angstrom
                   Q00  =   0.101287

H          x =  3.125623  y =  2.282273  z = -0.493774 angstrom
           Maximum rank =  0   Radius =  0.325 angstrom
                   Q00  =   0.093939

H          x =  3.915623  y =  1.409273  z =  1.535226 angstrom
           Maximum rank =  0   Radius =  0.325 angstrom
                   Q00  =   0.065041

H          x =  1.512623  y = -2.942727  z =  3.466226 angstrom
           Maximum rank =  0   Radius =  0.325 angstrom
                   Q00  =   0.408682

H          x =  3.928623  y = -0.352727  z =  3.266226 angstrom
           Maximum rank =  0   Radius =  0.325 angstrom
                   Q00  =   0.081320

H          x =  1.393313  y =  2.605143  z = -0.292084 angstrom
           Maximum rank =  0   Radius =  0.325 angstrom
                   Q00  =   0.098964

Total multipoles referred to origin at
           x =   0.000000,  y =    0.000000,  z =    0.000000 angstrom
                   Q00  =  -0.000000

Finished at 17:15:29 on 27 Apr 2020

  DMA results are available in the Python driver through the
	  variable('DMA DISTRIBUTED MULTIPOLES')
  and
	  variable('DMA TOTAL MULTIPOLES')
  commands.

    Psi4 stopped on: Monday, 27 April 2020 05:15PM
    Psi4 wall time for execution: 0:12:32.22

*** Psi4 exiting successfully. Buy a developer a beer!
