                               Psi4 1.3.2 release

  ==> Input File <==

--------------------------------------------------------------------------
import numpy as np
set {scf_type pk
basis cc-pvdz
d_convergence 10
gdma_switch   0
gdma_limit    0
gdma_origin   [ 0.0,  0.0,  0.0 ]
}
molecule test {
    units Angstrom
    -1 1
    --
    -1 1
    C                0.333202435182620    -0.282638766364932     2.418824357750465
    C                1.385202435182620    -1.319638766364932     2.774824357750465
    H                0.735202435182620     0.432361233635068     1.707824357750464
    H               -0.536797564817380    -0.777638766364932     1.982824357750465
    H                0.021202435182620     0.266361233635068     3.300824357750464
    H                0.896202435182620    -2.069638766364932     3.394824357750465
    H                2.182875435182620    -0.827598766364932     3.350684357750465
    H                1.782803435182620    -1.821568766364932     1.880405357750464
    C                0.740202435182620     0.366361233635068    -0.997175642249536
    C                0.958202435182620     0.693361233635068    -2.464175642249535
    C               -0.745797564817380     0.224361233635068    -0.687175642249536
    O               -1.321797564817380     1.196361233635068    -0.148175642249536
    O               -1.339797564817380    -0.837638766364932    -1.008175642249536
    H                1.234202435182620    -0.582638766364933    -0.792175642249536
    H                1.204202435182620     1.131361233635068    -0.377175642249536
    H                0.723202435182620     1.748361233635068    -2.611175642249536
    H                0.241202435182620     0.117361233635068    -3.049175642249535
    H                1.953863435182620     0.478771233635068    -2.879636642249535

}
e, wfn = energy('scf', return_wfn=True)
gdma(wfn)
dmavals = variable('DMA DISTRIBUTED MULTIPOLES')
charges = np.array(dmavals)
print(charges)
np.save('SSI-026VAL-041GLU-1-dimer.npy', np.array(charges))--------------------------------------------------------------------------

*** tstart() called on ds3
*** at Tue Apr 28 11:43:09 2020

   => Loading Basis Set <=

    Name: CC-PVDZ
    Role: ORBITAL
    Keyword: BASIS
    atoms 1-2, 9-11  entry C          line   138 file /theoryfs2/ds/metcalf/miniconda2/envs/tf2gpu/share/psi4/basis/cc-pvdz.gbs
    atoms 3-8, 14-18 entry H          line    22 file /theoryfs2/ds/metcalf/miniconda2/envs/tf2gpu/share/psi4/basis/cc-pvdz.gbs
    atoms 12-13      entry O          line   198 file /theoryfs2/ds/metcalf/miniconda2/envs/tf2gpu/share/psi4/basis/cc-pvdz.gbs

         ---------------------------------------------------------
                                   SCF
               by Justin Turney, Rob Parrish, Andy Simmonett
                          and Daniel G. A. Smith
                              RHF Reference
                        1 Threads,    500 MiB Core
         ---------------------------------------------------------

  ==> Geometry <==

    Molecular point group: c1
    Full point group: C1

    Geometry (in Angstrom), charge = -1, multiplicity = 1:

       Center              X                  Y                   Z               Mass
    ------------   -----------------  -----------------  -----------------  -----------------
         C            0.333202435183    -0.282638766365     2.418824357750    12.000000000000
         C            1.385202435183    -1.319638766365     2.774824357750    12.000000000000
         H            0.735202435183     0.432361233635     1.707824357750     1.007825032230
         H           -0.536797564817    -0.777638766365     1.982824357750     1.007825032230
         H            0.021202435183     0.266361233635     3.300824357750     1.007825032230
         H            0.896202435183    -2.069638766365     3.394824357750     1.007825032230
         H            2.182875435183    -0.827598766365     3.350684357750     1.007825032230
         H            1.782803435183    -1.821568766365     1.880405357750     1.007825032230
         C            0.740202435183     0.366361233635    -0.997175642250    12.000000000000
         C            0.958202435183     0.693361233635    -2.464175642250    12.000000000000
         C           -0.745797564817     0.224361233635    -0.687175642250    12.000000000000
         O           -1.321797564817     1.196361233635    -0.148175642250    15.994914619570
         O           -1.339797564817    -0.837638766365    -1.008175642250    15.994914619570
         H            1.234202435183    -0.582638766365    -0.792175642250     1.007825032230
         H            1.204202435183     1.131361233635    -0.377175642250     1.007825032230
         H            0.723202435183     1.748361233635    -2.611175642250     1.007825032230
         H            0.241202435183     0.117361233635    -3.049175642250     1.007825032230
         H            1.953863435183     0.478771233635    -2.879636642250     1.007825032230

  Running in c1 symmetry.

  Rotational constants: A =      0.10511  B =      0.03921  C =      0.03444 [cm^-1]
  Rotational constants: A =   3151.21385  B =   1175.44194  C =   1032.38371 [MHz]
  Nuclear repulsion =  300.213424365175456

  Charge       = -1
  Multiplicity = 1
  Electrons    = 58
  Nalpha       = 29
  Nbeta        = 29

  ==> Algorithm <==

  SCF Algorithm Type is PK.
  DIIS enabled.
  MOM disabled.
  Fractional occupation disabled.
  Guess Type is SAD.
  Energy threshold   = 1.00e-06
  Density threshold  = 1.00e-10
  Integral threshold = 0.00e+00

  ==> Primary Basis <==

  Basis Set: CC-PVDZ
    Blend: CC-PVDZ
    Number of shells: 75
    Number of basis function: 153
    Number of Cartesian functions: 160
    Spherical Harmonics?: true
    Max angular momentum: 2

  ==> Pre-Iterations <==

   -------------------------------------------------------
    Irrep   Nso     Nmo     Nalpha   Nbeta   Ndocc  Nsocc
   -------------------------------------------------------
     A        153     153       0       0       0       0
   -------------------------------------------------------
    Total     153     153      29      29      29       0
   -------------------------------------------------------

  ==> Integral Setup <==

  Using integral reordering PK algorithm.
  Sizing the integral batches needed.
  Building batch lookup table.
   Calculation information:
      Number of atoms:                  18
      Number of AO shells:              75
      Number of primitives:            209
      Number of atomic orbitals:       160
      Number of basis functions:       153

      Integral cutoff                 1.00e-12
      Number of threads:                 1

	Batch   1 pq = [       0,    9405] index = [             0,44231715] size =     44231715
	Batch   2 pq = [    9405,   11781] index = [      44231715,69401871] size =     25170156
  Task number: 7
  Buffer size: 11059200
  Buffer per thread: 2
  We computed 3708139 shell quartets total.
  Whereas there are 4062675 unique shell quartets.

  ==> DiskJK: Disk-Based J/K Matrices <==

    J tasked:                  Yes
    K tasked:                  Yes
    wK tasked:                  No
    Memory [MiB]:              375
    Schwarz Cutoff:          1E-12

    OpenMP threads:              1

  Minimum eigenvalue in the overlap matrix is 4.4321607849E-03.
  Using Symmetric Orthogonalization.

  SCF Guess: Superposition of Atomic Densities via on-the-fly atomic UHF.

  ==> Iterations <==

                        Total Energy        Delta E     RMS |[F,P]|

   @RHF iter SAD:  -343.91098553791261   -3.43911e+02   0.00000e+00
   @RHF iter   1:  -345.21675283965294   -1.30577e+00   4.90723e-03 DIIS
   @RHF iter   2:  -345.43988563746041   -2.23133e-01   2.68952e-03 DIIS
   @RHF iter   3:  -345.50332184305768   -6.34362e-02   4.25982e-04 DIIS
   @RHF iter   4:  -345.50626941171845   -2.94757e-03   1.69382e-04 DIIS
   @RHF iter   5:  -345.50670991447521   -4.40503e-04   2.42400e-05 DIIS
   @RHF iter   6:  -345.50672325423488   -1.33398e-05   5.29304e-06 DIIS
   @RHF iter   7:  -345.50672388029284   -6.26058e-07   1.64884e-06 DIIS
   @RHF iter   8:  -345.50672393529027   -5.49974e-08   5.13426e-07 DIIS
   @RHF iter   9:  -345.50672394132272   -6.03245e-09   2.71465e-07 DIIS
   @RHF iter  10:  -345.50672394248392   -1.16120e-09   7.08286e-08 DIIS
   @RHF iter  11:  -345.50672394267519   -1.91278e-10   2.56485e-08 DIIS
   @RHF iter  12:  -345.50672394269611   -2.09184e-11   8.61934e-09 DIIS
   @RHF iter  13:  -345.50672394269924   -3.12639e-12   3.11980e-09 DIIS
   @RHF iter  14:  -345.50672394269907    1.70530e-13   9.16310e-10 DIIS
   @RHF iter  15:  -345.50672394269986   -7.95808e-13   2.96582e-10 DIIS
   @RHF iter  16:  -345.50672394269765    2.21689e-12   1.00728e-10 DIIS
   @RHF iter  17:  -345.50672394270163   -3.97904e-12   4.42657e-11 DIIS
  Energy and wave function converged.

  ==> Post-Iterations <==

    Orbital Energies [Eh]
    ---------------------

    Doubly Occupied:

       1A    -20.259043     2A    -20.258958     3A    -11.114174
       4A    -11.105537     5A    -11.079924     6A    -11.077093
       7A    -11.052098     8A     -1.145945     9A     -1.033021
      10A     -0.898711    11A     -0.876760    12A     -0.712960
      13A     -0.702775    14A     -0.511442    15A     -0.480650
      16A     -0.477006    17A     -0.458265    18A     -0.430406
      19A     -0.393505    20A     -0.379239    21A     -0.370082
      22A     -0.363067    23A     -0.360416    24A     -0.347224
      25A     -0.323975    26A     -0.298150    27A     -0.180296
      28A     -0.171199    29A     -0.158846

    Virtual:

      30A      0.296632    31A      0.328809    32A      0.349725
      33A      0.363402    34A      0.369093    35A      0.379120
      36A      0.394862    37A      0.419458    38A      0.431481
      39A      0.447963    40A      0.466266    41A      0.485658
      42A      0.527141    43A      0.550313    44A      0.603293
      45A      0.673671    46A      0.692286    47A      0.722097
      48A      0.741397    49A      0.746804    50A      0.777749
      51A      0.797067    52A      0.812908    53A      0.825015
      54A      0.898631    55A      0.966792    56A      0.975046
      57A      0.993091    58A      1.000561    59A      1.013810
      60A      1.019115    61A      1.019536    62A      1.029616
      63A      1.043950    64A      1.046624    65A      1.066996
      66A      1.074961    67A      1.083070    68A      1.090642
      69A      1.118402    70A      1.137807    71A      1.141585
      72A      1.157877    73A      1.232465    74A      1.251263
      75A      1.296182    76A      1.310955    77A      1.364525
      78A      1.381071    79A      1.400925    80A      1.525502
      81A      1.531630    82A      1.556797    83A      1.585232
      84A      1.602870    85A      1.613161    86A      1.624213
      87A      1.648470    88A      1.675699    89A      1.681911
      90A      1.731702    91A      1.755915    92A      1.786499
      93A      1.831579    94A      1.850699    95A      1.864168
      96A      1.962848    97A      1.977875    98A      2.003433
      99A      2.007971   100A      2.037511   101A      2.051099
     102A      2.070646   103A      2.077358   104A      2.080879
     105A      2.088976   106A      2.100753   107A      2.107987
     108A      2.121989   109A      2.132104   110A      2.159215
     111A      2.187802   112A      2.204100   113A      2.219839
     114A      2.263862   115A      2.275999   116A      2.308797
     117A      2.341744   118A      2.394507   119A      2.413558
     120A      2.454618   121A      2.463417   122A      2.519347
     123A      2.578328   124A      2.600285   125A      2.627543
     126A      2.629724   127A      2.685795   128A      2.712854
     129A      2.721127   130A      2.769347   131A      2.785442
     132A      2.834859   133A      2.882432   134A      2.906585
     135A      2.940142   136A      2.967549   137A      2.981043
     138A      2.988028   139A      3.000988   140A      3.054097
     141A      3.104841   142A      3.120404   143A      3.131404
     144A      3.245602   145A      3.288036   146A      3.307544
     147A      3.364746   148A      3.641184   149A      3.782560
     150A      3.841402   151A      4.059147   152A      4.083937
     153A      4.191100

    Final Occupation by Irrep:
              A
    DOCC [    29 ]

  @RHF Final Energy:  -345.50672394270163

   => Energetics <=

    Nuclear Repulsion Energy =            300.2134243651754559
    One-Electron Energy =               -1077.3987652018315657
    Two-Electron Energy =                 431.6786168939544837
    Total Energy =                       -345.5067239427016261

Computation Completed

Properties will be evaluated at   0.000000,   0.000000,   0.000000 [a0]

Properties computed using the SCF density matrix

  Nuclear Dipole Moment: [e a0]
     X:     9.7727      Y:    -1.7837      Z:     5.5331

  Electronic Dipole Moment: [e a0]
     X:    -7.3912      Y:     1.5465      Z:    -4.6606

  Dipole Moment: [e a0]
     X:     2.3815      Y:    -0.2372      Z:     0.8724     Total:     2.5474

  Dipole Moment: [D]
     X:     6.0532      Y:    -0.6029      Z:     2.2175     Total:     6.4747

*** tstop() called on ds3 at Tue Apr 28 11:43:46 2020
Module time:
	user time   =      27.74 seconds =       0.46 minutes
	system time =      10.94 seconds =       0.18 minutes
	total time  =         37 seconds =       0.62 minutes
Total time:
	user time   =      27.74 seconds =       0.46 minutes
	system time =      10.94 seconds =       0.18 minutes
	total time  =         37 seconds =       0.62 minutes
                                     G D M A

                                 by Anthony Stone

                           version 2.2.06, 22 June 2011

               Distributed Multipoles from Gaussian wavefunctions

Starting at 11:43:46 on 28 Apr 2020

Using SCF density matrix from file ./SSI/SSI-026VAL-041GLU-1-dimer.test.9167.fchk

                         Distributed Multipole Analysis

Standard DMA

Positions and radii in angstrom
Multipole moments in atomic units, ea_0^k for rank k

C          x =  0.333202  y = -0.282639  z =  2.418824 angstrom
           Maximum rank =  0   Radius =  0.650 angstrom
                   Q00  =  -0.183318

C          x =  1.385202  y = -1.319639  z =  2.774824 angstrom
           Maximum rank =  0   Radius =  0.650 angstrom
                   Q00  =  -0.248427

H          x =  0.735202  y =  0.432361  z =  1.707824 angstrom
           Maximum rank =  0   Radius =  0.325 angstrom
                   Q00  =   0.092555

H          x = -0.536798  y = -0.777639  z =  1.982824 angstrom
           Maximum rank =  0   Radius =  0.325 angstrom
                   Q00  =   0.102858

H          x =  0.021202  y =  0.266361  z =  3.300824 angstrom
           Maximum rank =  0   Radius =  0.325 angstrom
                   Q00  =   0.045813

H          x =  0.896202  y = -2.069639  z =  3.394824 angstrom
           Maximum rank =  0   Radius =  0.325 angstrom
                   Q00  =   0.055541

H          x =  2.182875  y = -0.827599  z =  3.350684 angstrom
           Maximum rank =  0   Radius =  0.325 angstrom
                   Q00  =   0.046893

H          x =  1.782803  y = -1.821569  z =  1.880405 angstrom
           Maximum rank =  0   Radius =  0.325 angstrom
                   Q00  =   0.082317

C          x =  0.740202  y =  0.366361  z = -0.997176 angstrom
           Maximum rank =  0   Radius =  0.650 angstrom
                   Q00  =  -0.099318

C          x =  0.958202  y =  0.693361  z = -2.464176 angstrom
           Maximum rank =  0   Radius =  0.650 angstrom
                   Q00  =  -0.202529

C          x = -0.745798  y =  0.224361  z = -0.687176 angstrom
           Maximum rank =  0   Radius =  0.650 angstrom
                   Q00  =   0.964407

O          x = -1.321798  y =  1.196361  z = -0.148176 angstrom
           Maximum rank =  0   Radius =  0.650 angstrom
                   Q00  =  -0.918994

O          x = -1.339798  y = -0.837639  z = -1.008176 angstrom
           Maximum rank =  0   Radius =  0.650 angstrom
                   Q00  =  -0.948331

H          x =  1.234202  y = -0.582639  z = -0.792176 angstrom
           Maximum rank =  0   Radius =  0.325 angstrom
                   Q00  =   0.023359

H          x =  1.204202  y =  1.131361  z = -0.377176 angstrom
           Maximum rank =  0   Radius =  0.325 angstrom
                   Q00  =   0.020145

H          x =  0.723202  y =  1.748361  z = -2.611176 angstrom
           Maximum rank =  0   Radius =  0.325 angstrom
                   Q00  =   0.057618

H          x =  0.241202  y =  0.117361  z = -3.049176 angstrom
           Maximum rank =  0   Radius =  0.325 angstrom
                   Q00  =   0.077846

H          x =  1.953863  y =  0.478771  z = -2.879637 angstrom
           Maximum rank =  0   Radius =  0.325 angstrom
                   Q00  =   0.031564

Total multipoles referred to origin at
           x =   0.000000,  y =    0.000000,  z =    0.000000 angstrom
                   Q00  =  -1.000000

Finished at 11:43:46 on 28 Apr 2020

  DMA results are available in the Python driver through the
	  variable('DMA DISTRIBUTED MULTIPOLES')
  and
	  variable('DMA TOTAL MULTIPOLES')
  commands.

    Psi4 stopped on: Tuesday, 28 April 2020 11:43AM
    Psi4 wall time for execution: 0:00:37.93

*** Psi4 exiting successfully. Buy a developer a beer!
