                               Psi4 1.3.2 release

  ==> Input File <==

--------------------------------------------------------------------------
import numpy as np
set {scf_type pk
basis cc-pvdz
d_convergence 10
gdma_switch   0
gdma_limit    0
gdma_origin   [ 0.0,  0.0,  0.0 ]
}
molecule test {
    units Angstrom
    0 1
    --
    0 1
    C               -0.451790796468922     1.591608800705547     1.217259063034938
    C               -0.065790796468922     1.840608800705547     2.679259063034939
    C               -0.062790796468922     0.217608800705547     0.725259063034938
    C                1.259209203531078    -0.210391199294453     0.792259063034939
    C               -1.032790796468922    -0.664391199294453     0.243259063034938
    C                1.618209203531078    -1.497391199294453     0.351259063034938
    C               -0.683790796468922    -1.945391199294453    -0.198740936965062
    C                0.644209203531078    -2.357391199294454    -0.135740936965062
    O                1.007209203531078    -3.608391199294453    -0.525740936965062
    H               -1.527790796468922     1.730608800705546     1.098259063034938
    H                0.059209203531078     2.332608800705547     0.602259063034939
    H                1.019209203531078     1.743608800705547     2.733259063034938
    H                2.019209203531078     0.455608800705547     1.175259063034938
    H               -2.067790796468922    -0.352391199294453     0.212259063034938
    H                2.649209203531079    -1.818391199294453     0.401259063034938
    H               -1.429790796468922    -2.629391199294453    -0.574740936965062
    H                1.958209203531078    -3.743391199294453    -0.534740936965062
    H               -0.546790796468922     1.105188800705547     3.340916063034939
    H               -0.315810796468922     2.868948800705546     2.979281063034938
    C               -0.496790796468922     2.579608800705547    -2.360740936965061
    C               -1.678790796468922     3.561608800705546    -2.376740936965061
    H               -0.474790796468922     2.003608800705547    -3.274740936965062
    H                0.442209203531078     3.123608800705547    -2.263740936965061
    H               -0.601790796468922     1.881608800705547    -1.533740936965061
    H               -1.544790796468922     4.214608800705547    -3.232740936965061
    H               -2.653470796468921     3.058868800705547    -2.461962936965061
    H               -1.647280796468922     4.189748800705547    -1.474276936965062

}
e, wfn = energy('scf', return_wfn=True)
gdma(wfn)
dmavals = variable('DMA DISTRIBUTED MULTIPOLES')
charges = np.array(dmavals)
print(charges)
np.save('SSI-163TYR-180LEU-2-dimer.npy', np.array(charges))--------------------------------------------------------------------------

*** tstart() called on ds3
*** at Sun Apr 26 23:01:24 2020

   => Loading Basis Set <=

    Name: CC-PVDZ
    Role: ORBITAL
    Keyword: BASIS
    atoms 1-8, 20-21   entry C          line   138 file /theoryfs2/ds/metcalf/miniconda2/envs/tf2gpu/share/psi4/basis/cc-pvdz.gbs
    atoms 9            entry O          line   198 file /theoryfs2/ds/metcalf/miniconda2/envs/tf2gpu/share/psi4/basis/cc-pvdz.gbs
    atoms 10-19, 22-27 entry H          line    22 file /theoryfs2/ds/metcalf/miniconda2/envs/tf2gpu/share/psi4/basis/cc-pvdz.gbs

         ---------------------------------------------------------
                                   SCF
               by Justin Turney, Rob Parrish, Andy Simmonett
                          and Daniel G. A. Smith
                              RHF Reference
                        1 Threads,    500 MiB Core
         ---------------------------------------------------------

  ==> Geometry <==

    Molecular point group: c1
    Full point group: C1

    Geometry (in Angstrom), charge = 0, multiplicity = 1:

       Center              X                  Y                   Z               Mass
    ------------   -----------------  -----------------  -----------------  -----------------
         C           -0.451790796469     1.591608800706     1.217259063035    12.000000000000
         C           -0.065790796469     1.840608800706     2.679259063035    12.000000000000
         C           -0.062790796469     0.217608800706     0.725259063035    12.000000000000
         C            1.259209203531    -0.210391199294     0.792259063035    12.000000000000
         C           -1.032790796469    -0.664391199294     0.243259063035    12.000000000000
         C            1.618209203531    -1.497391199294     0.351259063035    12.000000000000
         C           -0.683790796469    -1.945391199294    -0.198740936965    12.000000000000
         C            0.644209203531    -2.357391199294    -0.135740936965    12.000000000000
         O            1.007209203531    -3.608391199294    -0.525740936965    15.994914619570
         H           -1.527790796469     1.730608800706     1.098259063035     1.007825032230
         H            0.059209203531     2.332608800706     0.602259063035     1.007825032230
         H            1.019209203531     1.743608800706     2.733259063035     1.007825032230
         H            2.019209203531     0.455608800706     1.175259063035     1.007825032230
         H           -2.067790796469    -0.352391199294     0.212259063035     1.007825032230
         H            2.649209203531    -1.818391199294     0.401259063035     1.007825032230
         H           -1.429790796469    -2.629391199294    -0.574740936965     1.007825032230
         H            1.958209203531    -3.743391199294    -0.534740936965     1.007825032230
         H           -0.546790796469     1.105188800706     3.340916063035     1.007825032230
         H           -0.315810796469     2.868948800706     2.979281063035     1.007825032230
         C           -0.496790796469     2.579608800706    -2.360740936965    12.000000000000
         C           -1.678790796469     3.561608800706    -2.376740936965    12.000000000000
         H           -0.474790796469     2.003608800706    -3.274740936965     1.007825032230
         H            0.442209203531     3.123608800706    -2.263740936965     1.007825032230
         H           -0.601790796469     1.881608800706    -1.533740936965     1.007825032230
         H           -1.544790796469     4.214608800706    -3.232740936965     1.007825032230
         H           -2.653470796469     3.058868800706    -2.461962936965     1.007825032230
         H           -1.647280796469     4.189748800706    -1.474276936965     1.007825032230

  Running in c1 symmetry.

  Rotational constants: A =      0.04133  B =      0.01789  C =      0.01438 [cm^-1]
  Rotational constants: A =   1239.01743  B =    536.37597  C =    431.10410 [MHz]
  Nuclear repulsion =  582.076860869736947

  Charge       = 0
  Multiplicity = 1
  Electrons    = 84
  Nalpha       = 42
  Nbeta        = 42

  ==> Algorithm <==

  SCF Algorithm Type is PK.
  DIIS enabled.
  MOM disabled.
  Fractional occupation disabled.
  Guess Type is SAD.
  Energy threshold   = 1.00e-06
  Density threshold  = 1.00e-10
  Integral threshold = 0.00e+00

  ==> Primary Basis <==

  Basis Set: CC-PVDZ
    Blend: CC-PVDZ
    Number of shells: 114
    Number of basis function: 234
    Number of Cartesian functions: 245
    Spherical Harmonics?: true
    Max angular momentum: 2

  ==> Pre-Iterations <==

   -------------------------------------------------------
    Irrep   Nso     Nmo     Nalpha   Nbeta   Ndocc  Nsocc
   -------------------------------------------------------
     A        234     234       0       0       0       0
   -------------------------------------------------------
    Total     234     234      42      42      42       0
   -------------------------------------------------------

  ==> Integral Setup <==

  Using integral reordering PK algorithm.
  Sizing the integral batches needed.
  Building batch lookup table.
   Calculation information:
      Number of atoms:                  27
      Number of AO shells:             114
      Number of primitives:            322
      Number of atomic orbitals:       245
      Number of basis functions:       234

      Integral cutoff                 1.00e-12
      Number of threads:                 1

	Batch   1 pq = [       0,    9405] index = [             0,44231715] size =     44231715
	Batch   2 pq = [    9405,   13301] index = [      44231715,88464951] size =     44233236
	Batch   3 pq = [   13301,   16290] index = [      88464951,132690195] size =     44225244
	Batch   4 pq = [   16290,   18810] index = [     132690195,176917455] size =     44227260
	Batch   5 pq = [   18810,   21030] index = [     176917455,221140965] size =     44223510
	Batch   6 pq = [   21030,   23037] index = [     221140965,265363203] size =     44222238
	Batch   7 pq = [   23037,   24883] index = [     265363203,309594286] size =     44231083
	Batch   8 pq = [   24883,   26601] index = [     309594286,353819901] size =     44225615
	Batch   9 pq = [   26601,   27495] index = [     353819901,378001260] size =     24181359
  Task number: 35
  Buffer size: 11059200
  Buffer per thread: 2
  We computed 19777652 shell quartets total.
  Whereas there are 21487290 unique shell quartets.

  ==> DiskJK: Disk-Based J/K Matrices <==

    J tasked:                  Yes
    K tasked:                  Yes
    wK tasked:                  No
    Memory [MiB]:              375
    Schwarz Cutoff:          1E-12

    OpenMP threads:              1

  Minimum eigenvalue in the overlap matrix is 3.2781618646E-04.
  Using Symmetric Orthogonalization.

  SCF Guess: Superposition of Atomic Densities via on-the-fly atomic UHF.

  ==> Iterations <==

                        Total Energy        Delta E     RMS |[F,P]|

   @RHF iter SAD:  -461.68504344277289   -4.61685e+02   0.00000e+00
   @RHF iter   1:  -462.60970921728881   -9.24666e-01   2.79150e-03 DIIS
   @RHF iter   2:  -462.84803247869627   -2.38323e-01   1.17619e-03 DIIS
   @RHF iter   3:  -462.88642761171559   -3.83951e-02   2.71798e-04 DIIS
   @RHF iter   4:  -462.88966717031951   -3.23956e-03   1.15134e-04 DIIS
   @RHF iter   5:  -462.89008905778803   -4.21887e-04   1.93216e-05 DIIS
   @RHF iter   6:  -462.89010854730253   -1.94895e-05   5.50947e-06 DIIS
   @RHF iter   7:  -462.89011003555868   -1.48826e-06   1.99330e-06 DIIS
   @RHF iter   8:  -462.89011025580760   -2.20249e-07   6.76370e-07 DIIS
   @RHF iter   9:  -462.89011029138311   -3.55755e-08   2.35979e-07 DIIS
   @RHF iter  10:  -462.89011029666278   -5.27967e-09   1.00401e-07 DIIS
   @RHF iter  11:  -462.89011029811707   -1.45428e-09   4.88524e-08 DIIS
   @RHF iter  12:  -462.89011029848228   -3.65219e-10   2.31458e-08 DIIS
   @RHF iter  13:  -462.89011029855533   -7.30438e-11   7.91466e-09 DIIS
   @RHF iter  14:  -462.89011029856499   -9.66338e-12   1.97221e-09 DIIS
   @RHF iter  15:  -462.89011029856488    1.13687e-13   6.95308e-10 DIIS
   @RHF iter  16:  -462.89011029856277    2.10321e-12   2.94551e-10 DIIS
   @RHF iter  17:  -462.89011029856567   -2.89901e-12   1.38510e-10 DIIS
   @RHF iter  18:  -462.89011029856772   -2.04636e-12   7.10678e-11 DIIS
  Energy and wave function converged.

  ==> Post-Iterations <==

    Orbital Energies [Eh]
    ---------------------

    Doubly Occupied:

       1A    -20.581535     2A    -11.299189     3A    -11.240275
       4A    -11.239793     5A    -11.234020     6A    -11.231346
       7A    -11.231063     8A    -11.228248     9A    -11.223086
      10A    -11.216845    11A    -11.210520    12A     -1.400408
      13A     -1.150871    14A     -1.058771    15A     -1.015075
      16A     -1.013193    17A     -0.976794    18A     -0.860631
      19A     -0.846505    20A     -0.835356    21A     -0.789782
      22A     -0.733211    23A     -0.672236    24A     -0.644346
      25A     -0.615149    26A     -0.601020    27A     -0.595390
      28A     -0.593347    29A     -0.586889    30A     -0.582362
      31A     -0.571996    32A     -0.539181    33A     -0.519471
      34A     -0.500489    35A     -0.496401    36A     -0.485664
      37A     -0.479614    38A     -0.477109    39A     -0.472673
      40A     -0.462417    41A     -0.336311    42A     -0.302592

    Virtual:

      43A      0.126628    44A      0.154300    45A      0.175692
      46A      0.180244    47A      0.195864    48A      0.207419
      49A      0.218937    50A      0.238015    51A      0.245052
      52A      0.248919    53A      0.257963    54A      0.265362
      55A      0.272914    56A      0.284299    57A      0.299357
      58A      0.309306    59A      0.312521    60A      0.328907
      61A      0.359251    62A      0.384877    63A      0.393532
      64A      0.419897    65A      0.430139    66A      0.473341
      67A      0.488464    68A      0.493757    69A      0.518565
      70A      0.583182    71A      0.599613    72A      0.600924
      73A      0.611577    74A      0.619511    75A      0.645961
      76A      0.652685    77A      0.657754    78A      0.674205
      79A      0.678488    80A      0.701124    81A      0.712405
      82A      0.724376    83A      0.732780    84A      0.741297
      85A      0.753060    86A      0.764917    87A      0.782027
      88A      0.786824    89A      0.814340    90A      0.827969
      91A      0.846997    92A      0.852154    93A      0.863785
      94A      0.871953    95A      0.877111    96A      0.881359
      97A      0.888083    98A      0.891315    99A      0.896538
     100A      0.901046   101A      0.902677   102A      0.911429
     103A      0.927513   104A      0.932502   105A      0.942393
     106A      0.948259   107A      0.962943   108A      0.973824
     109A      0.993058   110A      1.005513   111A      1.021586
     112A      1.025142   113A      1.069361   114A      1.084758
     115A      1.125991   116A      1.135421   117A      1.143975
     118A      1.145168   119A      1.149844   120A      1.178639
     121A      1.202170   122A      1.231718   123A      1.245145
     124A      1.262250   125A      1.283163   126A      1.288370
     127A      1.300591   128A      1.313369   129A      1.333316
     130A      1.343158   131A      1.366250   132A      1.379927
     133A      1.412465   134A      1.457580   135A      1.474318
     136A      1.490211   137A      1.492396   138A      1.510936
     139A      1.539815   140A      1.580157   141A      1.593042
     142A      1.625021   143A      1.628769   144A      1.674868
     145A      1.684537   146A      1.690993   147A      1.713872
     148A      1.724897   149A      1.742127   150A      1.775244
     151A      1.797405   152A      1.820633   153A      1.834859
     154A      1.860241   155A      1.872680   156A      1.878316
     157A      1.885603   158A      1.889408   159A      1.899598
     160A      1.906603   161A      1.909278   162A      1.918793
     163A      1.934146   164A      1.942677   165A      1.943661
     166A      1.951928   167A      1.956018   168A      1.960370
     169A      1.973408   170A      1.978401   171A      1.996996
     172A      2.008339   173A      2.011052   174A      2.024331
     175A      2.036178   176A      2.043424   177A      2.068972
     178A      2.070889   179A      2.089325   180A      2.093100
     181A      2.104914   182A      2.112258   183A      2.141038
     184A      2.148797   185A      2.186255   186A      2.191181
     187A      2.234993   188A      2.256759   189A      2.268747
     190A      2.297946   191A      2.305147   192A      2.308382
     193A      2.328742   194A      2.347489   195A      2.361356
     196A      2.418859   197A      2.455338   198A      2.460351
     199A      2.462993   200A      2.476308   201A      2.495072
     202A      2.532635   203A      2.535234   204A      2.542974
     205A      2.568536   206A      2.583722   207A      2.595170
     208A      2.638874   209A      2.650406   210A      2.746390
     211A      2.766069   212A      2.769817   213A      2.791307
     214A      2.807144   215A      2.817843   216A      2.845844
     217A      2.860159   218A      2.873206   219A      2.883352
     220A      2.915971   221A      2.938743   222A      2.958497
     223A      2.979201   224A      3.007435   225A      3.029403
     226A      3.086688   227A      3.167816   228A      3.249305
     229A      3.281579   230A      3.355282   231A      3.573191
     232A      3.661826   233A      3.985375   234A      4.190464

    Final Occupation by Irrep:
              A
    DOCC [    42 ]

  @RHF Final Energy:  -462.89011029856772

   => Energetics <=

    Nuclear Repulsion Energy =            582.0768608697369473
    One-Electron Energy =               -1781.6315937467263666
    Two-Electron Energy =                 736.6646225784216995
    Total Energy =                       -462.8901102985677198

Computation Completed

Properties will be evaluated at   0.000000,   0.000000,   0.000000 [a0]

Properties computed using the SCF density matrix

  Nuclear Dipole Moment: [e a0]
     X:    -4.3664      Y:    18.8868      Z:    -2.6349

  Electronic Dipole Moment: [e a0]
     X:     4.8748      Y:   -18.6538      Z:     2.7620

  Dipole Moment: [e a0]
     X:     0.5083      Y:     0.2330      Z:     0.1271     Total:     0.5734

  Dipole Moment: [D]
     X:     1.2920      Y:     0.5922      Z:     0.3231     Total:     1.4575

*** tstop() called on ds3 at Sun Apr 26 23:05:40 2020
Module time:
	user time   =     143.96 seconds =       2.40 minutes
	system time =      54.51 seconds =       0.91 minutes
	total time  =        256 seconds =       4.27 minutes
Total time:
	user time   =     143.96 seconds =       2.40 minutes
	system time =      54.51 seconds =       0.91 minutes
	total time  =        256 seconds =       4.27 minutes
                                     G D M A

                                 by Anthony Stone

                           version 2.2.06, 22 June 2011

               Distributed Multipoles from Gaussian wavefunctions

Starting at 23:5:40 on 26 Apr 2020

Using SCF density matrix from file ./SSI/SSI-163TYR-180LEU-2-dimer.test.21824.fchk

                         Distributed Multipole Analysis

Standard DMA

Positions and radii in angstrom
Multipole moments in atomic units, ea_0^k for rank k

C          x = -0.451791  y =  1.591609  z =  1.217259 angstrom
           Maximum rank =  0   Radius =  0.650 angstrom
                   Q00  =  -0.036738

C          x = -0.065791  y =  1.840609  z =  2.679259 angstrom
           Maximum rank =  0   Radius =  0.650 angstrom
                   Q00  =  -0.226935

C          x = -0.062791  y =  0.217609  z =  0.725259 angstrom
           Maximum rank =  0   Radius =  0.650 angstrom
                   Q00  =  -0.142612

C          x =  1.259209  y = -0.210391  z =  0.792259 angstrom
           Maximum rank =  0   Radius =  0.650 angstrom
                   Q00  =  -0.081160

C          x = -1.032791  y = -0.664391  z =  0.243259 angstrom
           Maximum rank =  0   Radius =  0.650 angstrom
                   Q00  =   0.054654

C          x =  1.618209  y = -1.497391  z =  0.351259 angstrom
           Maximum rank =  0   Radius =  0.650 angstrom
                   Q00  =  -0.155987

C          x = -0.683791  y = -1.945391  z = -0.198741 angstrom
           Maximum rank =  0   Radius =  0.650 angstrom
                   Q00  =  -0.122697

C          x =  0.644209  y = -2.357391  z = -0.135741 angstrom
           Maximum rank =  0   Radius =  0.650 angstrom
                   Q00  =   0.288841

O          x =  1.007209  y = -3.608391  z = -0.525741 angstrom
           Maximum rank =  0   Radius =  0.650 angstrom
                   Q00  =  -0.645993

H          x = -1.527791  y =  1.730609  z =  1.098259 angstrom
           Maximum rank =  0   Radius =  0.325 angstrom
                   Q00  =   0.062290

H          x =  0.059209  y =  2.332609  z =  0.602259 angstrom
           Maximum rank =  0   Radius =  0.325 angstrom
                   Q00  =   0.068031

H          x =  1.019209  y =  1.743609  z =  2.733259 angstrom
           Maximum rank =  0   Radius =  0.325 angstrom
                   Q00  =   0.075215

H          x =  2.019209  y =  0.455609  z =  1.175259 angstrom
           Maximum rank =  0   Radius =  0.325 angstrom
                   Q00  =   0.070697

H          x = -2.067791  y = -0.352391  z =  0.212259 angstrom
           Maximum rank =  0   Radius =  0.325 angstrom
                   Q00  =   0.066173

H          x =  2.649209  y = -1.818391  z =  0.401259 angstrom
           Maximum rank =  0   Radius =  0.325 angstrom
                   Q00  =   0.070885

H          x = -1.429791  y = -2.629391  z = -0.574741 angstrom
           Maximum rank =  0   Radius =  0.325 angstrom
                   Q00  =   0.082020

H          x =  1.958209  y = -3.743391  z = -0.534741 angstrom
           Maximum rank =  0   Radius =  0.325 angstrom
                   Q00  =   0.407706

H          x = -0.546791  y =  1.105189  z =  3.340916 angstrom
           Maximum rank =  0   Radius =  0.325 angstrom
                   Q00  =   0.085374

H          x = -0.315811  y =  2.868949  z =  2.979281 angstrom
           Maximum rank =  0   Radius =  0.325 angstrom
                   Q00  =   0.085284

C          x = -0.496791  y =  2.579609  z = -2.360741 angstrom
           Maximum rank =  0   Radius =  0.650 angstrom
                   Q00  =  -0.239807

C          x = -1.678791  y =  3.561609  z = -2.376741 angstrom
           Maximum rank =  0   Radius =  0.650 angstrom
                   Q00  =  -0.244184

H          x = -0.474791  y =  2.003609  z = -3.274741 angstrom
           Maximum rank =  0   Radius =  0.325 angstrom
                   Q00  =   0.080974

H          x =  0.442209  y =  3.123609  z = -2.263741 angstrom
           Maximum rank =  0   Radius =  0.325 angstrom
                   Q00  =   0.076481

H          x = -0.601791  y =  1.881609  z = -1.533741 angstrom
           Maximum rank =  0   Radius =  0.325 angstrom
                   Q00  =   0.087994

H          x = -1.544791  y =  4.214609  z = -3.232741 angstrom
           Maximum rank =  0   Radius =  0.325 angstrom
                   Q00  =   0.077303

H          x = -2.653471  y =  3.058869  z = -2.461963 angstrom
           Maximum rank =  0   Radius =  0.325 angstrom
                   Q00  =   0.081197

H          x = -1.647281  y =  4.189749  z = -1.474277 angstrom
           Maximum rank =  0   Radius =  0.325 angstrom
                   Q00  =   0.074994

Total multipoles referred to origin at
           x =   0.000000,  y =    0.000000,  z =    0.000000 angstrom
                   Q00  =  -0.000000

Finished at 23:5:40 on 26 Apr 2020

  DMA results are available in the Python driver through the
	  variable('DMA DISTRIBUTED MULTIPOLES')
  and
	  variable('DMA TOTAL MULTIPOLES')
  commands.

    Psi4 stopped on: Sunday, 26 April 2020 11:05PM
    Psi4 wall time for execution: 0:04:15.56

*** Psi4 exiting successfully. Buy a developer a beer!
