                               Psi4 1.3.2 release

  ==> Input File <==

--------------------------------------------------------------------------
import numpy as np
set {scf_type pk
basis cc-pvdz
d_convergence 10
gdma_switch   0
gdma_limit    0
gdma_origin   [ 0.0,  0.0,  0.0 ]
}
molecule test {
    units Angstrom
    -1 1
    --
    -1 1
    C               -3.089788103618547     2.612746162711578    -0.318999488909117
    C               -2.900788103618547     1.506746162711578    -1.351999488909117
    O               -3.860788103618547     1.205746162711578    -2.097999488909117
    O               -1.798788103618546     0.917746162711578    -1.405999488909117
    H               -2.143788103618546     3.132746162711578    -0.148999488909117
    H               -3.397788103618547     2.157746162711578     0.620000511090883
    H               -3.856259103618546     3.338956162711578    -0.627457488909117
    C                4.237211896381454    -2.106253837288422     0.485000511090883
    C                0.344211896381453    -0.281253837288422     0.817000511090883
    C                1.030211896381453    -0.249253837288422    -0.397999488909117
    C                0.928211896381454    -0.879253837288422     1.936000511090883
    C                2.298211896381453    -0.821253837288422    -0.493999488909117
    C                2.199211896381454    -1.449253837288422     1.830000511090883
    C                2.893211896381453    -1.429253837288422     0.616000511090883
    O               -0.901788103618547     0.261746162711578     0.905000511090883
    H               -1.203788103618546     0.537746162711578     0.008000511090883
    H                0.584211896381454     0.221746162711578    -1.256999488909117
    H                0.388211896381453    -0.910253837288422     2.871000511090883
    H                2.835211896381454    -0.782253837288422    -1.431999488909117
    H                2.639211896381453    -1.930253837288422     2.693000511090883
    H                4.728211896381453    -2.140253837288422     1.458000511090883
    H                4.857211896381454    -1.491253837288422    -0.169999488909117
    H                4.163851896381454    -3.123207837288422     0.072177511090883

}
e, wfn = energy('scf', return_wfn=True)
gdma(wfn)
dmavals = variable('DMA DISTRIBUTED MULTIPOLES')
charges = np.array(dmavals)
print(charges)
np.save('SSI-010ASP-090TYR-1-dimer.npy', np.array(charges))--------------------------------------------------------------------------

*** tstart() called on ds3
*** at Mon Apr 27 09:31:41 2020

   => Loading Basis Set <=

    Name: CC-PVDZ
    Role: ORBITAL
    Keyword: BASIS
    atoms 1-2, 8-14  entry C          line   138 file /theoryfs2/ds/metcalf/miniconda2/envs/tf2gpu/share/psi4/basis/cc-pvdz.gbs
    atoms 3-4, 15    entry O          line   198 file /theoryfs2/ds/metcalf/miniconda2/envs/tf2gpu/share/psi4/basis/cc-pvdz.gbs
    atoms 5-7, 16-23 entry H          line    22 file /theoryfs2/ds/metcalf/miniconda2/envs/tf2gpu/share/psi4/basis/cc-pvdz.gbs

         ---------------------------------------------------------
                                   SCF
               by Justin Turney, Rob Parrish, Andy Simmonett
                          and Daniel G. A. Smith
                              RHF Reference
                        1 Threads,    500 MiB Core
         ---------------------------------------------------------

  ==> Geometry <==

    Molecular point group: c1
    Full point group: C1

    Geometry (in Angstrom), charge = -1, multiplicity = 1:

       Center              X                  Y                   Z               Mass
    ------------   -----------------  -----------------  -----------------  -----------------
         C           -3.089788103619     2.612746162712    -0.318999488909    12.000000000000
         C           -2.900788103619     1.506746162712    -1.351999488909    12.000000000000
         O           -3.860788103619     1.205746162712    -2.097999488909    15.994914619570
         O           -1.798788103619     0.917746162712    -1.405999488909    15.994914619570
         H           -2.143788103619     3.132746162712    -0.148999488909     1.007825032230
         H           -3.397788103619     2.157746162712     0.620000511091     1.007825032230
         H           -3.856259103619     3.338956162712    -0.627457488909     1.007825032230
         C            4.237211896381    -2.106253837288     0.485000511091    12.000000000000
         C            0.344211896381    -0.281253837288     0.817000511091    12.000000000000
         C            1.030211896381    -0.249253837288    -0.397999488909    12.000000000000
         C            0.928211896381    -0.879253837288     1.936000511091    12.000000000000
         C            2.298211896381    -0.821253837288    -0.493999488909    12.000000000000
         C            2.199211896381    -1.449253837288     1.830000511091    12.000000000000
         C            2.893211896381    -1.429253837288     0.616000511091    12.000000000000
         O           -0.901788103619     0.261746162712     0.905000511091    15.994914619570
         H           -1.203788103619     0.537746162712     0.008000511091     1.007825032230
         H            0.584211896381     0.221746162712    -1.256999488909     1.007825032230
         H            0.388211896381    -0.910253837288     2.871000511091     1.007825032230
         H            2.835211896381    -0.782253837288    -1.431999488909     1.007825032230
         H            2.639211896381    -1.930253837288     2.693000511091     1.007825032230
         H            4.728211896381    -2.140253837288     1.458000511091     1.007825032230
         H            4.857211896381    -1.491253837288    -0.169999488909     1.007825032230
         H            4.163851896381    -3.123207837288     0.072177511091     1.007825032230

  Running in c1 symmetry.

  Rotational constants: A =      0.09150  B =      0.01108  C =      0.01025 [cm^-1]
  Rotational constants: A =   2743.01694  B =    332.09412  C =    307.18685 [MHz]
  Nuclear repulsion =  640.956909423182651

  Charge       = -1
  Multiplicity = 1
  Electrons    = 90
  Nalpha       = 45
  Nbeta        = 45

  ==> Algorithm <==

  SCF Algorithm Type is PK.
  DIIS enabled.
  MOM disabled.
  Fractional occupation disabled.
  Guess Type is SAD.
  Energy threshold   = 1.00e-06
  Density threshold  = 1.00e-10
  Integral threshold = 0.00e+00

  ==> Primary Basis <==

  Basis Set: CC-PVDZ
    Blend: CC-PVDZ
    Number of shells: 105
    Number of basis function: 223
    Number of Cartesian functions: 235
    Spherical Harmonics?: true
    Max angular momentum: 2

  ==> Pre-Iterations <==

   -------------------------------------------------------
    Irrep   Nso     Nmo     Nalpha   Nbeta   Ndocc  Nsocc
   -------------------------------------------------------
     A        223     223       0       0       0       0
   -------------------------------------------------------
    Total     223     223      45      45      45       0
   -------------------------------------------------------

  ==> Integral Setup <==

  Using integral reordering PK algorithm.
  Sizing the integral batches needed.
  Building batch lookup table.
   Calculation information:
      Number of atoms:                  23
      Number of AO shells:             105
      Number of primitives:            319
      Number of atomic orbitals:       235
      Number of basis functions:       223

      Integral cutoff                 1.00e-12
      Number of threads:                 1

	Batch   1 pq = [       0,    9405] index = [             0,44231715] size =     44231715
	Batch   2 pq = [    9405,   13301] index = [      44231715,88464951] size =     44233236
	Batch   3 pq = [   13301,   16290] index = [      88464951,132690195] size =     44225244
	Batch   4 pq = [   16290,   18810] index = [     132690195,176917455] size =     44227260
	Batch   5 pq = [   18810,   21030] index = [     176917455,221140965] size =     44223510
	Batch   6 pq = [   21030,   23037] index = [     221140965,265363203] size =     44222238
	Batch   7 pq = [   23037,   24976] index = [     265363203,311912776] size =     46549573
  Task number: 29
  Buffer size: 11059200
  Buffer per thread: 2
  We computed 12225941 shell quartets total.
  Whereas there are 15487395 unique shell quartets.

  ==> DiskJK: Disk-Based J/K Matrices <==

    J tasked:                  Yes
    K tasked:                  Yes
    wK tasked:                  No
    Memory [MiB]:              375
    Schwarz Cutoff:          1E-12

    OpenMP threads:              1

  Minimum eigenvalue in the overlap matrix is 3.2560913651E-04.
  Using Symmetric Orthogonalization.

  SCF Guess: Superposition of Atomic Densities via on-the-fly atomic UHF.

  ==> Iterations <==

                        Total Energy        Delta E     RMS |[F,P]|

   @RHF iter SAD:  -570.27848937220210   -5.70278e+02   0.00000e+00
   @RHF iter   1:  -571.56763945594287   -1.28915e+00   3.56544e-03 DIIS
   @RHF iter   2:  -571.83307617148296   -2.65437e-01   1.86530e-03 DIIS
   @RHF iter   3:  -571.89770732467252   -6.46312e-02   3.45796e-04 DIIS
   @RHF iter   4:  -571.90144717993940   -3.73986e-03   1.35780e-04 DIIS
   @RHF iter   5:  -571.90200361196082   -5.56432e-04   2.51941e-05 DIIS
   @RHF iter   6:  -571.90202888795761   -2.52760e-05   1.26445e-05 DIIS
   @RHF iter   7:  -571.90203475726696   -5.86931e-06   3.57313e-06 DIIS
   @RHF iter   8:  -571.90203594325988   -1.18599e-06   1.61488e-06 DIIS
   @RHF iter   9:  -571.90203620333364   -2.60074e-07   7.33324e-07 DIIS
   @RHF iter  10:  -571.90203626529637   -6.19627e-08   3.01343e-07 DIIS
   @RHF iter  11:  -571.90203627599385   -1.06975e-08   1.18091e-07 DIIS
   @RHF iter  12:  -571.90203627757387   -1.58002e-09   4.65397e-08 DIIS
   @RHF iter  13:  -571.90203627779465   -2.20780e-10   1.64600e-08 DIIS
   @RHF iter  14:  -571.90203627781375   -1.90994e-11   7.09088e-09 DIIS
   @RHF iter  15:  -571.90203627781966   -5.91172e-12   2.67697e-09 DIIS
   @RHF iter  16:  -571.90203627781693    2.72848e-12   1.05876e-09 DIIS
   @RHF iter  17:  -571.90203627781875   -1.81899e-12   3.40136e-10 DIIS
   @RHF iter  18:  -571.90203627781784    9.09495e-13   1.24392e-10 DIIS
   @RHF iter  19:  -571.90203627782216   -4.32010e-12   6.43479e-11 DIIS
  Energy and wave function converged.

  ==> Post-Iterations <==

    Orbital Energies [Eh]
    ---------------------

    Doubly Occupied:

       1A    -20.409348     2A    -20.308272     3A    -20.291825
       4A    -11.171906     5A    -11.153862     6A    -11.139768
       7A    -11.130428     8A    -11.126094     9A    -11.123600
      10A    -11.113836    11A    -11.104261    12A    -11.071547
      13A     -1.235496    14A     -1.191424    15A     -1.077419
      16A     -1.033170    17A     -0.924493    18A     -0.900245
      19A     -0.819904    20A     -0.816619    21A     -0.723556
      22A     -0.680178    23A     -0.595729    24A     -0.550881
      25A     -0.534739    26A     -0.521539    27A     -0.491247
      28A     -0.484373    29A     -0.471617    30A     -0.453346
      31A     -0.443738    32A     -0.437609    33A     -0.433148
      34A     -0.428367    35A     -0.406743    36A     -0.384585
      37A     -0.374358    38A     -0.359230    39A     -0.342631
      40A     -0.336365    41A     -0.227819    42A     -0.224172
      43A     -0.207337    44A     -0.203254    45A     -0.176442

    Virtual:

      46A      0.243416    47A      0.268329    48A      0.274371
      49A      0.308463    50A      0.322117    51A      0.341691
      52A      0.348132    53A      0.361917    54A      0.375390
      55A      0.377226    56A      0.399331    57A      0.422367
      58A      0.454145    59A      0.464542    60A      0.486291
      61A      0.493615    62A      0.550394    63A      0.563417
      64A      0.573042    65A      0.607540    66A      0.610186
      67A      0.637077    68A      0.675568    69A      0.716974
      70A      0.729705    71A      0.732723    72A      0.763827
      73A      0.776903    74A      0.797640    75A      0.808517
      76A      0.815891    77A      0.820570    78A      0.834910
      79A      0.846477    80A      0.850418    81A      0.861041
      82A      0.880238    83A      0.894808    84A      0.904092
      85A      0.910058    86A      0.938219    87A      0.945086
      88A      0.948213    89A      0.960979    90A      0.967783
      91A      0.977127    92A      0.991273    93A      0.998040
      94A      1.016140    95A      1.018688    96A      1.026493
      97A      1.029554    98A      1.039571    99A      1.046454
     100A      1.051484   101A      1.058697   102A      1.099187
     103A      1.117216   104A      1.139813   105A      1.160148
     106A      1.174409   107A      1.224774   108A      1.236943
     109A      1.259369   110A      1.265283   111A      1.281372
     112A      1.318968   113A      1.325756   114A      1.335435
     115A      1.348661   116A      1.358383   117A      1.390889
     118A      1.394846   119A      1.409229   120A      1.428217
     121A      1.437859   122A      1.466583   123A      1.493714
     124A      1.503214   125A      1.531137   126A      1.547220
     127A      1.558440   128A      1.579177   129A      1.612224
     130A      1.614817   131A      1.624913   132A      1.645242
     133A      1.658209   134A      1.691585   135A      1.737899
     136A      1.747742   137A      1.779637   138A      1.799252
     139A      1.813565   140A      1.824732   141A      1.837677
     142A      1.850829   143A      1.856581   144A      1.875536
     145A      1.884159   146A      1.923805   147A      1.935966
     148A      1.978736   149A      1.990872   150A      2.009603
     151A      2.016669   152A      2.021496   153A      2.029384
     154A      2.049356   155A      2.054220   156A      2.064704
     157A      2.072016   158A      2.077636   159A      2.097001
     160A      2.104807   161A      2.136534   162A      2.151255
     163A      2.162831   164A      2.168124   165A      2.178881
     166A      2.185816   167A      2.199715   168A      2.210655
     169A      2.244223   170A      2.274399   171A      2.306284
     172A      2.320145   173A      2.326534   174A      2.341785
     175A      2.375617   176A      2.385226   177A      2.387353
     178A      2.396691   179A      2.416096   180A      2.439915
     181A      2.492560   182A      2.516417   183A      2.531034
     184A      2.576168   185A      2.596820   186A      2.614332
     187A      2.632071   188A      2.660880   189A      2.672040
     190A      2.701468   191A      2.713026   192A      2.762788
     193A      2.850491   194A      2.856315   195A      2.873197
     196A      2.895257   197A      2.903573   198A      2.923170
     199A      2.927211   200A      2.967168   201A      2.974211
     202A      3.005584   203A      3.076636   204A      3.113422
     205A      3.197534   206A      3.206091   207A      3.224022
     208A      3.247203   209A      3.311678   210A      3.393288
     211A      3.436279   212A      3.451631   213A      3.517175
     214A      3.663347   215A      3.730931   216A      3.754893
     217A      3.787927   218A      3.853130   219A      4.026372
     220A      4.076447   221A      4.106428   222A      4.158580
     223A      4.453769

    Final Occupation by Irrep:
              A
    DOCC [    45 ]

  @RHF Final Energy:  -571.90203627782216

   => Energetics <=

    Nuclear Repulsion Energy =            640.9569094231826512
    One-Electron Energy =               -2066.4448509276953700
    Two-Electron Energy =                 853.5859052266905564
    Total Energy =                       -571.9020362778221624

Computation Completed

Properties will be evaluated at   0.000000,   0.000000,   0.000000 [a0]

Properties computed using the SCF density matrix

  Nuclear Dipole Moment: [e a0]
     X:     8.9630      Y:    -0.9153      Z:     3.8187

  Electronic Dipole Moment: [e a0]
     X:    -4.9863      Y:    -0.1261      Z:    -1.6926

  Dipole Moment: [e a0]
     X:     3.9767      Y:    -1.0413      Z:     2.1261     Total:     4.6280

  Dipole Moment: [D]
     X:    10.1077      Y:    -2.6468      Z:     5.4039     Total:    11.7633

*** tstop() called on ds3 at Mon Apr 27 09:45:51 2020
Module time:
	user time   =     103.92 seconds =       1.73 minutes
	system time =      47.10 seconds =       0.79 minutes
	total time  =        850 seconds =      14.17 minutes
Total time:
	user time   =     103.92 seconds =       1.73 minutes
	system time =      47.10 seconds =       0.79 minutes
	total time  =        850 seconds =      14.17 minutes
                                     G D M A

                                 by Anthony Stone

                           version 2.2.06, 22 June 2011

               Distributed Multipoles from Gaussian wavefunctions

Starting at 9:45:51 on 27 Apr 2020

Using SCF density matrix from file ./SSI/SSI-010ASP-090TYR-1-dimer.test.1840.fchk

                         Distributed Multipole Analysis

Standard DMA

Positions and radii in angstrom
Multipole moments in atomic units, ea_0^k for rank k

C          x = -3.089788  y =  2.612746  z = -0.318999 angstrom
           Maximum rank =  0   Radius =  0.650 angstrom
                   Q00  =  -0.295269

C          x = -2.900788  y =  1.506746  z = -1.351999 angstrom
           Maximum rank =  0   Radius =  0.650 angstrom
                   Q00  =   0.924090

O          x = -3.860788  y =  1.205746  z = -2.097999 angstrom
           Maximum rank =  0   Radius =  0.650 angstrom
                   Q00  =  -0.886079

O          x = -1.798788  y =  0.917746  z = -1.405999 angstrom
           Maximum rank =  0   Radius =  0.650 angstrom
                   Q00  =  -0.932590

H          x = -2.143788  y =  3.132746  z = -0.148999 angstrom
           Maximum rank =  0   Radius =  0.325 angstrom
                   Q00  =   0.064856

H          x = -3.397788  y =  2.157746  z =  0.620001 angstrom
           Maximum rank =  0   Radius =  0.325 angstrom
                   Q00  =   0.101185

H          x = -3.856259  y =  3.338956  z = -0.627457 angstrom
           Maximum rank =  0   Radius =  0.325 angstrom
                   Q00  =   0.071029

C          x =  4.237212  y = -2.106254  z =  0.485001 angstrom
           Maximum rank =  0   Radius =  0.650 angstrom
                   Q00  =  -0.186701

C          x =  0.344212  y = -0.281254  z =  0.817001 angstrom
           Maximum rank =  0   Radius =  0.650 angstrom
                   Q00  =   0.372398

C          x =  1.030212  y = -0.249254  z = -0.397999 angstrom
           Maximum rank =  0   Radius =  0.650 angstrom
                   Q00  =  -0.160012

C          x =  0.928212  y = -0.879254  z =  1.936001 angstrom
           Maximum rank =  0   Radius =  0.650 angstrom
                   Q00  =  -0.128153

C          x =  2.298212  y = -0.821254  z = -0.493999 angstrom
           Maximum rank =  0   Radius =  0.650 angstrom
                   Q00  =   0.014371

C          x =  2.199212  y = -1.449254  z =  1.830001 angstrom
           Maximum rank =  0   Radius =  0.650 angstrom
                   Q00  =  -0.022253

C          x =  2.893212  y = -1.429254  z =  0.616001 angstrom
           Maximum rank =  0   Radius =  0.650 angstrom
                   Q00  =  -0.158257

O          x = -0.901788  y =  0.261746  z =  0.905001 angstrom
           Maximum rank =  0   Radius =  0.650 angstrom
                   Q00  =  -0.804208

H          x = -1.203788  y =  0.537746  z =  0.008001 angstrom
           Maximum rank =  0   Radius =  0.325 angstrom
                   Q00  =   0.551803

H          x =  0.584212  y =  0.221746  z = -1.256999 angstrom
           Maximum rank =  0   Radius =  0.325 angstrom
                   Q00  =   0.098794

H          x =  0.388212  y = -0.910254  z =  2.871001 angstrom
           Maximum rank =  0   Radius =  0.325 angstrom
                   Q00  =   0.055092

H          x =  2.835212  y = -0.782254  z = -1.431999 angstrom
           Maximum rank =  0   Radius =  0.325 angstrom
                   Q00  =   0.042598

H          x =  2.639212  y = -1.930254  z =  2.693001 angstrom
           Maximum rank =  0   Radius =  0.325 angstrom
                   Q00  =   0.034260

H          x =  4.728212  y = -2.140254  z =  1.458001 angstrom
           Maximum rank =  0   Radius =  0.325 angstrom
                   Q00  =   0.079998

H          x =  4.857212  y = -1.491254  z = -0.169999 angstrom
           Maximum rank =  0   Radius =  0.325 angstrom
                   Q00  =   0.080395

H          x =  4.163852  y = -3.123208  z =  0.072178 angstrom
           Maximum rank =  0   Radius =  0.325 angstrom
                   Q00  =   0.082655

Total multipoles referred to origin at
           x =   0.000000,  y =    0.000000,  z =    0.000000 angstrom
                   Q00  =  -1.000000

Finished at 9:45:51 on 27 Apr 2020

  DMA results are available in the Python driver through the
	  variable('DMA DISTRIBUTED MULTIPOLES')
  and
	  variable('DMA TOTAL MULTIPOLES')
  commands.

    Psi4 stopped on: Monday, 27 April 2020 09:45AM
    Psi4 wall time for execution: 0:14:09.88

*** Psi4 exiting successfully. Buy a developer a beer!
