                               Psi4 1.3.2 release

  ==> Input File <==

--------------------------------------------------------------------------
import numpy as np
set {scf_type pk
basis cc-pvdz
d_convergence 10
gdma_switch   0
gdma_limit    0
gdma_origin   [ 0.0,  0.0,  0.0 ]
}
molecule test {
    units Angstrom
    0 1
    --
    0 1
    C               -0.934873764463822    -0.255315381811701    -1.630184098292340
    C               -0.875873764463822    -1.429315381811701    -2.597184098292340
    H               -0.855873764463822    -0.626315381811701    -0.608184098292340
    H               -0.116873764463822     0.435684618188299    -1.835184098292340
    H               -1.882873764463822     0.271684618188299    -1.746184098292340
    H               -1.032873764463822    -1.040315381811701    -3.604184098292340
    H               -1.673530764463822    -2.153915381811701    -2.376491098292340
    H                0.121742235536178    -1.892465381811701    -2.581337098292340
    C                1.104126235536178     0.347684618188299     1.562815901707660
    C                0.704126235536178     1.327684618188299     2.673815901707660
    H                0.895126235536178    -0.681315381811701     1.857815901707660
    H                0.549126235536178     0.579684618188299     0.657815901707660
    H                2.168126235536178     0.444684618188299     1.339815901707660
    H                0.735126235536178     2.334684618188299     2.253815901707660
    H                1.439159635536178     1.293494618188299     3.491469301707661
    H               -0.316672764463822     1.144684618188299     3.040531501707660

}
e, wfn = energy('scf', return_wfn=True)
gdma(wfn)
dmavals = variable('DMA DISTRIBUTED MULTIPOLES')
charges = np.array(dmavals)
print(charges)
np.save('SSI-042ALA-082ILE-1-dimer.npy', np.array(charges))--------------------------------------------------------------------------

*** tstart() called on ds3
*** at Sun Apr 26 20:13:16 2020

   => Loading Basis Set <=

    Name: CC-PVDZ
    Role: ORBITAL
    Keyword: BASIS
    atoms 1-2, 9-10  entry C          line   138 file /theoryfs2/ds/metcalf/miniconda2/envs/tf2gpu/share/psi4/basis/cc-pvdz.gbs
    atoms 3-8, 11-16 entry H          line    22 file /theoryfs2/ds/metcalf/miniconda2/envs/tf2gpu/share/psi4/basis/cc-pvdz.gbs

         ---------------------------------------------------------
                                   SCF
               by Justin Turney, Rob Parrish, Andy Simmonett
                          and Daniel G. A. Smith
                              RHF Reference
                        1 Threads,    500 MiB Core
         ---------------------------------------------------------

  ==> Geometry <==

    Molecular point group: c1
    Full point group: C1

    Geometry (in Angstrom), charge = 0, multiplicity = 1:

       Center              X                  Y                   Z               Mass
    ------------   -----------------  -----------------  -----------------  -----------------
         C           -0.934873764464    -0.255315381812    -1.630184098292    12.000000000000
         C           -0.875873764464    -1.429315381812    -2.597184098292    12.000000000000
         H           -0.855873764464    -0.626315381812    -0.608184098292     1.007825032230
         H           -0.116873764464     0.435684618188    -1.835184098292     1.007825032230
         H           -1.882873764464     0.271684618188    -1.746184098292     1.007825032230
         H           -1.032873764464    -1.040315381812    -3.604184098292     1.007825032230
         H           -1.673530764464    -2.153915381812    -2.376491098292     1.007825032230
         H            0.121742235536    -1.892465381812    -2.581337098292     1.007825032230
         C            1.104126235536     0.347684618188     1.562815901708    12.000000000000
         C            0.704126235536     1.327684618188     2.673815901708    12.000000000000
         H            0.895126235536    -0.681315381812     1.857815901708     1.007825032230
         H            0.549126235536     0.579684618188     0.657815901708     1.007825032230
         H            2.168126235536     0.444684618188     1.339815901708     1.007825032230
         H            0.735126235536     2.334684618188     2.253815901708     1.007825032230
         H            1.439159635536     1.293494618188     3.491469301708     1.007825032230
         H           -0.316672764464     1.144684618188     3.040531501708     1.007825032230

  Running in c1 symmetry.

  Rotational constants: A =      0.62677  B =      0.04242  C =      0.04109 [cm^-1]
  Rotational constants: A =  18790.23365  B =   1271.75953  C =   1231.93911 [MHz]
  Nuclear repulsion =  120.266380169787823

  Charge       = 0
  Multiplicity = 1
  Electrons    = 36
  Nalpha       = 18
  Nbeta        = 18

  ==> Algorithm <==

  SCF Algorithm Type is PK.
  DIIS enabled.
  MOM disabled.
  Fractional occupation disabled.
  Guess Type is SAD.
  Energy threshold   = 1.00e-06
  Density threshold  = 1.00e-10
  Integral threshold = 0.00e+00

  ==> Primary Basis <==

  Basis Set: CC-PVDZ
    Blend: CC-PVDZ
    Number of shells: 60
    Number of basis function: 116
    Number of Cartesian functions: 120
    Spherical Harmonics?: true
    Max angular momentum: 2

  ==> Pre-Iterations <==

   -------------------------------------------------------
    Irrep   Nso     Nmo     Nalpha   Nbeta   Ndocc  Nsocc
   -------------------------------------------------------
     A        116     116       0       0       0       0
   -------------------------------------------------------
    Total     116     116      18      18      18       0
   -------------------------------------------------------

  ==> Integral Setup <==

  Using integral reordering PK algorithm.
  Sizing the integral batches needed.
  Building batch lookup table.
   Calculation information:
      Number of atoms:                  16
      Number of AO shells:              60
      Number of primitives:            148
      Number of atomic orbitals:       120
      Number of basis functions:       116

      Integral cutoff                 1.00e-12
      Number of threads:                 1

	Batch   1 pq = [       0,    6786] index = [             0,23028291] size =     23028291
  Task number: 3
  Buffer size: 11059200
  Buffer per thread: 2
  We computed 1370384 shell quartets total.
  Whereas there are 1675365 unique shell quartets.

  ==> DiskJK: Disk-Based J/K Matrices <==

    J tasked:                  Yes
    K tasked:                  Yes
    wK tasked:                  No
    Memory [MiB]:              375
    Schwarz Cutoff:          1E-12

    OpenMP threads:              1

  Minimum eigenvalue in the overlap matrix is 6.9635388004E-03.
  Using Symmetric Orthogonalization.

  SCF Guess: Superposition of Atomic Densities via on-the-fly atomic UHF.

  ==> Iterations <==

                        Total Energy        Delta E     RMS |[F,P]|

   @RHF iter SAD:  -157.35308865621568   -1.57353e+02   0.00000e+00
   @RHF iter   1:  -158.30655498857320   -9.53466e-01   4.20915e-03 DIIS
   @RHF iter   2:  -158.43973153528981   -1.33177e-01   1.79126e-03 DIIS
   @RHF iter   3:  -158.46303539535734   -2.33039e-02   3.49589e-04 DIIS
   @RHF iter   4:  -158.46487139331362   -1.83600e-03   3.90940e-05 DIIS
   @RHF iter   5:  -158.46489565441729   -2.42611e-05   6.66578e-06 DIIS
   @RHF iter   6:  -158.46489630640602   -6.51989e-07   1.22576e-06 DIIS
   @RHF iter   7:  -158.46489632094566   -1.45396e-08   3.24075e-07 DIIS
   @RHF iter   8:  -158.46489632193214   -9.86489e-10   4.39662e-08 DIIS
   @RHF iter   9:  -158.46489632196307   -3.09228e-11   1.00187e-08 DIIS
   @RHF iter  10:  -158.46489632196491   -1.84741e-12   2.75305e-09 DIIS
   @RHF iter  11:  -158.46489632196457    3.41061e-13   8.32440e-10 DIIS
   @RHF iter  12:  -158.46489632196491   -3.41061e-13   1.90069e-10 DIIS
   @RHF iter  13:  -158.46489632196503   -1.13687e-13   2.76968e-11 DIIS
  Energy and wave function converged.

  ==> Post-Iterations <==

    Orbital Energies [Eh]
    ---------------------

    Doubly Occupied:

       1A    -11.219073     2A    -11.218762     3A    -11.216355
       4A    -11.215415     5A     -1.020597     6A     -1.015382
       7A     -0.839050     8A     -0.833315     9A     -0.602377
      10A     -0.601212    11A     -0.595250    12A     -0.592736
      13A     -0.504042    14A     -0.498202    15A     -0.490242
      16A     -0.488577    17A     -0.483238    18A     -0.474380

    Virtual:

      19A      0.177234    20A      0.194368    21A      0.230073
      22A      0.234080    23A      0.244737    24A      0.252493
      25A      0.265411    26A      0.276432    27A      0.285951
      28A      0.289167    29A      0.301601    30A      0.325743
      31A      0.386758    32A      0.416294    33A      0.583580
      34A      0.595986    35A      0.601659    36A      0.603472
      37A      0.614990    38A      0.626816    39A      0.669249
      40A      0.675857    41A      0.703371    42A      0.795541
      43A      0.844077    44A      0.863254    45A      0.885636
      46A      0.889991    47A      0.892886    48A      0.894011
      49A      0.898268    50A      0.900920    51A      0.913188
      52A      0.915123    53A      0.920714    54A      0.944559
      55A      0.976470    56A      1.001945    57A      1.119955
      58A      1.123309    59A      1.139284    60A      1.167830
      61A      1.231948    62A      1.278434    63A      1.465697
      64A      1.472914    65A      1.484646    66A      1.490709
      67A      1.553914    68A      1.598186    69A      1.675466
      70A      1.682730    71A      1.687632    72A      1.704224
      73A      1.851701    74A      1.863990    75A      1.866483
      76A      1.881194    77A      1.897569    78A      1.915620
      79A      1.927947    80A      1.933282    81A      1.942111
      82A      1.947352    83A      1.951156    84A      1.953572
      85A      1.957753    86A      1.971709    87A      1.991794
      88A      2.003256    89A      2.087254    90A      2.115741
      91A      2.129478    92A      2.138768    93A      2.297776
      94A      2.300842    95A      2.311717    96A      2.312811
      97A      2.432358    98A      2.444040    99A      2.459891
     100A      2.491342   101A      2.560249   102A      2.568216
     103A      2.578154   104A      2.581635   105A      2.760039
     106A      2.760943   107A      2.785155   108A      2.790010
     109A      2.837845   110A      2.839930   111A      2.858032
     112A      2.864681   113A      2.933894   114A      2.940527
     115A      2.963702   116A      2.997112

    Final Occupation by Irrep:
              A
    DOCC [    18 ]

  @RHF Final Energy:  -158.46489632196503

   => Energetics <=

    Nuclear Repulsion Energy =            120.2663801697878228
    One-Electron Energy =                -449.6461457472236134
    Two-Electron Energy =                 170.9148692554707907
    Total Energy =                       -158.4648963219650284

Computation Completed

Properties will be evaluated at   0.000000,   0.000000,   0.000000 [a0]

Properties computed using the SCF density matrix

  Nuclear Dipole Moment: [e a0]
     X:     0.0279      Y:     0.1034      Z:    -0.1034

  Electronic Dipole Moment: [e a0]
     X:    -0.0337      Y:    -0.0896      Z:     0.0704

  Dipole Moment: [e a0]
     X:    -0.0059      Y:     0.0137      Z:    -0.0330     Total:     0.0362

  Dipole Moment: [D]
     X:    -0.0149      Y:     0.0349      Z:    -0.0839     Total:     0.0921

*** tstop() called on ds3 at Sun Apr 26 20:13:26 2020
Module time:
	user time   =       6.88 seconds =       0.11 minutes
	system time =       3.05 seconds =       0.05 minutes
	total time  =         10 seconds =       0.17 minutes
Total time:
	user time   =       6.88 seconds =       0.11 minutes
	system time =       3.05 seconds =       0.05 minutes
	total time  =         10 seconds =       0.17 minutes
                                     G D M A

                                 by Anthony Stone

                           version 2.2.06, 22 June 2011

               Distributed Multipoles from Gaussian wavefunctions

Starting at 20:13:26 on 26 Apr 2020

Using SCF density matrix from file ./SSI/SSI-042ALA-082ILE-1-dimer.test.20682.fchk

                         Distributed Multipole Analysis

Standard DMA

Positions and radii in angstrom
Multipole moments in atomic units, ea_0^k for rank k

C          x = -0.934874  y = -0.255315  z = -1.630184 angstrom
           Maximum rank =  0   Radius =  0.650 angstrom
                   Q00  =  -0.236472

C          x = -0.875874  y = -1.429315  z = -2.597184 angstrom
           Maximum rank =  0   Radius =  0.650 angstrom
                   Q00  =  -0.232538

H          x = -0.855874  y = -0.626315  z = -0.608184 angstrom
           Maximum rank =  0   Radius =  0.325 angstrom
                   Q00  =   0.079902

H          x = -0.116874  y =  0.435685  z = -1.835184 angstrom
           Maximum rank =  0   Radius =  0.325 angstrom
                   Q00  =   0.077518

H          x = -1.882874  y =  0.271685  z = -1.746184 angstrom
           Maximum rank =  0   Radius =  0.325 angstrom
                   Q00  =   0.078687

H          x = -1.032874  y = -1.040315  z = -3.604184 angstrom
           Maximum rank =  0   Radius =  0.325 angstrom
                   Q00  =   0.074744

H          x = -1.673531  y = -2.153915  z = -2.376491 angstrom
           Maximum rank =  0   Radius =  0.325 angstrom
                   Q00  =   0.080134

H          x =  0.121742  y = -1.892465  z = -2.581337 angstrom
           Maximum rank =  0   Radius =  0.325 angstrom
                   Q00  =   0.078902

C          x =  1.104126  y =  0.347685  z =  1.562816 angstrom
           Maximum rank =  0   Radius =  0.650 angstrom
                   Q00  =  -0.237764

C          x =  0.704126  y =  1.327685  z =  2.673816 angstrom
           Maximum rank =  0   Radius =  0.650 angstrom
                   Q00  =  -0.240488

H          x =  0.895126  y = -0.681315  z =  1.857816 angstrom
           Maximum rank =  0   Radius =  0.325 angstrom
                   Q00  =   0.077786

H          x =  0.549126  y =  0.579685  z =  0.657816 angstrom
           Maximum rank =  0   Radius =  0.325 angstrom
                   Q00  =   0.084924

H          x =  2.168126  y =  0.444685  z =  1.339816 angstrom
           Maximum rank =  0   Radius =  0.325 angstrom
                   Q00  =   0.079188

H          x =  0.735126  y =  2.334685  z =  2.253816 angstrom
           Maximum rank =  0   Radius =  0.325 angstrom
                   Q00  =   0.075483

H          x =  1.439160  y =  1.293495  z =  3.491469 angstrom
           Maximum rank =  0   Radius =  0.325 angstrom
                   Q00  =   0.078328

H          x = -0.316673  y =  1.144685  z =  3.040532 angstrom
           Maximum rank =  0   Radius =  0.325 angstrom
                   Q00  =   0.081668

Total multipoles referred to origin at
           x =   0.000000,  y =    0.000000,  z =    0.000000 angstrom
                   Q00  =  -0.000000

Finished at 20:13:26 on 26 Apr 2020

  DMA results are available in the Python driver through the
	  variable('DMA DISTRIBUTED MULTIPOLES')
  and
	  variable('DMA TOTAL MULTIPOLES')
  commands.

    Psi4 stopped on: Sunday, 26 April 2020 08:13PM
    Psi4 wall time for execution: 0:00:09.79

*** Psi4 exiting successfully. Buy a developer a beer!
