                               Psi4 1.3.2 release

  ==> Input File <==

--------------------------------------------------------------------------
import numpy as np
set {scf_type pk
basis cc-pvdz
d_convergence 10
gdma_switch   0
gdma_limit    0
gdma_origin   [ 0.0,  0.0,  0.0 ]
}
molecule test {
    units Angstrom
    1 1
    --
    1 1
    C                1.307464195550784     1.477646959826137     1.127643940217324
    N                0.139464195550784     0.637646959826137     1.472643940217324
    H               -0.378535804449217     0.388646959826137     0.630643940217324
    H                0.432464195550783    -0.226353040173863     1.910643940217324
    H               -0.497535804449216     1.111646959826136     2.101643940217324
    H                1.918464195550783     0.981646959826136     0.368643940217324
    H                1.932464195550784     1.616646959826137     2.015643940217325
    H                1.014462195550784     2.471206959826137     0.757533940217324
    C               -1.108535804449216    -1.577353040173863    -1.544356059782676
    O               -0.339535804449216    -0.490353040173863    -1.074356059782676
    H                0.601464195550784    -0.656353040173864    -1.306356059782676
    H               -1.626535804449217    -2.020353040173863    -0.694356059782676
    H               -1.859259804449216    -1.206653040173863    -2.257796059782676
    H               -0.455142804449217    -2.350331040173863    -1.975146059782676

}
e, wfn = energy('scf', return_wfn=True)
gdma(wfn)
dmavals = variable('DMA DISTRIBUTED MULTIPOLES')
charges = np.array(dmavals)
print(charges)
np.save('SSI-030LYS-169THR-1-dimer.npy', np.array(charges))--------------------------------------------------------------------------

*** tstart() called on ds3
*** at Mon Apr 27 23:11:02 2020

   => Loading Basis Set <=

    Name: CC-PVDZ
    Role: ORBITAL
    Keyword: BASIS
    atoms 1, 9       entry C          line   138 file /theoryfs2/ds/metcalf/miniconda2/envs/tf2gpu/share/psi4/basis/cc-pvdz.gbs
    atoms 2          entry N          line   168 file /theoryfs2/ds/metcalf/miniconda2/envs/tf2gpu/share/psi4/basis/cc-pvdz.gbs
    atoms 3-8, 11-14 entry H          line    22 file /theoryfs2/ds/metcalf/miniconda2/envs/tf2gpu/share/psi4/basis/cc-pvdz.gbs
    atoms 10         entry O          line   198 file /theoryfs2/ds/metcalf/miniconda2/envs/tf2gpu/share/psi4/basis/cc-pvdz.gbs

         ---------------------------------------------------------
                                   SCF
               by Justin Turney, Rob Parrish, Andy Simmonett
                          and Daniel G. A. Smith
                              RHF Reference
                        1 Threads,    500 MiB Core
         ---------------------------------------------------------

  ==> Geometry <==

    Molecular point group: c1
    Full point group: C1

    Geometry (in Angstrom), charge = 1, multiplicity = 1:

       Center              X                  Y                   Z               Mass
    ------------   -----------------  -----------------  -----------------  -----------------
         C            1.307464195551     1.477646959826     1.127643940217    12.000000000000
         N            0.139464195551     0.637646959826     1.472643940217    14.003074004430
         H           -0.378535804449     0.388646959826     0.630643940217     1.007825032230
         H            0.432464195551    -0.226353040174     1.910643940217     1.007825032230
         H           -0.497535804449     1.111646959826     2.101643940217     1.007825032230
         H            1.918464195551     0.981646959826     0.368643940217     1.007825032230
         H            1.932464195551     1.616646959826     2.015643940217     1.007825032230
         H            1.014462195551     2.471206959826     0.757533940217     1.007825032230
         C           -1.108535804449    -1.577353040174    -1.544356059783    12.000000000000
         O           -0.339535804449    -0.490353040174    -1.074356059783    15.994914619570
         H            0.601464195551    -0.656353040174    -1.306356059783     1.007825032230
         H           -1.626535804449    -2.020353040174    -0.694356059783     1.007825032230
         H           -1.859259804449    -1.206653040174    -2.257796059783     1.007825032230
         H           -0.455142804449    -2.350331040174    -1.975146059783     1.007825032230

  Running in c1 symmetry.

  Rotational constants: A =      0.61022  B =      0.07126  C =      0.06646 [cm^-1]
  Rotational constants: A =  18293.90819  B =   2136.43783  C =   1992.53108 [MHz]
  Nuclear repulsion =  138.409741554238394

  Charge       = 1
  Multiplicity = 1
  Electrons    = 36
  Nalpha       = 18
  Nbeta        = 18

  ==> Algorithm <==

  SCF Algorithm Type is PK.
  DIIS enabled.
  MOM disabled.
  Fractional occupation disabled.
  Guess Type is SAD.
  Energy threshold   = 1.00e-06
  Density threshold  = 1.00e-10
  Integral threshold = 0.00e+00

  ==> Primary Basis <==

  Basis Set: CC-PVDZ
    Blend: CC-PVDZ
    Number of shells: 54
    Number of basis function: 106
    Number of Cartesian functions: 110
    Spherical Harmonics?: true
    Max angular momentum: 2

  ==> Pre-Iterations <==

   -------------------------------------------------------
    Irrep   Nso     Nmo     Nalpha   Nbeta   Ndocc  Nsocc
   -------------------------------------------------------
     A        106     106       0       0       0       0
   -------------------------------------------------------
    Total     106     106      18      18      18       0
   -------------------------------------------------------

  ==> Integral Setup <==

  Using in-core PK algorithm.
   Calculation information:
      Number of atoms:                  14
      Number of AO shells:              54
      Number of primitives:            138
      Number of atomic orbitals:       110
      Number of basis functions:       106

      Integral cutoff                 1.00e-12
      Number of threads:                 1

  Performing in-core PK
  Using 32165912 doubles for integral storage.
  We computed 958088 shell quartets total.
  Whereas there are 1103355 unique shell quartets.

  ==> DiskJK: Disk-Based J/K Matrices <==

    J tasked:                  Yes
    K tasked:                  Yes
    wK tasked:                  No
    Memory [MiB]:              375
    Schwarz Cutoff:          1E-12

    OpenMP threads:              1

  Minimum eigenvalue in the overlap matrix is 1.0989763429E-02.
  Using Symmetric Orthogonalization.

  SCF Guess: Superposition of Atomic Densities via on-the-fly atomic UHF.

  ==> Iterations <==

                        Total Energy        Delta E     RMS |[F,P]|

   @RHF iter SAD:  -209.96680680723333   -2.09967e+02   0.00000e+00
   @RHF iter   1:  -210.54588465557313   -5.79078e-01   4.02029e-03 DIIS
   @RHF iter   2:  -210.64211048591216   -9.62258e-02   1.68918e-03 DIIS
   @RHF iter   3:  -210.65537720207627   -1.32667e-02   5.16861e-04 DIIS
   @RHF iter   4:  -210.65717200465343   -1.79480e-03   1.02006e-04 DIIS
   @RHF iter   5:  -210.65724943991950   -7.74353e-05   2.76479e-05 DIIS
   @RHF iter   6:  -210.65725619912851   -6.75921e-06   6.00204e-06 DIIS
   @RHF iter   7:  -210.65725667015730   -4.71029e-07   1.64795e-06 DIIS
   @RHF iter   8:  -210.65725670703210   -3.68748e-08   5.83155e-07 DIIS
   @RHF iter   9:  -210.65725671006123   -3.02913e-09   1.11995e-07 DIIS
   @RHF iter  10:  -210.65725671020675   -1.45519e-10   2.17216e-08 DIIS
   @RHF iter  11:  -210.65725671021360   -6.84963e-12   6.27525e-09 DIIS
   @RHF iter  12:  -210.65725671021406   -4.54747e-13   1.52134e-09 DIIS
   @RHF iter  13:  -210.65725671021482   -7.67386e-13   4.21440e-10 DIIS
   @RHF iter  14:  -210.65725671021434    4.83169e-13   1.54891e-10 DIIS
   @RHF iter  15:  -210.65725671021482   -4.83169e-13   4.95438e-11 DIIS
  Energy and wave function converged.

  ==> Post-Iterations <==

    Orbital Energies [Eh]
    ---------------------

    Doubly Occupied:

       1A    -20.724628     2A    -15.885752     3A    -11.478781
       4A    -11.414860     5A     -1.522494     6A     -1.506447
       7A     -1.154469     8A     -1.064651     9A     -0.966943
      10A     -0.962632    11A     -0.853714    12A     -0.842165
      13A     -0.768180    14A     -0.755993    15A     -0.753360
      16A     -0.743632    17A     -0.649341    18A     -0.599502

    Virtual:

      19A     -0.036658    20A      0.015834    21A      0.030352
      22A      0.045141    23A      0.079105    24A      0.088054
      25A      0.114211    26A      0.117303    27A      0.148436
      28A      0.163065    29A      0.178288    30A      0.244551
      31A      0.380357    32A      0.391725    33A      0.424847
      34A      0.479588    35A      0.497474    36A      0.523882
      37A      0.542506    38A      0.601577    39A      0.652422
      40A      0.666208    41A      0.671610    42A      0.687947
      43A      0.715013    44A      0.724485    45A      0.734241
      46A      0.766522    47A      0.786568    48A      0.789775
      49A      0.835380    50A      0.918986    51A      0.930715
      52A      0.991905    53A      1.014062    54A      1.042358
      55A      1.085021    56A      1.146484    57A      1.192656
      58A      1.273140    59A      1.292966    60A      1.343465
      61A      1.421213    62A      1.476222    63A      1.526729
      64A      1.532707    65A      1.594485    66A      1.647570
      67A      1.675146    68A      1.687879    69A      1.707859
      70A      1.724018    71A      1.739774    72A      1.750047
      73A      1.767758    74A      1.784289    75A      1.808381
      76A      1.903564    77A      1.928980    78A      1.946565
      79A      1.960124    80A      1.969451    81A      1.982748
      82A      2.039582    83A      2.143911    84A      2.159843
      85A      2.234880    86A      2.256606    87A      2.262970
      88A      2.286391    89A      2.303618    90A      2.414232
      91A      2.495671    92A      2.503604    93A      2.541885
      94A      2.602594    95A      2.620857    96A      2.650245
      97A      2.735851    98A      2.771792    99A      2.778689
     100A      3.088157   101A      3.113313   102A      3.153179
     103A      3.218201   104A      3.287762   105A      3.428754
     106A      3.907410

    Final Occupation by Irrep:
              A
    DOCC [    18 ]

  @RHF Final Energy:  -210.65725671021482

   => Energetics <=

    Nuclear Repulsion Energy =            138.4097415542383942
    One-Electron Energy =                -552.8389079223330782
    Two-Electron Energy =                 203.7719096578798599
    Total Energy =                       -210.6572567102148241

Computation Completed

Properties will be evaluated at   0.000000,   0.000000,   0.000000 [a0]

Properties computed using the SCF density matrix

  Nuclear Dipole Moment: [e a0]
     X:     1.0126      Y:     0.0987      Z:     1.4447

  Electronic Dipole Moment: [e a0]
     X:    -0.3145      Y:     0.4433      Z:     0.4443

  Dipole Moment: [e a0]
     X:     0.6981      Y:     0.5419      Z:     1.8890     Total:     2.0855

  Dipole Moment: [D]
     X:     1.7745      Y:     1.3775      Z:     4.8014     Total:     5.3009

*** tstop() called on ds3 at Mon Apr 27 23:11:12 2020
Module time:
	user time   =      10.08 seconds =       0.17 minutes
	system time =       0.44 seconds =       0.01 minutes
	total time  =         10 seconds =       0.17 minutes
Total time:
	user time   =      10.08 seconds =       0.17 minutes
	system time =       0.44 seconds =       0.01 minutes
	total time  =         10 seconds =       0.17 minutes
                                     G D M A

                                 by Anthony Stone

                           version 2.2.06, 22 June 2011

               Distributed Multipoles from Gaussian wavefunctions

Starting at 23:11:12 on 27 Apr 2020

Using SCF density matrix from file ./SSI/SSI-030LYS-169THR-1-dimer.test.1487.fchk

                         Distributed Multipole Analysis

Standard DMA

Positions and radii in angstrom
Multipole moments in atomic units, ea_0^k for rank k

C          x =  1.307464  y =  1.477647  z =  1.127644 angstrom
           Maximum rank =  0   Radius =  0.650 angstrom
                   Q00  =  -0.148668

N          x =  0.139464  y =  0.637647  z =  1.472644 angstrom
           Maximum rank =  0   Radius =  0.650 angstrom
                   Q00  =  -0.142595

H          x = -0.378536  y =  0.388647  z =  0.630644 angstrom
           Maximum rank =  0   Radius =  0.325 angstrom
                   Q00  =   0.285858

H          x =  0.432464  y = -0.226353  z =  1.910644 angstrom
           Maximum rank =  0   Radius =  0.325 angstrom
                   Q00  =   0.249886

H          x = -0.497536  y =  1.111647  z =  2.101644 angstrom
           Maximum rank =  0   Radius =  0.325 angstrom
                   Q00  =   0.249638

H          x =  1.918464  y =  0.981647  z =  0.368644 angstrom
           Maximum rank =  0   Radius =  0.325 angstrom
                   Q00  =   0.150518

H          x =  1.932464  y =  1.616647  z =  2.015644 angstrom
           Maximum rank =  0   Radius =  0.325 angstrom
                   Q00  =   0.153670

H          x =  1.014462  y =  2.471207  z =  0.757534 angstrom
           Maximum rank =  0   Radius =  0.325 angstrom
                   Q00  =   0.165266

C          x = -1.108536  y = -1.577353  z = -1.544356 angstrom
           Maximum rank =  0   Radius =  0.650 angstrom
                   Q00  =  -0.070962

O          x = -0.339536  y = -0.490353  z = -1.074356 angstrom
           Maximum rank =  0   Radius =  0.650 angstrom
                   Q00  =  -0.645857

H          x =  0.601464  y = -0.656353  z = -1.306356 angstrom
           Maximum rank =  0   Radius =  0.325 angstrom
                   Q00  =   0.421693

H          x = -1.626536  y = -2.020353  z = -0.694356 angstrom
           Maximum rank =  0   Radius =  0.325 angstrom
                   Q00  =   0.095670

H          x = -1.859260  y = -1.206653  z = -2.257796 angstrom
           Maximum rank =  0   Radius =  0.325 angstrom
                   Q00  =   0.127809

H          x = -0.455143  y = -2.350331  z = -1.975146 angstrom
           Maximum rank =  0   Radius =  0.325 angstrom
                   Q00  =   0.108073

Total multipoles referred to origin at
           x =   0.000000,  y =    0.000000,  z =    0.000000 angstrom
                   Q00  =   1.000000

Finished at 23:11:12 on 27 Apr 2020

  DMA results are available in the Python driver through the
	  variable('DMA DISTRIBUTED MULTIPOLES')
  and
	  variable('DMA TOTAL MULTIPOLES')
  commands.

    Psi4 stopped on: Monday, 27 April 2020 11:11PM
    Psi4 wall time for execution: 0:00:10.76

*** Psi4 exiting successfully. Buy a developer a beer!
