                               Psi4 1.3.2 release

  ==> Input File <==

--------------------------------------------------------------------------
import numpy as np
set {scf_type pk
basis cc-pvdz
d_convergence 10
gdma_switch   0
gdma_limit    0
gdma_origin   [ 0.0,  0.0,  0.0 ]
}
molecule test {
    units Angstrom
    0 1
    --
    0 1
    C               -0.319410257208566     0.974495490638062     0.916906105738501
    C               -0.112410257208566    -0.162504509361938     1.889906105738500
    C               -0.551410257208566     2.194495490638062     1.786906105738501
    H               -1.193410257208566     0.785495490638062     0.295906105738501
    H                0.563589742791434     1.133495490638062     0.300906105738501
    H               -0.641410257208566    -1.055504509361938     1.553906105738501
    H                0.954589742791434    -0.363504509361938     1.998906105738500
    H               -1.138410257208566     2.961495490638062     1.284906105738501
    H                0.412589742791434     2.609495490638062     2.087906105738500
    H               -0.522908257208566     0.215094490638062     2.838015105738501
    H               -1.062097257208566     1.795839490638062     2.675879105738501
    C                0.251589742791434    -1.295504509361939    -1.557093894261499
    C                0.712589742791434    -1.640504509361938    -2.987093894261499
    H                0.630589742791434    -0.317504509361938    -1.284093894261499
    H               -0.833410257208566    -1.303504509361938    -1.509093894261499
    H                0.621589742791434    -2.035504509361938    -0.846093894261499
    H                0.446589742791434    -2.681504509361938    -3.180093894261499
    H                1.805344742791434    -1.538819509361938    -3.061566894261500
    H                0.183603742791434    -1.044232339361938    -3.745139894261499

}
e, wfn = energy('scf', return_wfn=True)
gdma(wfn)
dmavals = variable('DMA DISTRIBUTED MULTIPOLES')
charges = np.array(dmavals)
print(charges)
np.save('SSI-011PRO-020ILE-1-dimer.npy', np.array(charges))--------------------------------------------------------------------------

*** tstart() called on ds3
*** at Mon Apr 27 22:47:22 2020

   => Loading Basis Set <=

    Name: CC-PVDZ
    Role: ORBITAL
    Keyword: BASIS
    atoms 1-3, 12-13  entry C          line   138 file /theoryfs2/ds/metcalf/miniconda2/envs/tf2gpu/share/psi4/basis/cc-pvdz.gbs
    atoms 4-11, 14-19 entry H          line    22 file /theoryfs2/ds/metcalf/miniconda2/envs/tf2gpu/share/psi4/basis/cc-pvdz.gbs

         ---------------------------------------------------------
                                   SCF
               by Justin Turney, Rob Parrish, Andy Simmonett
                          and Daniel G. A. Smith
                              RHF Reference
                        1 Threads,    500 MiB Core
         ---------------------------------------------------------

  ==> Geometry <==

    Molecular point group: c1
    Full point group: C1

    Geometry (in Angstrom), charge = 0, multiplicity = 1:

       Center              X                  Y                   Z               Mass
    ------------   -----------------  -----------------  -----------------  -----------------
         C           -0.319410257209     0.974495490638     0.916906105739    12.000000000000
         C           -0.112410257209    -0.162504509362     1.889906105738    12.000000000000
         C           -0.551410257209     2.194495490638     1.786906105739    12.000000000000
         H           -1.193410257209     0.785495490638     0.295906105739     1.007825032230
         H            0.563589742791     1.133495490638     0.300906105739     1.007825032230
         H           -0.641410257209    -1.055504509362     1.553906105739     1.007825032230
         H            0.954589742791    -0.363504509362     1.998906105738     1.007825032230
         H           -1.138410257209     2.961495490638     1.284906105739     1.007825032230
         H            0.412589742791     2.609495490638     2.087906105738     1.007825032230
         H           -0.522908257209     0.215094490638     2.838015105739     1.007825032230
         H           -1.062097257209     1.795839490638     2.675879105739     1.007825032230
         C            0.251589742791    -1.295504509362    -1.557093894261    12.000000000000
         C            0.712589742791    -1.640504509362    -2.987093894261    12.000000000000
         H            0.630589742791    -0.317504509362    -1.284093894261     1.007825032230
         H           -0.833410257209    -1.303504509362    -1.509093894261     1.007825032230
         H            0.621589742791    -2.035504509362    -0.846093894261     1.007825032230
         H            0.446589742791    -2.681504509362    -3.180093894261     1.007825032230
         H            1.805344742791    -1.538819509362    -3.061566894261     1.007825032230
         H            0.183603742791    -1.044232339362    -3.745139894261     1.007825032230

  Running in c1 symmetry.

  Rotational constants: A =      0.32220  B =      0.03885  C =      0.03595 [cm^-1]
  Rotational constants: A =   9659.30609  B =   1164.64881  C =   1077.62511 [MHz]
  Nuclear repulsion =  180.996791732938107

  Charge       = 0
  Multiplicity = 1
  Electrons    = 44
  Nalpha       = 22
  Nbeta        = 22

  ==> Algorithm <==

  SCF Algorithm Type is PK.
  DIIS enabled.
  MOM disabled.
  Fractional occupation disabled.
  Guess Type is SAD.
  Energy threshold   = 1.00e-06
  Density threshold  = 1.00e-10
  Integral threshold = 0.00e+00

  ==> Primary Basis <==

  Basis Set: CC-PVDZ
    Blend: CC-PVDZ
    Number of shells: 72
    Number of basis function: 140
    Number of Cartesian functions: 145
    Spherical Harmonics?: true
    Max angular momentum: 2

  ==> Pre-Iterations <==

   -------------------------------------------------------
    Irrep   Nso     Nmo     Nalpha   Nbeta   Ndocc  Nsocc
   -------------------------------------------------------
     A        140     140       0       0       0       0
   -------------------------------------------------------
    Total     140     140      22      22      22       0
   -------------------------------------------------------

  ==> Integral Setup <==

  Using integral reordering PK algorithm.
  Sizing the integral batches needed.
  Building batch lookup table.
   Calculation information:
      Number of atoms:                  19
      Number of AO shells:              72
      Number of primitives:            180
      Number of atomic orbitals:       145
      Number of basis functions:       140

      Integral cutoff                 1.00e-12
      Number of threads:                 1

	Batch   1 pq = [       0,    9405] index = [             0,44231715] size =     44231715
	Batch   2 pq = [    9405,    9870] index = [      44231715,48713385] size =      4481670
  Task number: 5
  Buffer size: 11059200
  Buffer per thread: 2
  We computed 2857707 shell quartets total.
  Whereas there are 3454506 unique shell quartets.

  ==> DiskJK: Disk-Based J/K Matrices <==

    J tasked:                  Yes
    K tasked:                  Yes
    wK tasked:                  No
    Memory [MiB]:              375
    Schwarz Cutoff:          1E-12

    OpenMP threads:              1

  Minimum eigenvalue in the overlap matrix is 4.3860428864E-03.
  Using Symmetric Orthogonalization.

  SCF Guess: Superposition of Atomic Densities via on-the-fly atomic UHF.

  ==> Iterations <==

                        Total Energy        Delta E     RMS |[F,P]|

   @RHF iter SAD:  -196.52931711982279   -1.96529e+02   0.00000e+00
   @RHF iter   1:  -197.28639539580314   -7.57078e-01   3.85688e-03 DIIS
   @RHF iter   2:  -197.44914511446513   -1.62750e-01   1.66835e-03 DIIS
   @RHF iter   3:  -197.47841661068131   -2.92715e-02   3.29824e-04 DIIS
   @RHF iter   4:  -197.48063631861282   -2.21971e-03   5.10769e-05 DIIS
   @RHF iter   5:  -197.48067821561881   -4.18970e-05   1.54937e-05 DIIS
   @RHF iter   6:  -197.48068192601687   -3.71040e-06   2.60944e-06 DIIS
   @RHF iter   7:  -197.48068204905863   -1.23042e-07   4.74109e-07 DIIS
   @RHF iter   8:  -197.48068205359789   -4.53926e-09   1.05243e-07 DIIS
   @RHF iter   9:  -197.48068205381622   -2.18336e-10   3.31279e-08 DIIS
   @RHF iter  10:  -197.48068205383890   -2.26805e-11   7.07838e-09 DIIS
   @RHF iter  11:  -197.48068205383964   -7.38964e-13   1.38177e-09 DIIS
   @RHF iter  12:  -197.48068205383950    1.42109e-13   2.97040e-10 DIIS
   @RHF iter  13:  -197.48068205384106   -1.56319e-12   8.17630e-11 DIIS
  Energy and wave function converged.

  ==> Post-Iterations <==

    Orbital Energies [Eh]
    ---------------------

    Doubly Occupied:

       1A    -11.219360     2A    -11.215006     3A    -11.212295
       4A    -11.211413     5A    -11.210436     6A     -1.066984
       7A     -1.014544     8A     -0.914650     9A     -0.838215
      10A     -0.797533    11A     -0.635413    12A     -0.615676
      13A     -0.598933    14A     -0.593403    15A     -0.540347
      16A     -0.514736    17A     -0.497347    18A     -0.491365
      19A     -0.488484    20A     -0.470615    21A     -0.464841
      22A     -0.458958

    Virtual:

      23A      0.175417    24A      0.196136    25A      0.210430
      26A      0.225991    27A      0.228235    28A      0.253220
      29A      0.260827    30A      0.269894    31A      0.282423
      32A      0.287280    33A      0.301404    34A      0.306104
      35A      0.326930    36A      0.362181    37A      0.375661
      38A      0.405944    39A      0.445332    40A      0.561582
      41A      0.570818    42A      0.593289    43A      0.595570
      44A      0.618268    45A      0.641108    46A      0.658852
      47A      0.685258    48A      0.730710    49A      0.765587
      50A      0.777218    51A      0.810514    52A      0.837959
      53A      0.862668    54A      0.881173    55A      0.889911
      56A      0.892754    57A      0.895867    58A      0.905704
      59A      0.908447    60A      0.911965    61A      0.914932
      62A      0.929304    63A      0.933696    64A      0.949391
      65A      0.960149    66A      0.968583    67A      0.991494
      68A      1.029816    69A      1.080198    70A      1.107444
      71A      1.126072    72A      1.146548    73A      1.185223
      74A      1.284292    75A      1.405344    76A      1.464685
      77A      1.477416    78A      1.494417    79A      1.517297
      80A      1.580223    81A      1.617229    82A      1.632314
      83A      1.640480    84A      1.680106    85A      1.694892
      86A      1.720264    87A      1.736946    88A      1.805097
      89A      1.847022    90A      1.873810    91A      1.876560
      92A      1.891418    93A      1.902256    94A      1.918474
      95A      1.921844    96A      1.933890    97A      1.938714
      98A      1.950345    99A      1.954699   100A      1.965491
     101A      1.980923   102A      2.004438   103A      2.014135
     104A      2.034350   105A      2.062066   106A      2.068649
     107A      2.083293   108A      2.121157   109A      2.159957
     110A      2.174042   111A      2.242150   112A      2.268800
     113A      2.303709   114A      2.316164   115A      2.337039
     116A      2.385022   117A      2.426979   118A      2.437615
     119A      2.454151   120A      2.473290   121A      2.511128
     122A      2.557394   123A      2.571809   124A      2.598494
     125A      2.655818   126A      2.708721   127A      2.760464
     128A      2.769625   129A      2.782176   130A      2.798269
     131A      2.814854   132A      2.842922   133A      2.847621
     134A      2.856161   135A      2.861346   136A      2.915574
     137A      2.932406   138A      2.943817   139A      2.979905
     140A      3.063559

    Final Occupation by Irrep:
              A
    DOCC [    22 ]

  @RHF Final Energy:  -197.48068205384106

   => Energetics <=

    Nuclear Repulsion Energy =            180.9967917329381066
    One-Electron Energy =                -622.8138363976238452
    Two-Electron Energy =                 244.3363626108446738
    Total Energy =                       -197.4806820538410648

Computation Completed

Properties will be evaluated at   0.000000,   0.000000,   0.000000 [a0]

Properties computed using the SCF density matrix

  Nuclear Dipole Moment: [e a0]
     X:     0.2127      Y:    -0.7867      Z:    -0.5529

  Electronic Dipole Moment: [e a0]
     X:    -0.2112      Y:     0.7827      Z:     0.5248

  Dipole Moment: [e a0]
     X:     0.0015      Y:    -0.0040      Z:    -0.0281     Total:     0.0284

  Dipole Moment: [D]
     X:     0.0037      Y:    -0.0103      Z:    -0.0715     Total:     0.0723

*** tstop() called on ds3 at Mon Apr 27 22:47:45 2020
Module time:
	user time   =      16.44 seconds =       0.27 minutes
	system time =       7.23 seconds =       0.12 minutes
	total time  =         23 seconds =       0.38 minutes
Total time:
	user time   =      16.44 seconds =       0.27 minutes
	system time =       7.23 seconds =       0.12 minutes
	total time  =         23 seconds =       0.38 minutes
                                     G D M A

                                 by Anthony Stone

                           version 2.2.06, 22 June 2011

               Distributed Multipoles from Gaussian wavefunctions

Starting at 22:47:45 on 27 Apr 2020

Using SCF density matrix from file ./SSI/SSI-011PRO-020ILE-1-dimer.test.23838.fchk

                         Distributed Multipole Analysis

Standard DMA

Positions and radii in angstrom
Multipole moments in atomic units, ea_0^k for rank k

C          x = -0.319410  y =  0.974495  z =  0.916906 angstrom
           Maximum rank =  0   Radius =  0.650 angstrom
                   Q00  =  -0.126065

C          x = -0.112410  y = -0.162505  z =  1.889906 angstrom
           Maximum rank =  0   Radius =  0.650 angstrom
                   Q00  =  -0.231730

C          x = -0.551410  y =  2.194495  z =  1.786906 angstrom
           Maximum rank =  0   Radius =  0.650 angstrom
                   Q00  =  -0.205238

H          x = -1.193410  y =  0.785495  z =  0.295906 angstrom
           Maximum rank =  0   Radius =  0.325 angstrom
                   Q00  =   0.054374

H          x =  0.563590  y =  1.133495  z =  0.300906 angstrom
           Maximum rank =  0   Radius =  0.325 angstrom
                   Q00  =   0.057766

H          x = -0.641410  y = -1.055505  z =  1.553906 angstrom
           Maximum rank =  0   Radius =  0.325 angstrom
                   Q00  =   0.088983

H          x =  0.954590  y = -0.363505  z =  1.998906 angstrom
           Maximum rank =  0   Radius =  0.325 angstrom
                   Q00  =   0.084341

H          x = -1.138410  y =  2.961495  z =  1.284906 angstrom
           Maximum rank =  0   Radius =  0.325 angstrom
                   Q00  =   0.082564

H          x =  0.412590  y =  2.609495  z =  2.087906 angstrom
           Maximum rank =  0   Radius =  0.325 angstrom
                   Q00  =   0.081175

H          x = -0.522908  y =  0.215094  z =  2.838015 angstrom
           Maximum rank =  0   Radius =  0.325 angstrom
                   Q00  =   0.065783

H          x = -1.062097  y =  1.795839  z =  2.675879 angstrom
           Maximum rank =  0   Radius =  0.325 angstrom
                   Q00  =   0.049641

C          x =  0.251590  y = -1.295505  z = -1.557094 angstrom
           Maximum rank =  0   Radius =  0.650 angstrom
                   Q00  =  -0.246406

C          x =  0.712590  y = -1.640505  z = -2.987094 angstrom
           Maximum rank =  0   Radius =  0.650 angstrom
                   Q00  =  -0.240077

H          x =  0.630590  y = -0.317505  z = -1.284094 angstrom
           Maximum rank =  0   Radius =  0.325 angstrom
                   Q00  =   0.085701

H          x = -0.833410  y = -1.303505  z = -1.509094 angstrom
           Maximum rank =  0   Radius =  0.325 angstrom
                   Q00  =   0.079166

H          x =  0.621590  y = -2.035505  z = -0.846094 angstrom
           Maximum rank =  0   Radius =  0.325 angstrom
                   Q00  =   0.080915

H          x =  0.446590  y = -2.681505  z = -3.180094 angstrom
           Maximum rank =  0   Radius =  0.325 angstrom
                   Q00  =   0.076207

H          x =  1.805345  y = -1.538820  z = -3.061567 angstrom
           Maximum rank =  0   Radius =  0.325 angstrom
                   Q00  =   0.081070

H          x =  0.183604  y = -1.044232  z = -3.745140 angstrom
           Maximum rank =  0   Radius =  0.325 angstrom
                   Q00  =   0.081832

Total multipoles referred to origin at
           x =   0.000000,  y =    0.000000,  z =    0.000000 angstrom
                   Q00  =  -0.000000

Finished at 22:47:45 on 27 Apr 2020

  DMA results are available in the Python driver through the
	  variable('DMA DISTRIBUTED MULTIPOLES')
  and
	  variable('DMA TOTAL MULTIPOLES')
  commands.

    Psi4 stopped on: Monday, 27 April 2020 10:47PM
    Psi4 wall time for execution: 0:00:23.15

*** Psi4 exiting successfully. Buy a developer a beer!
