                               Psi4 1.3.2 release

  ==> Input File <==

--------------------------------------------------------------------------
import numpy as np
set {scf_type pk
basis cc-pvdz
d_convergence 10
gdma_switch   0
gdma_limit    0
gdma_origin   [ 0.0,  0.0,  0.0 ]
}
molecule test {
    units Angstrom
    0 1
    --
    0 1
    C               -0.043410273069761     2.806792614305223    -3.154398968937426
    C                0.324589726930239     0.192792614305223    -0.400398968937425
    C                1.109589726930239     0.879792614305223     0.525601031062574
    C               -0.051410273069761     0.813792614305223    -1.591398968937426
    C                0.351589726930239     2.125792614305223    -1.871398968937426
    C                1.516589726930239     2.185792614305223     0.256601031062575
    C                1.136589726930239     2.803792614305223    -0.937398968937425
    H                0.021589726930239    -0.825207385694777    -0.203398968937425
    H                1.400589726930239     0.398792614305223     1.449601031062574
    H               -0.630410273069761     0.227792614305223    -2.285398968937426
    H                2.123589726930240     2.721792614305223     0.974601031062575
    H                0.836589726930239     2.992792614305223    -3.764398968937426
    H               -0.457410273069761     3.779792614305223    -2.880398968937426
    H                1.455589726930239     3.818792614305223    -1.136398968937426
    H               -0.800910273069761     2.268082614305223    -3.742608968937426
    C               -2.162410273069761    -1.961207385694777     2.006601031062574
    C               -0.879410273069761    -2.677207385694777     1.670601031062574
    O                0.153589726930239    -2.408207385694777     2.277601031062575
    N               -0.917410273069761    -3.578207385694777     0.709601031062575
    H               -2.937410273069760    -1.827207385694777     1.289601031062574
    H               -1.832410273069761    -0.921207385694777     2.010601031062574
    H               -0.069410273069761    -4.071207385694777     0.477601031062575
    H               -1.820410273069761    -3.887207385694777     0.378601031062575
    H               -2.486690273069761    -2.112487385694777     3.046771031062574

}
e, wfn = energy('scf', return_wfn=True)
gdma(wfn)
dmavals = variable('DMA DISTRIBUTED MULTIPOLES')
charges = np.array(dmavals)
print(charges)
np.save('SSI-075PHE-182ASN-1-dimer.npy', np.array(charges))--------------------------------------------------------------------------

*** tstart() called on ds3
*** at Mon Apr 27 15:59:51 2020

   => Loading Basis Set <=

    Name: CC-PVDZ
    Role: ORBITAL
    Keyword: BASIS
    atoms 1-7, 16-17  entry C          line   138 file /theoryfs2/ds/metcalf/miniconda2/envs/tf2gpu/share/psi4/basis/cc-pvdz.gbs
    atoms 8-15, 20-24 entry H          line    22 file /theoryfs2/ds/metcalf/miniconda2/envs/tf2gpu/share/psi4/basis/cc-pvdz.gbs
    atoms 18          entry O          line   198 file /theoryfs2/ds/metcalf/miniconda2/envs/tf2gpu/share/psi4/basis/cc-pvdz.gbs
    atoms 19          entry N          line   168 file /theoryfs2/ds/metcalf/miniconda2/envs/tf2gpu/share/psi4/basis/cc-pvdz.gbs

         ---------------------------------------------------------
                                   SCF
               by Justin Turney, Rob Parrish, Andy Simmonett
                          and Daniel G. A. Smith
                              RHF Reference
                        1 Threads,    500 MiB Core
         ---------------------------------------------------------

  ==> Geometry <==

    Molecular point group: c1
    Full point group: C1

    Geometry (in Angstrom), charge = 0, multiplicity = 1:

       Center              X                  Y                   Z               Mass
    ------------   -----------------  -----------------  -----------------  -----------------
         C           -0.043410273070     2.806792614305    -3.154398968937    12.000000000000
         C            0.324589726930     0.192792614305    -0.400398968937    12.000000000000
         C            1.109589726930     0.879792614305     0.525601031063    12.000000000000
         C           -0.051410273070     0.813792614305    -1.591398968937    12.000000000000
         C            0.351589726930     2.125792614305    -1.871398968937    12.000000000000
         C            1.516589726930     2.185792614305     0.256601031063    12.000000000000
         C            1.136589726930     2.803792614305    -0.937398968937    12.000000000000
         H            0.021589726930    -0.825207385695    -0.203398968937     1.007825032230
         H            1.400589726930     0.398792614305     1.449601031063     1.007825032230
         H           -0.630410273070     0.227792614305    -2.285398968937     1.007825032230
         H            2.123589726930     2.721792614305     0.974601031063     1.007825032230
         H            0.836589726930     2.992792614305    -3.764398968937     1.007825032230
         H           -0.457410273070     3.779792614305    -2.880398968937     1.007825032230
         H            1.455589726930     3.818792614305    -1.136398968937     1.007825032230
         H           -0.800910273070     2.268082614305    -3.742608968937     1.007825032230
         C           -2.162410273070    -1.961207385695     2.006601031063    12.000000000000
         C           -0.879410273070    -2.677207385695     1.670601031063    12.000000000000
         O            0.153589726930    -2.408207385695     2.277601031063    15.994914619570
         N           -0.917410273070    -3.578207385695     0.709601031063    14.003074004430
         H           -2.937410273070    -1.827207385695     1.289601031063     1.007825032230
         H           -1.832410273070    -0.921207385695     2.010601031063     1.007825032230
         H           -0.069410273070    -4.071207385695     0.477601031063     1.007825032230
         H           -1.820410273070    -3.887207385695     0.378601031063     1.007825032230
         H           -2.486690273070    -2.112487385695     3.046771031063     1.007825032230

  Running in c1 symmetry.

  Rotational constants: A =      0.07098  B =      0.01352  C =      0.01230 [cm^-1]
  Rotational constants: A =   2127.94786  B =    405.23453  C =    368.88944 [MHz]
  Nuclear repulsion =  548.902623507268800

  Charge       = 0
  Multiplicity = 1
  Electrons    = 82
  Nalpha       = 41
  Nbeta        = 41

  ==> Algorithm <==

  SCF Algorithm Type is PK.
  DIIS enabled.
  MOM disabled.
  Fractional occupation disabled.
  Guess Type is SAD.
  Energy threshold   = 1.00e-06
  Density threshold  = 1.00e-10
  Integral threshold = 0.00e+00

  ==> Primary Basis <==

  Basis Set: CC-PVDZ
    Blend: CC-PVDZ
    Number of shells: 105
    Number of basis function: 219
    Number of Cartesian functions: 230
    Spherical Harmonics?: true
    Max angular momentum: 2

  ==> Pre-Iterations <==

   -------------------------------------------------------
    Irrep   Nso     Nmo     Nalpha   Nbeta   Ndocc  Nsocc
   -------------------------------------------------------
     A        219     219       0       0       0       0
   -------------------------------------------------------
    Total     219     219      41      41      41       0
   -------------------------------------------------------

  ==> Integral Setup <==

  Using integral reordering PK algorithm.
  Sizing the integral batches needed.
  Building batch lookup table.
   Calculation information:
      Number of atoms:                  24
      Number of AO shells:             105
      Number of primitives:            307
      Number of atomic orbitals:       230
      Number of basis functions:       219

      Integral cutoff                 1.00e-12
      Number of threads:                 1

	Batch   1 pq = [       0,    9405] index = [             0,44231715] size =     44231715
	Batch   2 pq = [    9405,   13301] index = [      44231715,88464951] size =     44233236
	Batch   3 pq = [   13301,   16290] index = [      88464951,132690195] size =     44225244
	Batch   4 pq = [   16290,   18810] index = [     132690195,176917455] size =     44227260
	Batch   5 pq = [   18810,   21030] index = [     176917455,221140965] size =     44223510
	Batch   6 pq = [   21030,   23037] index = [     221140965,265363203] size =     44222238
	Batch   7 pq = [   23037,   24090] index = [     265363203,290176095] size =     24812892
  Task number: 27
  Buffer size: 11059200
  Buffer per thread: 2
  We computed 12470825 shell quartets total.
  Whereas there are 15487395 unique shell quartets.

  ==> DiskJK: Disk-Based J/K Matrices <==

    J tasked:                  Yes
    K tasked:                  Yes
    wK tasked:                  No
    Memory [MiB]:              375
    Schwarz Cutoff:          1E-12

    OpenMP threads:              1

  Minimum eigenvalue in the overlap matrix is 3.0772357763E-04.
  Using Symmetric Orthogonalization.

  SCF Guess: Superposition of Atomic Densities via on-the-fly atomic UHF.

  ==> Iterations <==

                        Total Energy        Delta E     RMS |[F,P]|

   @RHF iter SAD:  -476.46233036235554   -4.76462e+02   0.00000e+00
   @RHF iter   1:  -477.45105985392553   -9.88729e-01   3.20324e-03 DIIS
   @RHF iter   2:  -477.68383689405113   -2.32777e-01   1.69149e-03 DIIS
   @RHF iter   3:  -477.73818526902880   -5.43484e-02   3.90923e-04 DIIS
   @RHF iter   4:  -477.74240338820533   -4.21812e-03   1.54131e-04 DIIS
   @RHF iter   5:  -477.74307768664852   -6.74298e-04   2.34617e-05 DIIS
   @RHF iter   6:  -477.74310949309040   -3.18064e-05   1.07655e-05 DIIS
   @RHF iter   7:  -477.74311517429089   -5.68120e-06   3.99701e-06 DIIS
   @RHF iter   8:  -477.74311629731545   -1.12302e-06   1.56507e-06 DIIS
   @RHF iter   9:  -477.74311645466543   -1.57350e-07   6.07839e-07 DIIS
   @RHF iter  10:  -477.74311647250022   -1.78348e-08   1.76332e-07 DIIS
   @RHF iter  11:  -477.74311647447956   -1.97934e-09   4.99175e-08 DIIS
   @RHF iter  12:  -477.74311647462855   -1.48987e-10   2.09215e-08 DIIS
   @RHF iter  13:  -477.74311647466266   -3.41061e-11   8.13553e-09 DIIS
   @RHF iter  14:  -477.74311647466834   -5.68434e-12   4.04688e-09 DIIS
   @RHF iter  15:  -477.74311647467073   -2.38742e-12   2.01483e-09 DIIS
   @RHF iter  16:  -477.74311647466345    7.27596e-12   6.29845e-10 DIIS
   @RHF iter  17:  -477.74311647466948   -6.02540e-12   1.82851e-10 DIIS
   @RHF iter  18:  -477.74311647466823    1.25056e-12   8.03071e-11 DIIS
  Energy and wave function converged.

  ==> Post-Iterations <==

    Orbital Energies [Eh]
    ---------------------

    Doubly Occupied:

       1A    -20.505396     2A    -15.594042     3A    -11.351965
       4A    -11.237452     5A    -11.236047     6A    -11.229487
       7A    -11.227250     8A    -11.226520     9A    -11.225794
      10A    -11.225237    11A    -11.221615    12A     -1.373003
      13A     -1.223784    14A     -1.143793    15A     -1.037085
      16A     -1.004775    17A     -1.003777    18A     -0.925581
      19A     -0.816307    20A     -0.805326    21A     -0.789221
      22A     -0.736380    23A     -0.682124    24A     -0.664259
      25A     -0.627206    26A     -0.623327    27A     -0.613104
      28A     -0.578072    29A     -0.575061    30A     -0.573064
      31A     -0.555113    32A     -0.547208    33A     -0.532343
      34A     -0.511091    35A     -0.479425    36A     -0.477694
      37A     -0.473789    38A     -0.416533    39A     -0.407470
      40A     -0.325589    41A     -0.313273

    Virtual:

      42A      0.139090    43A      0.148928    44A      0.161654
      45A      0.191373    46A      0.195340    47A      0.212578
      48A      0.216189    49A      0.224379    50A      0.230590
      51A      0.253132    52A      0.264826    53A      0.271788
      54A      0.274662    55A      0.284755    56A      0.296250
      57A      0.307186    58A      0.371865    59A      0.379308
      60A      0.390042    61A      0.442344    62A      0.462606
      63A      0.470888    64A      0.495370    65A      0.509802
      66A      0.571753    67A      0.581695    68A      0.601362
      69A      0.609505    70A      0.625422    71A      0.673735
      72A      0.682762    73A      0.683189    74A      0.700226
      75A      0.703607    76A      0.723033    77A      0.728081
      78A      0.744961    79A      0.745571    80A      0.751545
      81A      0.756150    82A      0.765973    83A      0.777324
      84A      0.783467    85A      0.810290    86A      0.833787
      87A      0.838885    88A      0.844409    89A      0.854068
      90A      0.866328    91A      0.873178    92A      0.883928
      93A      0.892287    94A      0.903199    95A      0.917737
      96A      0.919516    97A      0.933593    98A      0.935084
      99A      0.944144   100A      0.950076   101A      0.964155
     102A      0.994429   103A      0.998556   104A      1.006190
     105A      1.040227   106A      1.057080   107A      1.076418
     108A      1.118666   109A      1.123265   110A      1.147114
     111A      1.158876   112A      1.163352   113A      1.203429
     114A      1.208782   115A      1.233000   116A      1.251960
     117A      1.259154   118A      1.274697   119A      1.292813
     120A      1.300365   121A      1.314975   122A      1.322463
     123A      1.335086   124A      1.350721   125A      1.380990
     126A      1.414324   127A      1.429367   128A      1.439491
     129A      1.458843   130A      1.517227   131A      1.519576
     132A      1.544206   133A      1.570615   134A      1.612302
     135A      1.645377   136A      1.658637   137A      1.680009
     138A      1.689387   139A      1.738883   140A      1.744646
     141A      1.754417   142A      1.766448   143A      1.795534
     144A      1.805736   145A      1.812065   146A      1.818165
     147A      1.854787   148A      1.863527   149A      1.894734
     150A      1.906586   151A      1.911936   152A      1.921860
     153A      1.929311   154A      1.933754   155A      1.948032
     156A      1.958881   157A      1.969066   158A      1.975754
     159A      1.980435   160A      1.991254   161A      2.004286
     162A      2.022561   163A      2.034241   164A      2.041034
     165A      2.064149   166A      2.081264   167A      2.091064
     168A      2.099646   169A      2.118794   170A      2.139836
     171A      2.168493   172A      2.172262   173A      2.180326
     174A      2.210175   175A      2.246677   176A      2.273094
     177A      2.279167   178A      2.286741   179A      2.302887
     180A      2.335433   181A      2.373284   182A      2.385659
     183A      2.421139   184A      2.452431   185A      2.459438
     186A      2.473310   187A      2.503094   188A      2.524030
     189A      2.529124   190A      2.535293   191A      2.592875
     192A      2.631048   193A      2.641378   194A      2.728069
     195A      2.737749   196A      2.756021   197A      2.772063
     198A      2.794304   199A      2.802646   200A      2.827986
     201A      2.836551   202A      2.852113   203A      2.862554
     204A      2.912345   205A      2.970256   206A      2.985727
     207A      3.009270   208A      3.049225   209A      3.101155
     210A      3.131965   211A      3.171068   212A      3.207286
     213A      3.294414   214A      3.303028   215A      3.524866
     216A      3.543063   217A      3.872872   218A      3.910569
     219A      3.962077

    Final Occupation by Irrep:
              A
    DOCC [    41 ]

  @RHF Final Energy:  -477.74311647466823

   => Energetics <=

    Nuclear Repulsion Energy =            548.9026235072687996
    One-Electron Energy =               -1737.0603168892744179
    Two-Electron Energy =                 710.4145769073373913
    Total Energy =                       -477.7431164746682271

Computation Completed

Properties will be evaluated at   0.000000,   0.000000,   0.000000 [a0]

Properties computed using the SCF density matrix

  Nuclear Dipole Moment: [e a0]
     X:    -4.8687      Y:     2.4019      Z:    -4.1021

  Electronic Dipole Moment: [e a0]
     X:     3.6330      Y:    -3.0181      Z:     3.2147

  Dipole Moment: [e a0]
     X:    -1.2357      Y:    -0.6162      Z:    -0.8874     Total:     1.6414

  Dipole Moment: [D]
     X:    -3.1408      Y:    -1.5663      Z:    -2.2556     Total:     4.1720

*** tstop() called on ds3 at Mon Apr 27 16:02:17 2020
Module time:
	user time   =     100.07 seconds =       1.67 minutes
	system time =      51.72 seconds =       0.86 minutes
	total time  =        146 seconds =       2.43 minutes
Total time:
	user time   =     100.07 seconds =       1.67 minutes
	system time =      51.72 seconds =       0.86 minutes
	total time  =        146 seconds =       2.43 minutes
                                     G D M A

                                 by Anthony Stone

                           version 2.2.06, 22 June 2011

               Distributed Multipoles from Gaussian wavefunctions

Starting at 16:2:17 on 27 Apr 2020

Using SCF density matrix from file ./SSI/SSI-075PHE-182ASN-1-dimer.test.21810.fchk

                         Distributed Multipole Analysis

Standard DMA

Positions and radii in angstrom
Multipole moments in atomic units, ea_0^k for rank k

C          x = -0.043410  y =  2.806793  z = -3.154399 angstrom
           Maximum rank =  0   Radius =  0.650 angstrom
                   Q00  =  -0.206907

C          x =  0.324590  y =  0.192793  z = -0.400399 angstrom
           Maximum rank =  0   Radius =  0.650 angstrom
                   Q00  =  -0.062503

C          x =  1.109590  y =  0.879793  z =  0.525601 angstrom
           Maximum rank =  0   Radius =  0.650 angstrom
                   Q00  =  -0.081415

C          x = -0.051410  y =  0.813793  z = -1.591399 angstrom
           Maximum rank =  0   Radius =  0.650 angstrom
                   Q00  =  -0.056719

C          x =  0.351590  y =  2.125793  z = -1.871399 angstrom
           Maximum rank =  0   Radius =  0.650 angstrom
                   Q00  =  -0.090458

C          x =  1.516590  y =  2.185793  z =  0.256601 angstrom
           Maximum rank =  0   Radius =  0.650 angstrom
                   Q00  =  -0.081544

C          x =  1.136590  y =  2.803793  z = -0.937399 angstrom
           Maximum rank =  0   Radius =  0.650 angstrom
                   Q00  =  -0.018951

H          x =  0.021590  y = -0.825207  z = -0.203399 angstrom
           Maximum rank =  0   Radius =  0.325 angstrom
                   Q00  =   0.051678

H          x =  1.400590  y =  0.398793  z =  1.449601 angstrom
           Maximum rank =  0   Radius =  0.325 angstrom
                   Q00  =   0.073626

H          x = -0.630410  y =  0.227793  z = -2.285399 angstrom
           Maximum rank =  0   Radius =  0.325 angstrom
                   Q00  =   0.048934

H          x =  2.123590  y =  2.721793  z =  0.974601 angstrom
           Maximum rank =  0   Radius =  0.325 angstrom
                   Q00  =   0.064623

H          x =  0.836590  y =  2.992793  z = -3.764399 angstrom
           Maximum rank =  0   Radius =  0.325 angstrom
                   Q00  =   0.103727

H          x = -0.457410  y =  3.779793  z = -2.880399 angstrom
           Maximum rank =  0   Radius =  0.325 angstrom
                   Q00  =   0.095582

H          x =  1.455590  y =  3.818793  z = -1.136399 angstrom
           Maximum rank =  0   Radius =  0.325 angstrom
                   Q00  =   0.053707

H          x = -0.800910  y =  2.268083  z = -3.742609 angstrom
           Maximum rank =  0   Radius =  0.325 angstrom
                   Q00  =   0.098664

C          x = -2.162410  y = -1.961207  z =  2.006601 angstrom
           Maximum rank =  0   Radius =  0.650 angstrom
                   Q00  =  -0.296324

C          x = -0.879410  y = -2.677207  z =  1.670601 angstrom
           Maximum rank =  0   Radius =  0.650 angstrom
                   Q00  =   0.846126

O          x =  0.153590  y = -2.408207  z =  2.277601 angstrom
           Maximum rank =  0   Radius =  0.650 angstrom
                   Q00  =  -0.799622

N          x = -0.917410  y = -3.578207  z =  0.709601 angstrom
           Maximum rank =  0   Radius =  0.650 angstrom
                   Q00  =  -0.520796

H          x = -2.937410  y = -1.827207  z =  1.289601 angstrom
           Maximum rank =  0   Radius =  0.325 angstrom
                   Q00  =   0.089668

H          x = -1.832410  y = -0.921207  z =  2.010601 angstrom
           Maximum rank =  0   Radius =  0.325 angstrom
                   Q00  =   0.130997

H          x = -0.069410  y = -4.071207  z =  0.477601 angstrom
           Maximum rank =  0   Radius =  0.325 angstrom
                   Q00  =   0.223456

H          x = -1.820410  y = -3.887207  z =  0.378601 angstrom
           Maximum rank =  0   Radius =  0.325 angstrom
                   Q00  =   0.207828

H          x = -2.486690  y = -2.112487  z =  3.046771 angstrom
           Maximum rank =  0   Radius =  0.325 angstrom
                   Q00  =   0.126621

Total multipoles referred to origin at
           x =   0.000000,  y =    0.000000,  z =    0.000000 angstrom
                   Q00  =  -0.000000

Finished at 16:2:17 on 27 Apr 2020

  DMA results are available in the Python driver through the
	  variable('DMA DISTRIBUTED MULTIPOLES')
  and
	  variable('DMA TOTAL MULTIPOLES')
  commands.

    Psi4 stopped on: Monday, 27 April 2020 04:02PM
    Psi4 wall time for execution: 0:02:25.88

*** Psi4 exiting successfully. Buy a developer a beer!
