                               Psi4 1.3.2 release

  ==> Input File <==

--------------------------------------------------------------------------
import numpy as np
set {scf_type pk
basis cc-pvdz
d_convergence 10
gdma_switch   0
gdma_limit    0
gdma_origin   [ 0.0,  0.0,  0.0 ]
}
molecule test {
    units Angstrom
    0 1
    --
    0 1
    C               -1.172092002408897    -0.510135005241085     1.752663539624858
    C               -0.478092002408897    -1.832135005241085     1.439663539624858
    H               -0.473092002408897     0.156864994758915     2.252663539624858
    H               -1.530092002408897    -0.039135005241085     0.840663539624858
    H               -2.031092002408897    -0.686135005241085     2.399663539624858
    H                0.421907997591103    -1.608135005241085     0.866663539624858
    H               -0.179926002408897    -2.332195005241085     2.372958939624858
    H               -1.127883002408897    -2.457185005241085     0.809518539624858
    C                0.420907997591103     1.384864994758915    -0.993336460375142
    C                1.223907997591103     0.956864994758915    -2.199336460375142
    H               -0.392092002408897     0.680864994758915    -0.845336460375142
    H                1.056907997591103     1.386864994758915    -0.108336460375142
    H               -0.000092002408897     2.372864994758915    -1.153336460375142
    H                1.482907997591103    -0.098135005241085    -2.089336460375142
    H                2.147907997591103     1.515864994758915    -2.194336460375142
    H                0.688552997591103     1.114024994758915    -3.147331460375142

}
e, wfn = energy('scf', return_wfn=True)
gdma(wfn)
dmavals = variable('DMA DISTRIBUTED MULTIPOLES')
charges = np.array(dmavals)
print(charges)
np.save('SSI-036LEU-041ILE-1-dimer.npy', np.array(charges))--------------------------------------------------------------------------

*** tstart() called on ds3
*** at Sun Apr 26 21:52:26 2020

   => Loading Basis Set <=

    Name: CC-PVDZ
    Role: ORBITAL
    Keyword: BASIS
    atoms 1-2, 9-10  entry C          line   138 file /theoryfs2/ds/metcalf/miniconda2/envs/tf2gpu/share/psi4/basis/cc-pvdz.gbs
    atoms 3-8, 11-16 entry H          line    22 file /theoryfs2/ds/metcalf/miniconda2/envs/tf2gpu/share/psi4/basis/cc-pvdz.gbs

         ---------------------------------------------------------
                                   SCF
               by Justin Turney, Rob Parrish, Andy Simmonett
                          and Daniel G. A. Smith
                              RHF Reference
                        1 Threads,    500 MiB Core
         ---------------------------------------------------------

  ==> Geometry <==

    Molecular point group: c1
    Full point group: C1

    Geometry (in Angstrom), charge = 0, multiplicity = 1:

       Center              X                  Y                   Z               Mass
    ------------   -----------------  -----------------  -----------------  -----------------
         C           -1.172092002409    -0.510135005241     1.752663539625    12.000000000000
         C           -0.478092002409    -1.832135005241     1.439663539625    12.000000000000
         H           -0.473092002409     0.156864994759     2.252663539625     1.007825032230
         H           -1.530092002409    -0.039135005241     0.840663539625     1.007825032230
         H           -2.031092002409    -0.686135005241     2.399663539625     1.007825032230
         H            0.421907997591    -1.608135005241     0.866663539625     1.007825032230
         H           -0.179926002409    -2.332195005241     2.372958939625     1.007825032230
         H           -1.127883002409    -2.457185005241     0.809518539625     1.007825032230
         C            0.420907997591     1.384864994759    -0.993336460375    12.000000000000
         C            1.223907997591     0.956864994759    -2.199336460375    12.000000000000
         H           -0.392092002409     0.680864994759    -0.845336460375     1.007825032230
         H            1.056907997591     1.386864994759    -0.108336460375     1.007825032230
         H           -0.000092002409     2.372864994759    -1.153336460375     1.007825032230
         H            1.482907997591    -0.098135005241    -2.089336460375     1.007825032230
         H            2.147907997591     1.515864994759    -2.194336460375     1.007825032230
         H            0.688552997591     1.114024994759    -3.147331460375     1.007825032230

  Running in c1 symmetry.

  Rotational constants: A =      0.40711  B =      0.05679  C =      0.05189 [cm^-1]
  Rotational constants: A =  12204.92926  B =   1702.50509  C =   1555.49512 [MHz]
  Nuclear repulsion =  124.483412562531356

  Charge       = 0
  Multiplicity = 1
  Electrons    = 36
  Nalpha       = 18
  Nbeta        = 18

  ==> Algorithm <==

  SCF Algorithm Type is PK.
  DIIS enabled.
  MOM disabled.
  Fractional occupation disabled.
  Guess Type is SAD.
  Energy threshold   = 1.00e-06
  Density threshold  = 1.00e-10
  Integral threshold = 0.00e+00

  ==> Primary Basis <==

  Basis Set: CC-PVDZ
    Blend: CC-PVDZ
    Number of shells: 60
    Number of basis function: 116
    Number of Cartesian functions: 120
    Spherical Harmonics?: true
    Max angular momentum: 2

  ==> Pre-Iterations <==

   -------------------------------------------------------
    Irrep   Nso     Nmo     Nalpha   Nbeta   Ndocc  Nsocc
   -------------------------------------------------------
     A        116     116       0       0       0       0
   -------------------------------------------------------
    Total     116     116      18      18      18       0
   -------------------------------------------------------

  ==> Integral Setup <==

  Using integral reordering PK algorithm.
  Sizing the integral batches needed.
  Building batch lookup table.
   Calculation information:
      Number of atoms:                  16
      Number of AO shells:              60
      Number of primitives:            148
      Number of atomic orbitals:       120
      Number of basis functions:       116

      Integral cutoff                 1.00e-12
      Number of threads:                 1

	Batch   1 pq = [       0,    6786] index = [             0,23028291] size =     23028291
  Task number: 3
  Buffer size: 11059200
  Buffer per thread: 2
  We computed 1500449 shell quartets total.
  Whereas there are 1675365 unique shell quartets.

  ==> DiskJK: Disk-Based J/K Matrices <==

    J tasked:                  Yes
    K tasked:                  Yes
    wK tasked:                  No
    Memory [MiB]:              375
    Schwarz Cutoff:          1E-12

    OpenMP threads:              1

  Minimum eigenvalue in the overlap matrix is 6.8802731789E-03.
  Using Symmetric Orthogonalization.

  SCF Guess: Superposition of Atomic Densities via on-the-fly atomic UHF.

  ==> Iterations <==

                        Total Energy        Delta E     RMS |[F,P]|

   @RHF iter SAD:  -157.41205543278767   -1.57412e+02   0.00000e+00
   @RHF iter   1:  -158.30254782263921   -8.90492e-01   4.25867e-03 DIIS
   @RHF iter   2:  -158.43806570861381   -1.35518e-01   1.81559e-03 DIIS
   @RHF iter   3:  -158.46192262680572   -2.38569e-02   3.51724e-04 DIIS
   @RHF iter   4:  -158.46376241332430   -1.83979e-03   3.88084e-05 DIIS
   @RHF iter   5:  -158.46378606229200   -2.36490e-05   6.59907e-06 DIIS
   @RHF iter   6:  -158.46378671030254   -6.48011e-07   1.05042e-06 DIIS
   @RHF iter   7:  -158.46378672133289   -1.10304e-08   3.10626e-07 DIIS
   @RHF iter   8:  -158.46378672216599   -8.33097e-10   3.78986e-08 DIIS
   @RHF iter   9:  -158.46378672218839   -2.23963e-11   7.04589e-09 DIIS
   @RHF iter  10:  -158.46378672218850   -1.13687e-13   1.91534e-09 DIIS
   @RHF iter  11:  -158.46378672218862   -1.13687e-13   4.91134e-10 DIIS
   @RHF iter  12:  -158.46378672218870   -8.52651e-14   1.45581e-10 DIIS
   @RHF iter  13:  -158.46378672218907   -3.69482e-13   2.75811e-11 DIIS
  Energy and wave function converged.

  ==> Post-Iterations <==

    Orbital Energies [Eh]
    ---------------------

    Doubly Occupied:

       1A    -11.219084     2A    -11.215443     3A    -11.214625
       4A    -11.213972     5A     -1.024904     6A     -1.018850
       7A     -0.838300     8A     -0.833696     9A     -0.608051
      10A     -0.603887    11A     -0.599394    12A     -0.591929
      13A     -0.505237    14A     -0.498235    15A     -0.492481
      16A     -0.486695    17A     -0.483598    18A     -0.475748

    Virtual:

      19A      0.166851    20A      0.203121    21A      0.223927
      22A      0.231275    23A      0.246904    24A      0.256964
      25A      0.259771    26A      0.273720    27A      0.274631
      28A      0.302645    29A      0.327780    30A      0.362859
      31A      0.397565    32A      0.400396    33A      0.564941
      34A      0.591815    35A      0.599862    36A      0.606626
      37A      0.610444    38A      0.629918    39A      0.666740
      40A      0.691331    41A      0.697813    42A      0.793642
      43A      0.846048    44A      0.868207    45A      0.881731
      46A      0.886430    47A      0.891864    48A      0.897483
      49A      0.902993    50A      0.908963    51A      0.915000
      52A      0.926449    53A      0.944818    54A      0.974840
      55A      0.987021    56A      0.994040    57A      1.120524
      58A      1.125837    59A      1.128013    60A      1.154274
      61A      1.223455    62A      1.262197    63A      1.472404
      64A      1.476138    65A      1.487502    66A      1.508306
      67A      1.551739    68A      1.599328    69A      1.678632
      70A      1.682090    71A      1.690512    72A      1.712542
      73A      1.850263    74A      1.857981    75A      1.872179
      76A      1.882484    77A      1.901433    78A      1.920855
      79A      1.933835    80A      1.940964    81A      1.949163
      82A      1.952855    83A      1.959791    84A      1.961221
      85A      1.966886    86A      1.975100    87A      1.991769
      88A      2.026106    89A      2.103164    90A      2.116101
      91A      2.131278    92A      2.154424    93A      2.288868
      94A      2.304960    95A      2.312198    96A      2.321728
      97A      2.442219    98A      2.453153    99A      2.464235
     100A      2.485150   101A      2.567100   102A      2.573537
     103A      2.579454   104A      2.608843   105A      2.762465
     106A      2.778035   107A      2.797417   108A      2.802001
     109A      2.838694   110A      2.855390   111A      2.862585
     112A      2.874622   113A      2.945336   114A      2.949216
     115A      2.976687   116A      2.987613

    Final Occupation by Irrep:
              A
    DOCC [    18 ]

  @RHF Final Energy:  -158.46378672218907

   => Energetics <=

    Nuclear Repulsion Energy =            124.4834125625313561
    One-Electron Energy =                -458.0461401682593419
    Two-Electron Energy =                 175.0989408835389440
    Total Energy =                       -158.4637867221890701

Computation Completed

Properties will be evaluated at   0.000000,   0.000000,   0.000000 [a0]

Properties computed using the SCF density matrix

  Nuclear Dipole Moment: [e a0]
     X:     0.0599      Y:     0.0060      Z:     0.0039

  Electronic Dipole Moment: [e a0]
     X:    -0.0558      Y:     0.0117      Z:    -0.0026

  Dipole Moment: [e a0]
     X:     0.0041      Y:     0.0177      Z:     0.0013     Total:     0.0182

  Dipole Moment: [D]
     X:     0.0104      Y:     0.0451      Z:     0.0033     Total:     0.0463

*** tstop() called on ds3 at Sun Apr 26 21:52:53 2020
Module time:
	user time   =       7.62 seconds =       0.13 minutes
	system time =       2.68 seconds =       0.04 minutes
	total time  =         27 seconds =       0.45 minutes
Total time:
	user time   =       7.62 seconds =       0.13 minutes
	system time =       2.68 seconds =       0.04 minutes
	total time  =         27 seconds =       0.45 minutes
                                     G D M A

                                 by Anthony Stone

                           version 2.2.06, 22 June 2011

               Distributed Multipoles from Gaussian wavefunctions

Starting at 21:52:53 on 26 Apr 2020

Using SCF density matrix from file ./SSI/SSI-036LEU-041ILE-1-dimer.test.13093.fchk

                         Distributed Multipole Analysis

Standard DMA

Positions and radii in angstrom
Multipole moments in atomic units, ea_0^k for rank k

C          x = -1.172092  y = -0.510135  z =  1.752664 angstrom
           Maximum rank =  0   Radius =  0.650 angstrom
                   Q00  =  -0.238460

C          x = -0.478092  y = -1.832135  z =  1.439664 angstrom
           Maximum rank =  0   Radius =  0.650 angstrom
                   Q00  =  -0.231363

H          x = -0.473092  y =  0.156865  z =  2.252664 angstrom
           Maximum rank =  0   Radius =  0.325 angstrom
                   Q00  =   0.078587

H          x = -1.530092  y = -0.039135  z =  0.840664 angstrom
           Maximum rank =  0   Radius =  0.325 angstrom
                   Q00  =   0.080507

H          x = -2.031092  y = -0.686135  z =  2.399664 angstrom
           Maximum rank =  0   Radius =  0.325 angstrom
                   Q00  =   0.076182

H          x =  0.421908  y = -1.608135  z =  0.866664 angstrom
           Maximum rank =  0   Radius =  0.325 angstrom
                   Q00  =   0.075082

H          x = -0.179926  y = -2.332195  z =  2.372959 angstrom
           Maximum rank =  0   Radius =  0.325 angstrom
                   Q00  =   0.081166

H          x = -1.127883  y = -2.457185  z =  0.809519 angstrom
           Maximum rank =  0   Radius =  0.325 angstrom
                   Q00  =   0.078649

C          x =  0.420908  y =  1.384865  z = -0.993336 angstrom
           Maximum rank =  0   Radius =  0.650 angstrom
                   Q00  =  -0.229926

C          x =  1.223908  y =  0.956865  z = -2.199336 angstrom
           Maximum rank =  0   Radius =  0.650 angstrom
                   Q00  =  -0.233696

H          x = -0.392092  y =  0.680865  z = -0.845336 angstrom
           Maximum rank =  0   Radius =  0.325 angstrom
                   Q00  =   0.076591

H          x =  1.056908  y =  1.386865  z = -0.108336 angstrom
           Maximum rank =  0   Radius =  0.325 angstrom
                   Q00  =   0.077954

H          x = -0.000092  y =  2.372865  z = -1.153336 angstrom
           Maximum rank =  0   Radius =  0.325 angstrom
                   Q00  =   0.078660

H          x =  1.482908  y = -0.098135  z = -2.089336 angstrom
           Maximum rank =  0   Radius =  0.325 angstrom
                   Q00  =   0.074131

H          x =  2.147908  y =  1.515865  z = -2.194336 angstrom
           Maximum rank =  0   Radius =  0.325 angstrom
                   Q00  =   0.075837

H          x =  0.688553  y =  1.114025  z = -3.147331 angstrom
           Maximum rank =  0   Radius =  0.325 angstrom
                   Q00  =   0.080099

Total multipoles referred to origin at
           x =   0.000000,  y =    0.000000,  z =    0.000000 angstrom
                   Q00  =  -0.000000

Finished at 21:52:53 on 26 Apr 2020

  DMA results are available in the Python driver through the
	  variable('DMA DISTRIBUTED MULTIPOLES')
  and
	  variable('DMA TOTAL MULTIPOLES')
  commands.

    Psi4 stopped on: Sunday, 26 April 2020 09:52PM
    Psi4 wall time for execution: 0:00:27.11

*** Psi4 exiting successfully. Buy a developer a beer!
