                               Psi4 1.3.2 release

  ==> Input File <==

--------------------------------------------------------------------------
import numpy as np
set {scf_type pk
basis cc-pvdz
d_convergence 10
gdma_switch   0
gdma_limit    0
gdma_origin   [ 0.0,  0.0,  0.0 ]
}
molecule test {
    units Angstrom
    0 1
    --
    0 1
    C                3.217255021609305     0.173641346017499     0.908967367988465
    C                3.518255021609304     0.283641346017499    -0.593032632011535
    H                2.188255021609304    -0.153358653982501     1.053967367988465
    H                3.893255021609304    -0.544358653982501     1.367967367988465
    H                3.350255021609305     1.142641346017500     1.382967367988465
    H                4.550255021609305     0.609641346017499    -0.738032632011535
    H                2.836295021609304     1.009041346017499    -1.060702632011535
    H                3.353135021609305    -0.704858653982501    -1.046382632011535
    C               -2.464744978390696     2.279641346017499    -0.978032632011535
    C               -0.238744978390696    -1.180358653982500     0.369967367988465
    C               -0.667744978390696    -0.236358653982501     1.309967367988465
    C               -0.474744978390695    -0.980358653982501    -0.996032632011535
    C               -1.364744978390696     0.910641346017499     0.882967367988465
    C               -1.157744978390695     0.171641346017499    -1.403032632011535
    C               -1.613744978390695     1.118641346017499    -0.481032632011535
    O                0.376255021609305    -2.322358653982501     0.794967367988465
    H               -0.432744978390695    -0.386358653982501     2.355967367988465
    H                0.458255021609305    -2.366358653982501     1.759967367988465
    H               -0.138744978390695    -1.702358653982500    -1.730032632011535
    H               -1.712744978390695     1.629641346017499     1.610967367988465
    H               -1.347744978390695     0.344641346017499    -2.453032632011535
    H               -3.497744978390696     2.110641346017499    -0.665032632011535
    H               -2.427744978390695     2.298641346017499    -2.066032632011535
    H               -2.199374978390695     3.317741346017499    -0.728982632011535

}
e, wfn = energy('scf', return_wfn=True)
gdma(wfn)
dmavals = variable('DMA DISTRIBUTED MULTIPOLES')
charges = np.array(dmavals)
print(charges)
np.save('SSI-219VAL-222TYR-2-dimer.npy', np.array(charges))--------------------------------------------------------------------------

*** tstart() called on ds3
*** at Mon Apr 27 23:51:17 2020

   => Loading Basis Set <=

    Name: CC-PVDZ
    Role: ORBITAL
    Keyword: BASIS
    atoms 1-2, 9-15  entry C          line   138 file /theoryfs2/ds/metcalf/miniconda2/envs/tf2gpu/share/psi4/basis/cc-pvdz.gbs
    atoms 3-8, 17-24 entry H          line    22 file /theoryfs2/ds/metcalf/miniconda2/envs/tf2gpu/share/psi4/basis/cc-pvdz.gbs
    atoms 16         entry O          line   198 file /theoryfs2/ds/metcalf/miniconda2/envs/tf2gpu/share/psi4/basis/cc-pvdz.gbs

         ---------------------------------------------------------
                                   SCF
               by Justin Turney, Rob Parrish, Andy Simmonett
                          and Daniel G. A. Smith
                              RHF Reference
                        1 Threads,    500 MiB Core
         ---------------------------------------------------------

  ==> Geometry <==

    Molecular point group: c1
    Full point group: C1

    Geometry (in Angstrom), charge = 0, multiplicity = 1:

       Center              X                  Y                   Z               Mass
    ------------   -----------------  -----------------  -----------------  -----------------
         C            3.217255021609     0.173641346017     0.908967367988    12.000000000000
         C            3.518255021609     0.283641346017    -0.593032632012    12.000000000000
         H            2.188255021609    -0.153358653983     1.053967367988     1.007825032230
         H            3.893255021609    -0.544358653983     1.367967367988     1.007825032230
         H            3.350255021609     1.142641346018     1.382967367988     1.007825032230
         H            4.550255021609     0.609641346017    -0.738032632012     1.007825032230
         H            2.836295021609     1.009041346017    -1.060702632012     1.007825032230
         H            3.353135021609    -0.704858653983    -1.046382632012     1.007825032230
         C           -2.464744978391     2.279641346017    -0.978032632012    12.000000000000
         C           -0.238744978391    -1.180358653982     0.369967367988    12.000000000000
         C           -0.667744978391    -0.236358653983     1.309967367988    12.000000000000
         C           -0.474744978391    -0.980358653983    -0.996032632012    12.000000000000
         C           -1.364744978391     0.910641346017     0.882967367988    12.000000000000
         C           -1.157744978391     0.171641346017    -1.403032632012    12.000000000000
         C           -1.613744978391     1.118641346017    -0.481032632012    12.000000000000
         O            0.376255021609    -2.322358653983     0.794967367988    15.994914619570
         H           -0.432744978391    -0.386358653983     2.355967367988     1.007825032230
         H            0.458255021609    -2.366358653983     1.759967367988     1.007825032230
         H           -0.138744978391    -1.702358653982    -1.730032632012     1.007825032230
         H           -1.712744978391     1.629641346017     1.610967367988     1.007825032230
         H           -1.347744978391     0.344641346017    -2.453032632012     1.007825032230
         H           -3.497744978391     2.110641346017    -0.665032632012     1.007825032230
         H           -2.427744978391     2.298641346017    -2.066032632012     1.007825032230
         H           -2.199374978391     3.317741346017    -0.728982632012     1.007825032230

  Running in c1 symmetry.

  Rotational constants: A =      0.05164  B =      0.02450  C =      0.02116 [cm^-1]
  Rotational constants: A =   1548.08815  B =    734.51706  C =    634.34760 [MHz]
  Nuclear repulsion =  501.596771861358263

  Charge       = 0
  Multiplicity = 1
  Electrons    = 76
  Nalpha       = 38
  Nbeta        = 38

  ==> Algorithm <==

  SCF Algorithm Type is PK.
  DIIS enabled.
  MOM disabled.
  Fractional occupation disabled.
  Guess Type is SAD.
  Energy threshold   = 1.00e-06
  Density threshold  = 1.00e-10
  Integral threshold = 0.00e+00

  ==> Primary Basis <==

  Basis Set: CC-PVDZ
    Blend: CC-PVDZ
    Number of shells: 102
    Number of basis function: 210
    Number of Cartesian functions: 220
    Spherical Harmonics?: true
    Max angular momentum: 2

  ==> Pre-Iterations <==

   -------------------------------------------------------
    Irrep   Nso     Nmo     Nalpha   Nbeta   Ndocc  Nsocc
   -------------------------------------------------------
     A        210     210       0       0       0       0
   -------------------------------------------------------
    Total     210     210      38      38      38       0
   -------------------------------------------------------

  ==> Integral Setup <==

  Using integral reordering PK algorithm.
  Sizing the integral batches needed.
  Building batch lookup table.
   Calculation information:
      Number of atoms:                  24
      Number of AO shells:             102
      Number of primitives:            290
      Number of atomic orbitals:       220
      Number of basis functions:       210

      Integral cutoff                 1.00e-12
      Number of threads:                 1

	Batch   1 pq = [       0,    9405] index = [             0,44231715] size =     44231715
	Batch   2 pq = [    9405,   13301] index = [      44231715,88464951] size =     44233236
	Batch   3 pq = [   13301,   16290] index = [      88464951,132690195] size =     44225244
	Batch   4 pq = [   16290,   18810] index = [     132690195,176917455] size =     44227260
	Batch   5 pq = [   18810,   21030] index = [     176917455,221140965] size =     44223510
	Batch   6 pq = [   21030,   22155] index = [     221140965,245433090] size =     24292125
  Task number: 23
  Buffer size: 11059200
  Buffer per thread: 2
  We computed 12513256 shell quartets total.
  Whereas there are 13799631 unique shell quartets.

  ==> DiskJK: Disk-Based J/K Matrices <==

    J tasked:                  Yes
    K tasked:                  Yes
    wK tasked:                  No
    Memory [MiB]:              375
    Schwarz Cutoff:          1E-12

    OpenMP threads:              1

  Minimum eigenvalue in the overlap matrix is 3.3687165029E-04.
  Using Symmetric Orthogonalization.

  SCF Guess: Superposition of Atomic Densities via on-the-fly atomic UHF.

  ==> Iterations <==

                        Total Energy        Delta E     RMS |[F,P]|

   @RHF iter SAD:  -422.54581376542211   -4.22546e+02   0.00000e+00
   @RHF iter   1:  -423.60053242765213   -1.05472e+00   2.95920e-03 DIIS
   @RHF iter   2:  -423.81386141078320   -2.13329e-01   1.25778e-03 DIIS
   @RHF iter   3:  -423.84872252961554   -3.48611e-02   2.85616e-04 DIIS
   @RHF iter   4:  -423.85160135407858   -2.87882e-03   1.19342e-04 DIIS
   @RHF iter   5:  -423.85196878813179   -3.67434e-04   2.07887e-05 DIIS
   @RHF iter   6:  -423.85198680308969   -1.80150e-05   6.64040e-06 DIIS
   @RHF iter   7:  -423.85198860466573   -1.80158e-06   2.29169e-06 DIIS
   @RHF iter   8:  -423.85198889938181   -2.94716e-07   9.09920e-07 DIIS
   @RHF iter   9:  -423.85198895886833   -5.94865e-08   3.98308e-07 DIIS
   @RHF iter  10:  -423.85198897289030   -1.40220e-08   1.81125e-07 DIIS
   @RHF iter  11:  -423.85198897721529   -4.32499e-09   7.37809e-08 DIIS
   @RHF iter  12:  -423.85198897781140   -5.96117e-10   3.32609e-08 DIIS
   @RHF iter  13:  -423.85198897790582   -9.44169e-11   8.51484e-09 DIIS
   @RHF iter  14:  -423.85198897790934   -3.52429e-12   2.33633e-09 DIIS
   @RHF iter  15:  -423.85198897790804    1.30740e-12   7.60683e-10 DIIS
   @RHF iter  16:  -423.85198897791076   -2.72848e-12   2.55661e-10 DIIS
   @RHF iter  17:  -423.85198897791020    5.68434e-13   1.12876e-10 DIIS
   @RHF iter  18:  -423.85198897791020    0.00000e+00   5.34919e-11 DIIS
  Energy and wave function converged.

  ==> Post-Iterations <==

    Orbital Energies [Eh]
    ---------------------

    Doubly Occupied:

       1A    -20.585339     2A    -11.303653     3A    -11.244296
       4A    -11.241091     5A    -11.238308     6A    -11.237755
       7A    -11.234433     8A    -11.229852     9A    -11.211424
      10A    -11.207876    11A     -1.398845    12A     -1.146632
      13A     -1.033904    14A     -1.015679    15A     -1.008509
      16A     -0.926010    17A     -0.844856    18A     -0.828166
      19A     -0.803106    20A     -0.730861    21A     -0.666443
      22A     -0.642794    23A     -0.609284    24A     -0.598645
      25A     -0.588912    26A     -0.587170    27A     -0.580154
      28A     -0.571925    29A     -0.559360    30A     -0.522341
      31A     -0.497846    32A     -0.488126    33A     -0.486354
      34A     -0.479872    35A     -0.477409    36A     -0.465926
      37A     -0.337697    38A     -0.302606

    Virtual:

      39A      0.125747    40A      0.153391    41A      0.171335
      42A      0.185757    43A      0.199423    44A      0.214162
      45A      0.222730    46A      0.243590    47A      0.256364
      48A      0.262498    49A      0.269579    50A      0.272654
      51A      0.277914    52A      0.287516    53A      0.305789
      54A      0.319475    55A      0.366048    56A      0.368834
      57A      0.400074    58A      0.436189    59A      0.451623
      60A      0.483010    61A      0.487568    62A      0.512597
      63A      0.587398    64A      0.599373    65A      0.608793
      66A      0.613973    67A      0.633919    68A      0.650875
      69A      0.658149    70A      0.662948    71A      0.680642
      72A      0.694979    73A      0.707366    74A      0.723721
      75A      0.731280    76A      0.749813    77A      0.758472
      78A      0.763950    79A      0.780205    80A      0.791066
      81A      0.827570    82A      0.833912    83A      0.841155
      84A      0.849597    85A      0.874141    86A      0.879695
      87A      0.887568    88A      0.890111    89A      0.897447
      90A      0.904526    91A      0.910021    92A      0.920090
      93A      0.926254    94A      0.929716    95A      0.940254
      96A      0.944447    97A      0.959185    98A      0.964582
      99A      0.994838   100A      1.010162   101A      1.037876
     102A      1.080191   103A      1.119650   104A      1.127736
     105A      1.132029   106A      1.142239   107A      1.149781
     108A      1.170048   109A      1.200445   110A      1.230204
     111A      1.241028   112A      1.259624   113A      1.263108
     114A      1.281160   115A      1.299742   116A      1.313503
     117A      1.343297   118A      1.344616   119A      1.380751
     120A      1.417836   121A      1.477588   122A      1.482758
     123A      1.483924   124A      1.496143   125A      1.513449
     126A      1.548763   127A      1.584294   128A      1.615493
     129A      1.624995   130A      1.675907   131A      1.685602
     132A      1.699324   133A      1.710409   134A      1.730869
     135A      1.746755   136A      1.773670   137A      1.802344
     138A      1.804335   139A      1.861701   140A      1.867623
     141A      1.870617   142A      1.874099   143A      1.887214
     144A      1.898327   145A      1.911239   146A      1.921161
     147A      1.924945   148A      1.940014   149A      1.952054
     150A      1.956846   151A      1.959080   152A      1.968141
     153A      1.976742   154A      1.979896   155A      1.991414
     156A      2.005932   157A      2.024518   158A      2.036648
     159A      2.046451   160A      2.067336   161A      2.076863
     162A      2.104916   163A      2.111191   164A      2.133990
     165A      2.138967   166A      2.174401   167A      2.196277
     168A      2.197312   169A      2.251679   170A      2.265795
     171A      2.291890   172A      2.306311   173A      2.311900
     174A      2.359600   175A      2.371500   176A      2.383493
     177A      2.436257   178A      2.464536   179A      2.468661
     180A      2.480669   181A      2.494567   182A      2.512421
     183A      2.553573   184A      2.581146   185A      2.599093
     186A      2.604600   187A      2.633586   188A      2.722625
     189A      2.762388   190A      2.773117   191A      2.781253
     192A      2.793950   193A      2.816478   194A      2.844527
     195A      2.849936   196A      2.870825   197A      2.904380
     198A      2.950935   199A      2.963223   200A      2.984876
     201A      3.008597   202A      3.066295   203A      3.118884
     204A      3.242266   205A      3.262125   206A      3.342477
     207A      3.573885   208A      3.657192   209A      3.950508
     210A      4.180271

    Final Occupation by Irrep:
              A
    DOCC [    38 ]

  @RHF Final Energy:  -423.85198897791020

   => Energetics <=

    Nuclear Repulsion Energy =            501.5967718613582633
    One-Electron Energy =               -1569.0306029378989479
    Two-Electron Energy =                 643.5818420986304318
    Total Energy =                       -423.8519889779101959

Computation Completed

Properties will be evaluated at   0.000000,   0.000000,   0.000000 [a0]

Properties computed using the SCF density matrix

  Nuclear Dipole Moment: [e a0]
     X:     8.3198      Y:     6.1808      Z:    -0.8928

  Electronic Dipole Moment: [e a0]
     X:    -8.5572      Y:    -5.8923      Z:     1.3255

  Dipole Moment: [e a0]
     X:    -0.2374      Y:     0.2885      Z:     0.4327     Total:     0.5717

  Dipole Moment: [D]
     X:    -0.6034      Y:     0.7332      Z:     1.0998     Total:     1.4530

*** tstop() called on ds3 at Mon Apr 27 23:53:33 2020
Module time:
	user time   =      98.94 seconds =       1.65 minutes
	system time =      40.78 seconds =       0.68 minutes
	total time  =        136 seconds =       2.27 minutes
Total time:
	user time   =      98.94 seconds =       1.65 minutes
	system time =      40.78 seconds =       0.68 minutes
	total time  =        136 seconds =       2.27 minutes
                                     G D M A

                                 by Anthony Stone

                           version 2.2.06, 22 June 2011

               Distributed Multipoles from Gaussian wavefunctions

Starting at 23:53:33 on 27 Apr 2020

Using SCF density matrix from file ./SSI/SSI-219VAL-222TYR-2-dimer.test.4353.fchk

                         Distributed Multipole Analysis

Standard DMA

Positions and radii in angstrom
Multipole moments in atomic units, ea_0^k for rank k

C          x =  3.217255  y =  0.173641  z =  0.908967 angstrom
           Maximum rank =  0   Radius =  0.650 angstrom
                   Q00  =  -0.230785

C          x =  3.518255  y =  0.283641  z = -0.593033 angstrom
           Maximum rank =  0   Radius =  0.650 angstrom
                   Q00  =  -0.244496

H          x =  2.188255  y = -0.153359  z =  1.053967 angstrom
           Maximum rank =  0   Radius =  0.325 angstrom
                   Q00  =   0.081521

H          x =  3.893255  y = -0.544359  z =  1.367967 angstrom
           Maximum rank =  0   Radius =  0.325 angstrom
                   Q00  =   0.072985

H          x =  3.350255  y =  1.142641  z =  1.382967 angstrom
           Maximum rank =  0   Radius =  0.325 angstrom
                   Q00  =   0.073881

H          x =  4.550255  y =  0.609641  z = -0.738033 angstrom
           Maximum rank =  0   Radius =  0.325 angstrom
                   Q00  =   0.075479

H          x =  2.836295  y =  1.009041  z = -1.060703 angstrom
           Maximum rank =  0   Radius =  0.325 angstrom
                   Q00  =   0.082332

H          x =  3.353135  y = -0.704859  z = -1.046383 angstrom
           Maximum rank =  0   Radius =  0.325 angstrom
                   Q00  =   0.079575

C          x = -2.464745  y =  2.279641  z = -0.978033 angstrom
           Maximum rank =  0   Radius =  0.650 angstrom
                   Q00  =  -0.218554

C          x = -0.238745  y = -1.180359  z =  0.369967 angstrom
           Maximum rank =  0   Radius =  0.650 angstrom
                   Q00  =   0.306776

C          x = -0.667745  y = -0.236359  z =  1.309967 angstrom
           Maximum rank =  0   Radius =  0.650 angstrom
                   Q00  =  -0.158368

C          x = -0.474745  y = -0.980359  z = -0.996033 angstrom
           Maximum rank =  0   Radius =  0.650 angstrom
                   Q00  =  -0.115034

C          x = -1.364745  y =  0.910641  z =  0.882967 angstrom
           Maximum rank =  0   Radius =  0.650 angstrom
                   Q00  =  -0.060767

C          x = -1.157745  y =  0.171641  z = -1.403033 angstrom
           Maximum rank =  0   Radius =  0.650 angstrom
                   Q00  =   0.055044

C          x = -1.613745  y =  1.118641  z = -0.481033 angstrom
           Maximum rank =  0   Radius =  0.650 angstrom
                   Q00  =  -0.125369

O          x =  0.376255  y = -2.322359  z =  0.794967 angstrom
           Maximum rank =  0   Radius =  0.650 angstrom
                   Q00  =  -0.674408

H          x = -0.432745  y = -0.386359  z =  2.355967 angstrom
           Maximum rank =  0   Radius =  0.325 angstrom
                   Q00  =   0.073151

H          x =  0.458255  y = -2.366359  z =  1.759967 angstrom
           Maximum rank =  0   Radius =  0.325 angstrom
                   Q00  =   0.411520

H          x = -0.138745  y = -1.702359  z = -1.730033 angstrom
           Maximum rank =  0   Radius =  0.325 angstrom
                   Q00  =   0.083859

H          x = -1.712745  y =  1.629641  z =  1.610967 angstrom
           Maximum rank =  0   Radius =  0.325 angstrom
                   Q00  =   0.072513

H          x = -1.347745  y =  0.344641  z = -2.453033 angstrom
           Maximum rank =  0   Radius =  0.325 angstrom
                   Q00  =   0.067112

H          x = -3.497745  y =  2.110641  z = -0.665033 angstrom
           Maximum rank =  0   Radius =  0.325 angstrom
                   Q00  =   0.100129

H          x = -2.427745  y =  2.298641  z = -2.066033 angstrom
           Maximum rank =  0   Radius =  0.325 angstrom
                   Q00  =   0.093270

H          x = -2.199375  y =  3.317741  z = -0.728983 angstrom
           Maximum rank =  0   Radius =  0.325 angstrom
                   Q00  =   0.098634

Total multipoles referred to origin at
           x =   0.000000,  y =    0.000000,  z =    0.000000 angstrom
                   Q00  =  -0.000000

Finished at 23:53:33 on 27 Apr 2020

  DMA results are available in the Python driver through the
	  variable('DMA DISTRIBUTED MULTIPOLES')
  and
	  variable('DMA TOTAL MULTIPOLES')
  commands.

    Psi4 stopped on: Monday, 27 April 2020 11:53PM
    Psi4 wall time for execution: 0:02:15.47

*** Psi4 exiting successfully. Buy a developer a beer!
