                               Psi4 1.3.2 release

  ==> Input File <==

--------------------------------------------------------------------------
import numpy as np
set {scf_type pk
basis cc-pvdz
d_convergence 10
gdma_switch   0
gdma_limit    0
gdma_origin   [ 0.0,  0.0,  0.0 ]
}
molecule test {
    units Angstrom
    1 1
    --
    1 1
    C                0.203289818832452     0.657949868156276     1.972679929157761
    C               -0.004710181167548    -0.638050131843724     1.224679929157761
    O               -0.566710181167548    -0.658050131843724     0.124679929157761
    N                0.434289818832452    -1.732050131843724     1.818679929157761
    H                1.248289818832452     0.949949868156276     1.879679929157761
    H               -0.005710181167548     0.498949868156276     3.030679929157761
    H                0.205289818832452    -2.618050131843724     1.400679929157761
    H                0.877289818832452    -1.679050131843724     2.723679929157760
    H               -0.443535181167548     1.458579868156276     1.584584929157761
    C               -0.170710181167548     1.895949868156276    -2.385320070842240
    N                0.075289818832452     0.431949868156276    -2.397320070842239
    H                1.039289818832452     0.244949868156276    -2.665320070842240
    H               -0.058710181167548     0.031949868156276    -1.469320070842239
    H               -0.585710181167548    -0.041050131843724    -3.004320070842240
    H                0.483289818832452     2.357949868156275    -1.639320070842239
    H               -1.207710181167548     2.101949868156276    -2.101320070842239
    H                0.029913818832452     2.389959868156276    -3.347455070842239

}
e, wfn = energy('scf', return_wfn=True)
gdma(wfn)
dmavals = variable('DMA DISTRIBUTED MULTIPOLES')
charges = np.array(dmavals)
print(charges)
np.save('SSI-029ASN-034LYS-2-dimer.npy', np.array(charges))--------------------------------------------------------------------------

*** tstart() called on ds3
*** at Sun Apr 26 22:30:30 2020

   => Loading Basis Set <=

    Name: CC-PVDZ
    Role: ORBITAL
    Keyword: BASIS
    atoms 1-2, 10    entry C          line   138 file /theoryfs2/ds/metcalf/miniconda2/envs/tf2gpu/share/psi4/basis/cc-pvdz.gbs
    atoms 3          entry O          line   198 file /theoryfs2/ds/metcalf/miniconda2/envs/tf2gpu/share/psi4/basis/cc-pvdz.gbs
    atoms 4, 11      entry N          line   168 file /theoryfs2/ds/metcalf/miniconda2/envs/tf2gpu/share/psi4/basis/cc-pvdz.gbs
    atoms 5-9, 12-17 entry H          line    22 file /theoryfs2/ds/metcalf/miniconda2/envs/tf2gpu/share/psi4/basis/cc-pvdz.gbs

         ---------------------------------------------------------
                                   SCF
               by Justin Turney, Rob Parrish, Andy Simmonett
                          and Daniel G. A. Smith
                              RHF Reference
                        1 Threads,    500 MiB Core
         ---------------------------------------------------------

  ==> Geometry <==

    Molecular point group: c1
    Full point group: C1

    Geometry (in Angstrom), charge = 1, multiplicity = 1:

       Center              X                  Y                   Z               Mass
    ------------   -----------------  -----------------  -----------------  -----------------
         C            0.203289818832     0.657949868156     1.972679929158    12.000000000000
         C           -0.004710181168    -0.638050131844     1.224679929158    12.000000000000
         O           -0.566710181168    -0.658050131844     0.124679929158    15.994914619570
         N            0.434289818832    -1.732050131844     1.818679929158    14.003074004430
         H            1.248289818832     0.949949868156     1.879679929158     1.007825032230
         H           -0.005710181168     0.498949868156     3.030679929158     1.007825032230
         H            0.205289818832    -2.618050131844     1.400679929158     1.007825032230
         H            0.877289818832    -1.679050131844     2.723679929158     1.007825032230
         H           -0.443535181168     1.458579868156     1.584584929158     1.007825032230
         C           -0.170710181168     1.895949868156    -2.385320070842    12.000000000000
         N            0.075289818832     0.431949868156    -2.397320070842    14.003074004430
         H            1.039289818832     0.244949868156    -2.665320070842     1.007825032230
         H           -0.058710181168     0.031949868156    -1.469320070842     1.007825032230
         H           -0.585710181168    -0.041050131844    -3.004320070842     1.007825032230
         H            0.483289818832     2.357949868156    -1.639320070842     1.007825032230
         H           -1.207710181168     2.101949868156    -2.101320070842     1.007825032230
         H            0.029913818832     2.389959868156    -3.347455070842     1.007825032230

  Running in c1 symmetry.

  Rotational constants: A =      0.20532  B =      0.04208  C =      0.03689 [cm^-1]
  Rotational constants: A =   6155.33783  B =   1261.62744  C =   1105.92029 [MHz]
  Nuclear repulsion =  248.541982794680024

  Charge       = 1
  Multiplicity = 1
  Electrons    = 50
  Nalpha       = 25
  Nbeta        = 25

  ==> Algorithm <==

  SCF Algorithm Type is PK.
  DIIS enabled.
  MOM disabled.
  Fractional occupation disabled.
  Guess Type is SAD.
  Energy threshold   = 1.00e-06
  Density threshold  = 1.00e-10
  Integral threshold = 0.00e+00

  ==> Primary Basis <==

  Basis Set: CC-PVDZ
    Blend: CC-PVDZ
    Number of shells: 69
    Number of basis function: 139
    Number of Cartesian functions: 145
    Spherical Harmonics?: true
    Max angular momentum: 2

  ==> Pre-Iterations <==

   -------------------------------------------------------
    Irrep   Nso     Nmo     Nalpha   Nbeta   Ndocc  Nsocc
   -------------------------------------------------------
     A        139     139       0       0       0       0
   -------------------------------------------------------
    Total     139     139      25      25      25       0
   -------------------------------------------------------

  ==> Integral Setup <==

  Using integral reordering PK algorithm.
  Sizing the integral batches needed.
  Building batch lookup table.
   Calculation information:
      Number of atoms:                  17
      Number of AO shells:              69
      Number of primitives:            187
      Number of atomic orbitals:       145
      Number of basis functions:       139

      Integral cutoff                 1.00e-12
      Number of threads:                 1

	Batch   1 pq = [       0,    9730] index = [             0,47341315] size =     47341315
  Task number: 5
  Buffer size: 11059200
  Buffer per thread: 2
  We computed 2501688 shell quartets total.
  Whereas there are 2917320 unique shell quartets.

  ==> DiskJK: Disk-Based J/K Matrices <==

    J tasked:                  Yes
    K tasked:                  Yes
    wK tasked:                  No
    Memory [MiB]:              375
    Schwarz Cutoff:          1E-12

    OpenMP threads:              1

  Minimum eigenvalue in the overlap matrix is 4.6443394362E-03.
  Using Symmetric Orthogonalization.

  SCF Guess: Superposition of Atomic Densities via on-the-fly atomic UHF.

  ==> Iterations <==

                        Total Energy        Delta E     RMS |[F,P]|

   @RHF iter SAD:  -302.82412164024191   -3.02824e+02   0.00000e+00
   @RHF iter   1:  -303.44103019783154   -6.16909e-01   4.12968e-03 DIIS
   @RHF iter   2:  -303.58697160909657   -1.45941e-01   2.05849e-03 DIIS
   @RHF iter   3:  -303.61790600370557   -3.09344e-02   5.27660e-04 DIIS
   @RHF iter   4:  -303.62093507336840   -3.02907e-03   1.73809e-04 DIIS
   @RHF iter   5:  -303.62128491485851   -3.49841e-04   3.13711e-05 DIIS
   @RHF iter   6:  -303.62130463966872   -1.97248e-05   1.23548e-05 DIIS
   @RHF iter   7:  -303.62130688401368   -2.24434e-06   3.74854e-06 DIIS
   @RHF iter   8:  -303.62130730387116   -4.19857e-07   1.24871e-06 DIIS
   @RHF iter   9:  -303.62130735147554   -4.76044e-08   3.32784e-07 DIIS
   @RHF iter  10:  -303.62130735492474   -3.44920e-09   9.71571e-08 DIIS
   @RHF iter  11:  -303.62130735513693   -2.12196e-10   2.92617e-08 DIIS
   @RHF iter  12:  -303.62130735515251   -1.55751e-11   8.19739e-09 DIIS
   @RHF iter  13:  -303.62130735515547   -2.95586e-12   2.32144e-09 DIIS
   @RHF iter  14:  -303.62130735515598   -5.11591e-13   9.08509e-10 DIIS
   @RHF iter  15:  -303.62130735515740   -1.42109e-12   2.97394e-10 DIIS
   @RHF iter  16:  -303.62130735515649    9.09495e-13   1.29920e-10 DIIS
   @RHF iter  17:  -303.62130735515694   -4.54747e-13   5.97102e-11 DIIS
  Energy and wave function converged.

  ==> Post-Iterations <==

    Orbital Energies [Eh]
    ---------------------

    Doubly Occupied:

       1A    -20.660629     2A    -15.864408     3A    -15.723037
       4A    -11.496579     5A    -11.462880     6A    -11.368429
       7A     -1.522108     8A     -1.485560     9A     -1.358029
      10A     -1.136169    11A     -1.132068    12A     -0.952291
      13A     -0.949100    14A     -0.925175    15A     -0.861490
      16A     -0.833860    17A     -0.802679    18A     -0.750262
      19A     -0.739009    20A     -0.736222    21A     -0.714224
      22A     -0.687350    23A     -0.658398    24A     -0.566378
      25A     -0.553677

    Virtual:

      26A     -0.018117    27A      0.035179    28A      0.045941
      29A      0.055545    30A      0.058777    31A      0.089848
      32A      0.102030    33A      0.111163    34A      0.124166
      35A      0.143025    36A      0.154325    37A      0.164800
      38A      0.198383    39A      0.258642    40A      0.371192
      41A      0.387925    42A      0.403089    43A      0.420631
      44A      0.447997    45A      0.508637    46A      0.516971
      47A      0.532900    48A      0.559669    49A      0.570363
      50A      0.601874    51A      0.617723    52A      0.619479
      53A      0.663153    54A      0.677658    55A      0.688283
      56A      0.712554    57A      0.731491    58A      0.739593
      59A      0.763854    60A      0.782850    61A      0.789039
      62A      0.808798    63A      0.835039    64A      0.854477
      65A      0.885128    66A      0.887692    67A      0.934515
      68A      0.939112    69A      0.969004    70A      1.000657
      71A      1.037488    72A      1.150648    73A      1.183913
      74A      1.192249    75A      1.250781    76A      1.279670
      77A      1.296650    78A      1.309097    79A      1.340181
      80A      1.359978    81A      1.388509    82A      1.490047
      83A      1.512431    84A      1.516497    85A      1.534960
      86A      1.588975    87A      1.652768    88A      1.673431
      89A      1.707469    90A      1.715667    91A      1.716186
      92A      1.737776    93A      1.746166    94A      1.758734
      95A      1.768448    96A      1.781522    97A      1.787780
      98A      1.839392    99A      1.848668   100A      1.905475
     101A      1.933233   102A      1.951357   103A      1.963455
     104A      1.973736   105A      1.992437   106A      2.033096
     107A      2.081505   108A      2.119350   109A      2.134126
     110A      2.175719   111A      2.252147   112A      2.280480
     113A      2.296933   114A      2.324560   115A      2.354497
     116A      2.405816   117A      2.438015   118A      2.453939
     119A      2.484073   120A      2.507609   121A      2.531626
     122A      2.555307   123A      2.592582   124A      2.623798
     125A      2.677159   126A      2.729924   127A      2.759267
     128A      2.765714   129A      2.812517   130A      2.858760
     131A      2.943136   132A      2.983190   133A      3.094878
     134A      3.142056   135A      3.187309   136A      3.353992
     137A      3.415950   138A      3.711751   139A      3.786481

    Final Occupation by Irrep:
              A
    DOCC [    25 ]

  @RHF Final Energy:  -303.62130735515694

   => Energetics <=

    Nuclear Repulsion Energy =            248.5419827946800240
    One-Electron Energy =                -896.4465602392887149
    Two-Electron Energy =                 344.2832700894517188
    Total Energy =                       -303.6213073551569437

Computation Completed

Properties will be evaluated at   0.000000,   0.000000,   0.000000 [a0]

Properties computed using the SCF density matrix

  Nuclear Dipole Moment: [e a0]
     X:     1.4789      Y:     5.3405      Z:    -3.3799

  Electronic Dipole Moment: [e a0]
     X:    -0.5953      Y:    -4.7040      Z:     1.3184

  Dipole Moment: [e a0]
     X:     0.8836      Y:     0.6365      Z:    -2.0615     Total:     2.3315

  Dipole Moment: [D]
     X:     2.2459      Y:     1.6179      Z:    -5.2399     Total:     5.9260

*** tstop() called on ds3 at Sun Apr 26 22:30:54 2020
Module time:
	user time   =      17.24 seconds =       0.29 minutes
	system time =       7.65 seconds =       0.13 minutes
	total time  =         24 seconds =       0.40 minutes
Total time:
	user time   =      17.24 seconds =       0.29 minutes
	system time =       7.65 seconds =       0.13 minutes
	total time  =         24 seconds =       0.40 minutes
                                     G D M A

                                 by Anthony Stone

                           version 2.2.06, 22 June 2011

               Distributed Multipoles from Gaussian wavefunctions

Starting at 22:30:54 on 26 Apr 2020

Using SCF density matrix from file ./SSI/SSI-029ASN-034LYS-2-dimer.test.9664.fchk

                         Distributed Multipole Analysis

Standard DMA

Positions and radii in angstrom
Multipole moments in atomic units, ea_0^k for rank k

C          x =  0.203290  y =  0.657950  z =  1.972680 angstrom
           Maximum rank =  0   Radius =  0.650 angstrom
                   Q00  =  -0.265761

C          x = -0.004710  y = -0.638050  z =  1.224680 angstrom
           Maximum rank =  0   Radius =  0.650 angstrom
                   Q00  =   0.820633

O          x = -0.566710  y = -0.658050  z =  0.124680 angstrom
           Maximum rank =  0   Radius =  0.650 angstrom
                   Q00  =  -0.870483

N          x =  0.434290  y = -1.732050  z =  1.818680 angstrom
           Maximum rank =  0   Radius =  0.650 angstrom
                   Q00  =  -0.535865

H          x =  1.248290  y =  0.949950  z =  1.879680 angstrom
           Maximum rank =  0   Radius =  0.325 angstrom
                   Q00  =   0.129044

H          x = -0.005710  y =  0.498950  z =  3.030680 angstrom
           Maximum rank =  0   Radius =  0.325 angstrom
                   Q00  =   0.126369

H          x =  0.205290  y = -2.618050  z =  1.400680 angstrom
           Maximum rank =  0   Radius =  0.325 angstrom
                   Q00  =   0.241150

H          x =  0.877290  y = -1.679050  z =  2.723680 angstrom
           Maximum rank =  0   Radius =  0.325 angstrom
                   Q00  =   0.239675

H          x = -0.443535  y =  1.458580  z =  1.584585 angstrom
           Maximum rank =  0   Radius =  0.325 angstrom
                   Q00  =   0.128049

C          x = -0.170710  y =  1.895950  z = -2.385320 angstrom
           Maximum rank =  0   Radius =  0.650 angstrom
                   Q00  =  -0.150700

N          x =  0.075290  y =  0.431950  z = -2.397320 angstrom
           Maximum rank =  0   Radius =  0.650 angstrom
                   Q00  =  -0.151213

H          x =  1.039290  y =  0.244950  z = -2.665320 angstrom
           Maximum rank =  0   Radius =  0.325 angstrom
                   Q00  =   0.244778

H          x = -0.058710  y =  0.031950  z = -1.469320 angstrom
           Maximum rank =  0   Radius =  0.325 angstrom
                   Q00  =   0.327917

H          x = -0.585710  y = -0.041050  z = -3.004320 angstrom
           Maximum rank =  0   Radius =  0.325 angstrom
                   Q00  =   0.253133

H          x =  0.483290  y =  2.357950  z = -1.639320 angstrom
           Maximum rank =  0   Radius =  0.325 angstrom
                   Q00  =   0.148139

H          x = -1.207710  y =  2.101950  z = -2.101320 angstrom
           Maximum rank =  0   Radius =  0.325 angstrom
                   Q00  =   0.159951

H          x =  0.029914  y =  2.389960  z = -3.347455 angstrom
           Maximum rank =  0   Radius =  0.325 angstrom
                   Q00  =   0.155183

Total multipoles referred to origin at
           x =   0.000000,  y =    0.000000,  z =    0.000000 angstrom
                   Q00  =   1.000000

Finished at 22:30:54 on 26 Apr 2020

  DMA results are available in the Python driver through the
	  variable('DMA DISTRIBUTED MULTIPOLES')
  and
	  variable('DMA TOTAL MULTIPOLES')
  commands.

    Psi4 stopped on: Sunday, 26 April 2020 10:30PM
    Psi4 wall time for execution: 0:00:24.38

*** Psi4 exiting successfully. Buy a developer a beer!
