                               Psi4 1.3.2 release

  ==> Input File <==

--------------------------------------------------------------------------
import numpy as np
set {scf_type pk
basis cc-pvdz
d_convergence 10
gdma_switch   0
gdma_limit    0
gdma_origin   [ 0.0,  0.0,  0.0 ]
}
molecule test {
    units Angstrom
    0 1
    --
    0 1
    C               -0.189496409171871    -2.038121049026745     2.186854143747234
    C                0.285503590828129     1.080878950973255     0.062854143747234
    C                0.453503590828129    -0.214121049026745     0.563854143747234
    C               -0.737496409171871     1.912878950973255     0.481854143747234
    C               -0.406496409171871    -0.696121049026745     1.553854143747234
    C               -1.618496409171871     1.423878950973255     1.440854143747234
    C               -1.454496409171871     0.140878950973255     1.970854143747234
    H                0.999503590828129     1.454878950973255    -0.655145856252766
    H                1.289503590828129    -0.811121049026745     0.227854143747234
    H               -0.840496409171871     2.913878950973255     0.094854143747234
    H               -2.409496409171871     2.056878950973255     1.807854143747234
    H               -0.605496409171871    -2.006121049026745     3.194854143747234
    H                0.884503590828129    -2.179121049026744     2.291854143747234
    H               -2.134496409171871    -0.201121049026745     2.738854143747234
    H               -0.628889409171871    -2.905325049026744     1.672174143747234
    C                1.788503590828129    -0.206121049026745    -3.053145856252766
    C                1.374503590828129    -0.970121049026745    -4.311145856252765
    H                2.627503590828129     0.449878950973255    -3.283145856252766
    H                0.945503590828129     0.379878950973255    -2.689145856252766
    H                2.087503590828129    -0.901121049026745    -2.273145856252766
    H                0.584503590828129    -1.670121049026745    -4.041145856252766
    H                2.230272590828129    -1.513718049026745    -4.737945856252766
    H                0.976687590828129    -0.234124049026745    -5.025325856252765

}
e, wfn = energy('scf', return_wfn=True)
gdma(wfn)
dmavals = variable('DMA DISTRIBUTED MULTIPOLES')
charges = np.array(dmavals)
print(charges)
np.save('SSI-073PHE-079LEU-1-dimer.npy', np.array(charges))--------------------------------------------------------------------------

*** tstart() called on ds3
*** at Tue Apr 28 13:20:06 2020

   => Loading Basis Set <=

    Name: CC-PVDZ
    Role: ORBITAL
    Keyword: BASIS
    atoms 1-7, 16-17  entry C          line   138 file /theoryfs2/ds/metcalf/miniconda2/envs/tf2gpu/share/psi4/basis/cc-pvdz.gbs
    atoms 8-15, 18-23 entry H          line    22 file /theoryfs2/ds/metcalf/miniconda2/envs/tf2gpu/share/psi4/basis/cc-pvdz.gbs

         ---------------------------------------------------------
                                   SCF
               by Justin Turney, Rob Parrish, Andy Simmonett
                          and Daniel G. A. Smith
                              RHF Reference
                        1 Threads,    500 MiB Core
         ---------------------------------------------------------

  ==> Geometry <==

    Molecular point group: c1
    Full point group: C1

    Geometry (in Angstrom), charge = 0, multiplicity = 1:

       Center              X                  Y                   Z               Mass
    ------------   -----------------  -----------------  -----------------  -----------------
         C           -0.189496409172    -2.038121049027     2.186854143747    12.000000000000
         C            0.285503590828     1.080878950973     0.062854143747    12.000000000000
         C            0.453503590828    -0.214121049027     0.563854143747    12.000000000000
         C           -0.737496409172     1.912878950973     0.481854143747    12.000000000000
         C           -0.406496409172    -0.696121049027     1.553854143747    12.000000000000
         C           -1.618496409172     1.423878950973     1.440854143747    12.000000000000
         C           -1.454496409172     0.140878950973     1.970854143747    12.000000000000
         H            0.999503590828     1.454878950973    -0.655145856253     1.007825032230
         H            1.289503590828    -0.811121049027     0.227854143747     1.007825032230
         H           -0.840496409172     2.913878950973     0.094854143747     1.007825032230
         H           -2.409496409172     2.056878950973     1.807854143747     1.007825032230
         H           -0.605496409172    -2.006121049027     3.194854143747     1.007825032230
         H            0.884503590828    -2.179121049027     2.291854143747     1.007825032230
         H           -2.134496409172    -0.201121049027     2.738854143747     1.007825032230
         H           -0.628889409172    -2.905325049027     1.672174143747     1.007825032230
         C            1.788503590828    -0.206121049027    -3.053145856253    12.000000000000
         C            1.374503590828    -0.970121049027    -4.311145856253    12.000000000000
         H            2.627503590828     0.449878950973    -3.283145856253     1.007825032230
         H            0.945503590828     0.379878950973    -2.689145856253     1.007825032230
         H            2.087503590828    -0.901121049027    -2.273145856253     1.007825032230
         H            0.584503590828    -1.670121049027    -4.041145856253     1.007825032230
         H            2.230272590828    -1.513718049027    -4.737945856253     1.007825032230
         H            0.976687590828    -0.234124049027    -5.025325856253     1.007825032230

  Running in c1 symmetry.

  Rotational constants: A =      0.07284  B =      0.02185  C =      0.01794 [cm^-1]
  Rotational constants: A =   2183.77708  B =    655.12673  C =    537.94346 [MHz]
  Nuclear repulsion =  400.117783073279611

  Charge       = 0
  Multiplicity = 1
  Electrons    = 68
  Nalpha       = 34
  Nbeta        = 34

  ==> Algorithm <==

  SCF Algorithm Type is PK.
  DIIS enabled.
  MOM disabled.
  Fractional occupation disabled.
  Guess Type is SAD.
  Energy threshold   = 1.00e-06
  Density threshold  = 1.00e-10
  Integral threshold = 0.00e+00

  ==> Primary Basis <==

  Basis Set: CC-PVDZ
    Blend: CC-PVDZ
    Number of shells: 96
    Number of basis function: 196
    Number of Cartesian functions: 205
    Spherical Harmonics?: true
    Max angular momentum: 2

  ==> Pre-Iterations <==

   -------------------------------------------------------
    Irrep   Nso     Nmo     Nalpha   Nbeta   Ndocc  Nsocc
   -------------------------------------------------------
     A        196     196       0       0       0       0
   -------------------------------------------------------
    Total     196     196      34      34      34       0
   -------------------------------------------------------

  ==> Integral Setup <==

  Using integral reordering PK algorithm.
  Sizing the integral batches needed.
  Building batch lookup table.
   Calculation information:
      Number of atoms:                  23
      Number of AO shells:              96
      Number of primitives:            268
      Number of atomic orbitals:       205
      Number of basis functions:       196

      Integral cutoff                 1.00e-12
      Number of threads:                 1

	Batch   1 pq = [       0,    9405] index = [             0,44231715] size =     44231715
	Batch   2 pq = [    9405,   13301] index = [      44231715,88464951] size =     44233236
	Batch   3 pq = [   13301,   16290] index = [      88464951,132690195] size =     44225244
	Batch   4 pq = [   16290,   18810] index = [     132690195,176917455] size =     44227260
	Batch   5 pq = [   18810,   19306] index = [     176917455,186370471] size =      9453016
  Task number: 17
  Buffer size: 11059200
  Buffer per thread: 2
  We computed 8726882 shell quartets total.
  Whereas there are 10841496 unique shell quartets.

  ==> DiskJK: Disk-Based J/K Matrices <==

    J tasked:                  Yes
    K tasked:                  Yes
    wK tasked:                  No
    Memory [MiB]:              375
    Schwarz Cutoff:          1E-12

    OpenMP threads:              1

  Minimum eigenvalue in the overlap matrix is 3.1495658504E-04.
  Using Symmetric Orthogonalization.

  SCF Guess: Superposition of Atomic Densities via on-the-fly atomic UHF.

  ==> Iterations <==

                        Total Energy        Delta E     RMS |[F,P]|

   @RHF iter SAD:  -347.86322153772767   -3.47863e+02   0.00000e+00
   @RHF iter   1:  -348.76504855875959   -9.01827e-01   2.89100e-03 DIIS
   @RHF iter   2:  -348.95760201933041   -1.92553e-01   1.19555e-03 DIIS
   @RHF iter   3:  -348.98757002033597   -2.99680e-02   2.58042e-04 DIIS
   @RHF iter   4:  -348.99005695138686   -2.48693e-03   4.93613e-05 DIIS
   @RHF iter   5:  -348.99012377755707   -6.68262e-05   1.66794e-05 DIIS
   @RHF iter   6:  -348.99013069425575   -6.91670e-06   4.63806e-06 DIIS
   @RHF iter   7:  -348.99013131416291   -6.19907e-07   1.32832e-06 DIIS
   @RHF iter   8:  -348.99013136960832   -5.54454e-08   3.17167e-07 DIIS
   @RHF iter   9:  -348.99013137638616   -6.77784e-09   1.32450e-07 DIIS
   @RHF iter  10:  -348.99013137793651   -1.55035e-09   6.73379e-08 DIIS
   @RHF iter  11:  -348.99013137844179   -5.05281e-10   2.48106e-08 DIIS
   @RHF iter  12:  -348.99013137851227   -7.04858e-11   9.35773e-09 DIIS
   @RHF iter  13:  -348.99013137852216   -9.89075e-12   4.17644e-09 DIIS
   @RHF iter  14:  -348.99013137852035    1.81899e-12   9.01608e-10 DIIS
   @RHF iter  15:  -348.99013137852319   -2.84217e-12   4.12543e-10 DIIS
   @RHF iter  16:  -348.99013137852211    1.08002e-12   1.79098e-10 DIIS
   @RHF iter  17:  -348.99013137852194    1.70530e-13   6.97695e-11 DIIS
  Energy and wave function converged.

  ==> Post-Iterations <==

    Orbital Energies [Eh]
    ---------------------

    Doubly Occupied:

       1A    -11.242533     2A    -11.235095     3A    -11.233211
       4A    -11.231131     5A    -11.230559     6A    -11.229966
       7A    -11.229566     8A    -11.218392     9A    -11.215013
      10A     -1.150411    11A     -1.046006    12A     -1.018714
      13A     -1.007304    14A     -0.933086    15A     -0.835258
      16A     -0.823297    17A     -0.794254    18A     -0.691253
      19A     -0.630244    20A     -0.630036    21A     -0.600197
      22A     -0.598527    23A     -0.579090    24A     -0.576212
      25A     -0.565551    26A     -0.534481    27A     -0.497280
      28A     -0.488911    29A     -0.486684    30A     -0.486013
      31A     -0.482546    32A     -0.476485    33A     -0.328751
      34A     -0.322777

    Virtual:

      35A      0.135834    36A      0.139086    37A      0.177667
      38A      0.193617    39A      0.203457    40A      0.214545
      41A      0.234193    42A      0.242435    43A      0.255086
      44A      0.262590    45A      0.265430    46A      0.279633
      47A      0.283049    48A      0.291686    49A      0.304151
      50A      0.337038    51A      0.367433    52A      0.382311
      53A      0.400344    54A      0.453364    55A      0.467785
      56A      0.476509    57A      0.495960    58A      0.557806
      59A      0.591291    60A      0.600173    61A      0.604660
      62A      0.637458    63A      0.638251    64A      0.661460
      65A      0.677596    66A      0.689233    67A      0.697260
      68A      0.706927    69A      0.718427    70A      0.740707
      71A      0.743868    72A      0.750125    73A      0.758741
      74A      0.775373    75A      0.779402    76A      0.806075
      77A      0.837008    78A      0.850059    79A      0.872541
      80A      0.873794    81A      0.875556    82A      0.890503
      83A      0.893217    84A      0.895840    85A      0.899716
      86A      0.904830    87A      0.914260    88A      0.918378
      89A      0.924439    90A      0.931229    91A      0.942909
      92A      0.971462    93A      0.985843    94A      0.997008
      95A      1.023656    96A      1.059677    97A      1.125083
      98A      1.126903    99A      1.129763   100A      1.146433
     101A      1.155124   102A      1.161259   103A      1.184577
     104A      1.226162   105A      1.241843   106A      1.255276
     107A      1.259691   108A      1.277478   109A      1.297911
     110A      1.304666   111A      1.323744   112A      1.327934
     113A      1.411745   114A      1.477685   115A      1.490205
     116A      1.513788   117A      1.522588   118A      1.545754
     119A      1.586414   120A      1.599589   121A      1.675433
     122A      1.682430   123A      1.695652   124A      1.702254
     125A      1.730658   126A      1.754654   127A      1.763596
     128A      1.787408   129A      1.804250   130A      1.851868
     131A      1.860105   132A      1.867514   133A      1.891788
     134A      1.902548   135A      1.906573   136A      1.907104
     137A      1.916220   138A      1.928446   139A      1.935657
     140A      1.942226   141A      1.944183   142A      1.957832
     143A      1.960864   144A      1.970283   145A      1.979123
     146A      1.993571   147A      2.002057   148A      2.009044
     149A      2.042271   150A      2.056890   151A      2.062202
     152A      2.104800   153A      2.113897   154A      2.126417
     155A      2.145347   156A      2.157514   157A      2.174260
     158A      2.182947   159A      2.190081   160A      2.254893
     161A      2.283693   162A      2.295395   163A      2.302808
     164A      2.304345   165A      2.310788   166A      2.320674
     167A      2.329444   168A      2.459047   169A      2.465992
     170A      2.474029   171A      2.478787   172A      2.501476
     173A      2.544899   174A      2.572778   175A      2.580382
     176A      2.614847   177A      2.741930   178A      2.754656
     179A      2.766451   180A      2.768026   181A      2.781818
     182A      2.799578   183A      2.822862   184A      2.833960
     185A      2.855268   186A      2.863757   187A      2.870221
     188A      2.954308   189A      2.969029   190A      2.979740
     191A      3.006289   192A      3.021107   193A      3.151369
     194A      3.199601   195A      3.295233   196A      3.955033

    Final Occupation by Irrep:
              A
    DOCC [    34 ]

  @RHF Final Energy:  -348.99013137852194

   => Energetics <=

    Nuclear Repulsion Energy =            400.1177830732796110
    One-Electron Energy =               -1262.9181589079064452
    Two-Electron Energy =                 513.8102444561048969
    Total Energy =                       -348.9901313785219372

Computation Completed

Properties will be evaluated at   0.000000,   0.000000,   0.000000 [a0]

Properties computed using the SCF density matrix

  Nuclear Dipole Moment: [e a0]
     X:     5.6310      Y:    -4.8434      Z:   -10.0091

  Electronic Dipole Moment: [e a0]
     X:    -5.6021      Y:     4.7548      Z:    10.1122

  Dipole Moment: [e a0]
     X:     0.0289      Y:    -0.0886      Z:     0.1031     Total:     0.1390

  Dipole Moment: [D]
     X:     0.0734      Y:    -0.2253      Z:     0.2620     Total:     0.3533

*** tstop() called on ds3 at Tue Apr 28 13:22:51 2020
Module time:
	user time   =      63.70 seconds =       1.06 minutes
	system time =      28.09 seconds =       0.47 minutes
	total time  =        165 seconds =       2.75 minutes
Total time:
	user time   =      63.70 seconds =       1.06 minutes
	system time =      28.09 seconds =       0.47 minutes
	total time  =        165 seconds =       2.75 minutes
                                     G D M A

                                 by Anthony Stone

                           version 2.2.06, 22 June 2011

               Distributed Multipoles from Gaussian wavefunctions

Starting at 13:22:51 on 28 Apr 2020

Using SCF density matrix from file ./SSI/SSI-073PHE-079LEU-1-dimer.test.15916.fchk

                         Distributed Multipole Analysis

Standard DMA

Positions and radii in angstrom
Multipole moments in atomic units, ea_0^k for rank k

C          x = -0.189496  y = -2.038121  z =  2.186854 angstrom
           Maximum rank =  0   Radius =  0.650 angstrom
                   Q00  =  -0.209435

C          x =  0.285504  y =  1.080879  z =  0.062854 angstrom
           Maximum rank =  0   Radius =  0.650 angstrom
                   Q00  =   0.022697

C          x =  0.453504  y = -0.214121  z =  0.563854 angstrom
           Maximum rank =  0   Radius =  0.650 angstrom
                   Q00  =  -0.098748

C          x = -0.737496  y =  1.912879  z =  0.481854 angstrom
           Maximum rank =  0   Radius =  0.650 angstrom
                   Q00  =  -0.088428

C          x = -0.406496  y = -0.696121  z =  1.553854 angstrom
           Maximum rank =  0   Radius =  0.650 angstrom
                   Q00  =  -0.092276

C          x = -1.618496  y =  1.423879  z =  1.440854 angstrom
           Maximum rank =  0   Radius =  0.650 angstrom
                   Q00  =  -0.077372

C          x = -1.454496  y =  0.140879  z =  1.970854 angstrom
           Maximum rank =  0   Radius =  0.650 angstrom
                   Q00  =  -0.069539

H          x =  0.999504  y =  1.454879  z = -0.655146 angstrom
           Maximum rank =  0   Radius =  0.325 angstrom
                   Q00  =   0.064648

H          x =  1.289504  y = -0.811121  z =  0.227854 angstrom
           Maximum rank =  0   Radius =  0.325 angstrom
                   Q00  =   0.059121

H          x = -0.840496  y =  2.913879  z =  0.094854 angstrom
           Maximum rank =  0   Radius =  0.325 angstrom
                   Q00  =   0.063770

H          x = -2.409496  y =  2.056879  z =  1.807854 angstrom
           Maximum rank =  0   Radius =  0.325 angstrom
                   Q00  =   0.064301

H          x = -0.605496  y = -2.006121  z =  3.194854 angstrom
           Maximum rank =  0   Radius =  0.325 angstrom
                   Q00  =   0.096926

H          x =  0.884504  y = -2.179121  z =  2.291854 angstrom
           Maximum rank =  0   Radius =  0.325 angstrom
                   Q00  =   0.099092

H          x = -2.134496  y = -0.201121  z =  2.738854 angstrom
           Maximum rank =  0   Radius =  0.325 angstrom
                   Q00  =   0.056623

H          x = -0.628889  y = -2.905325  z =  1.672174 angstrom
           Maximum rank =  0   Radius =  0.325 angstrom
                   Q00  =   0.107317

C          x =  1.788504  y = -0.206121  z = -3.053146 angstrom
           Maximum rank =  0   Radius =  0.650 angstrom
                   Q00  =  -0.243207

C          x =  1.374504  y = -0.970121  z = -4.311146 angstrom
           Maximum rank =  0   Radius =  0.650 angstrom
                   Q00  =  -0.228759

H          x =  2.627504  y =  0.449879  z = -3.283146 angstrom
           Maximum rank =  0   Radius =  0.325 angstrom
                   Q00  =   0.076082

H          x =  0.945504  y =  0.379879  z = -2.689146 angstrom
           Maximum rank =  0   Radius =  0.325 angstrom
                   Q00  =   0.083726

H          x =  2.087504  y = -0.901121  z = -2.273146 angstrom
           Maximum rank =  0   Radius =  0.325 angstrom
                   Q00  =   0.076207

H          x =  0.584504  y = -1.670121  z = -4.041146 angstrom
           Maximum rank =  0   Radius =  0.325 angstrom
                   Q00  =   0.080962

H          x =  2.230273  y = -1.513718  z = -4.737946 angstrom
           Maximum rank =  0   Radius =  0.325 angstrom
                   Q00  =   0.079280

H          x =  0.976688  y = -0.234124  z = -5.025326 angstrom
           Maximum rank =  0   Radius =  0.325 angstrom
                   Q00  =   0.077013

Total multipoles referred to origin at
           x =   0.000000,  y =    0.000000,  z =    0.000000 angstrom
                   Q00  =  -0.000000

Finished at 13:22:52 on 28 Apr 2020

  DMA results are available in the Python driver through the
	  variable('DMA DISTRIBUTED MULTIPOLES')
  and
	  variable('DMA TOTAL MULTIPOLES')
  commands.

    Psi4 stopped on: Tuesday, 28 April 2020 01:22PM
    Psi4 wall time for execution: 0:02:45.20

*** Psi4 exiting successfully. Buy a developer a beer!
