                               Psi4 1.3.2 release

  ==> Input File <==

--------------------------------------------------------------------------
import numpy as np
set {scf_type pk
basis cc-pvdz
d_convergence 10
gdma_switch   0
gdma_limit    0
gdma_origin   [ 0.0,  0.0,  0.0 ]
}
molecule test {
    units Angstrom
    0 1
    --
    0 1
    C               -0.701941828794427     2.278669172623144    -0.672064827839974
    C               -0.049941828794427     2.880669172623145     0.550935172160026
    H               -1.372941828794427     2.997669172623145    -1.141064827839975
    H                0.066058171205573     1.988669172623144    -1.391064827839975
    H               -1.266941828794427     1.384669172623145    -0.411064827839974
    H                0.570058171205573     2.136669172623145     1.049935172160026
    H               -0.848691828794427     3.236389172623144     1.218365172160026
    H                0.586058171205573     3.711479172623144     0.211445172160026
    C                0.270058171205573    -1.109330827376856     0.152935172160026
    C               -0.674941828794427    -1.902330827376856    -0.753064827839974
    C                1.172058171205573    -2.208330827376856     0.743935172160025
    H               -0.272941828794427    -0.571330827376856     0.930935172160026
    H                0.870058171205573    -0.422330827376856    -0.447064827839974
    H               -1.490941828794427    -2.326330827376856    -0.167064827839974
    H               -1.057941828794427    -1.267330827376856    -1.553064827839975
    H                0.632058171205573    -2.705330827376856     1.547935172160026
    H                2.116058171205573    -1.832330827376856     1.116935172160026
    H               -0.031651828794427    -2.707750827376855    -1.137094827839974
    H                1.319638171205573    -2.900610827376856    -0.098064827839974

}
e, wfn = energy('scf', return_wfn=True)
gdma(wfn)
dmavals = variable('DMA DISTRIBUTED MULTIPOLES')
charges = np.array(dmavals)
print(charges)
np.save('SSI-186VAL-208PRO-1-dimer.npy', np.array(charges))--------------------------------------------------------------------------

*** tstart() called on ds3
*** at Tue Apr 28 13:58:42 2020

   => Loading Basis Set <=

    Name: CC-PVDZ
    Role: ORBITAL
    Keyword: BASIS
    atoms 1-2, 9-11  entry C          line   138 file /theoryfs2/ds/metcalf/miniconda2/envs/tf2gpu/share/psi4/basis/cc-pvdz.gbs
    atoms 3-8, 12-19 entry H          line    22 file /theoryfs2/ds/metcalf/miniconda2/envs/tf2gpu/share/psi4/basis/cc-pvdz.gbs

         ---------------------------------------------------------
                                   SCF
               by Justin Turney, Rob Parrish, Andy Simmonett
                          and Daniel G. A. Smith
                              RHF Reference
                        1 Threads,    500 MiB Core
         ---------------------------------------------------------

  ==> Geometry <==

    Molecular point group: c1
    Full point group: C1

    Geometry (in Angstrom), charge = 0, multiplicity = 1:

       Center              X                  Y                   Z               Mass
    ------------   -----------------  -----------------  -----------------  -----------------
         C           -0.701941828794     2.278669172623    -0.672064827840    12.000000000000
         C           -0.049941828794     2.880669172623     0.550935172160    12.000000000000
         H           -1.372941828794     2.997669172623    -1.141064827840     1.007825032230
         H            0.066058171206     1.988669172623    -1.391064827840     1.007825032230
         H           -1.266941828794     1.384669172623    -0.411064827840     1.007825032230
         H            0.570058171206     2.136669172623     1.049935172160     1.007825032230
         H           -0.848691828794     3.236389172623     1.218365172160     1.007825032230
         H            0.586058171206     3.711479172623     0.211445172160     1.007825032230
         C            0.270058171206    -1.109330827377     0.152935172160    12.000000000000
         C           -0.674941828794    -1.902330827377    -0.753064827840    12.000000000000
         C            1.172058171206    -2.208330827377     0.743935172160    12.000000000000
         H           -0.272941828794    -0.571330827377     0.930935172160     1.007825032230
         H            0.870058171206    -0.422330827377    -0.447064827840     1.007825032230
         H           -1.490941828794    -2.326330827377    -0.167064827840     1.007825032230
         H           -1.057941828794    -1.267330827377    -1.553064827840     1.007825032230
         H            0.632058171206    -2.705330827377     1.547935172160     1.007825032230
         H            2.116058171206    -1.832330827377     1.116935172160     1.007825032230
         H           -0.031651828794    -2.707750827377    -1.137094827840     1.007825032230
         H            1.319638171206    -2.900610827377    -0.098064827840     1.007825032230

  Running in c1 symmetry.

  Rotational constants: A =      0.22816  B =      0.04504  C =      0.03926 [cm^-1]
  Rotational constants: A =   6839.99192  B =   1350.26886  C =   1176.91850 [MHz]
  Nuclear repulsion =  181.586594299256916

  Charge       = 0
  Multiplicity = 1
  Electrons    = 44
  Nalpha       = 22
  Nbeta        = 22

  ==> Algorithm <==

  SCF Algorithm Type is PK.
  DIIS enabled.
  MOM disabled.
  Fractional occupation disabled.
  Guess Type is SAD.
  Energy threshold   = 1.00e-06
  Density threshold  = 1.00e-10
  Integral threshold = 0.00e+00

  ==> Primary Basis <==

  Basis Set: CC-PVDZ
    Blend: CC-PVDZ
    Number of shells: 72
    Number of basis function: 140
    Number of Cartesian functions: 145
    Spherical Harmonics?: true
    Max angular momentum: 2

  ==> Pre-Iterations <==

   -------------------------------------------------------
    Irrep   Nso     Nmo     Nalpha   Nbeta   Ndocc  Nsocc
   -------------------------------------------------------
     A        140     140       0       0       0       0
   -------------------------------------------------------
    Total     140     140      22      22      22       0
   -------------------------------------------------------

  ==> Integral Setup <==

  Using integral reordering PK algorithm.
  Sizing the integral batches needed.
  Building batch lookup table.
   Calculation information:
      Number of atoms:                  19
      Number of AO shells:              72
      Number of primitives:            180
      Number of atomic orbitals:       145
      Number of basis functions:       140

      Integral cutoff                 1.00e-12
      Number of threads:                 1

	Batch   1 pq = [       0,    9405] index = [             0,44231715] size =     44231715
	Batch   2 pq = [    9405,    9870] index = [      44231715,48713385] size =      4481670
  Task number: 5
  Buffer size: 11059200
  Buffer per thread: 2
  We computed 2972232 shell quartets total.
  Whereas there are 3454506 unique shell quartets.

  ==> DiskJK: Disk-Based J/K Matrices <==

    J tasked:                  Yes
    K tasked:                  Yes
    wK tasked:                  No
    Memory [MiB]:              375
    Schwarz Cutoff:          1E-12

    OpenMP threads:              1

  Minimum eigenvalue in the overlap matrix is 5.1001460998E-03.
  Using Symmetric Orthogonalization.

  SCF Guess: Superposition of Atomic Densities via on-the-fly atomic UHF.

  ==> Iterations <==

                        Total Energy        Delta E     RMS |[F,P]|

   @RHF iter SAD:  -196.48616437289337   -1.96486e+02   0.00000e+00
   @RHF iter   1:  -197.29323791446063   -8.07074e-01   3.84508e-03 DIIS
   @RHF iter   2:  -197.45495070229214   -1.61713e-01   1.66488e-03 DIIS
   @RHF iter   3:  -197.48410894066919   -2.91582e-02   3.27991e-04 DIIS
   @RHF iter   4:  -197.48632063719359   -2.21170e-03   4.86303e-05 DIIS
   @RHF iter   5:  -197.48635964597884   -3.90088e-05   1.52663e-05 DIIS
   @RHF iter   6:  -197.48636320011855   -3.55414e-06   2.53714e-06 DIIS
   @RHF iter   7:  -197.48636331976678   -1.19648e-07   4.63228e-07 DIIS
   @RHF iter   8:  -197.48636332422026   -4.45348e-09   1.07659e-07 DIIS
   @RHF iter   9:  -197.48636332445489   -2.34621e-10   3.42779e-08 DIIS
   @RHF iter  10:  -197.48636332448004   -2.51532e-11   8.30553e-09 DIIS
   @RHF iter  11:  -197.48636332448191   -1.87583e-12   1.58497e-09 DIIS
   @RHF iter  12:  -197.48636332448154    3.69482e-13   3.22843e-10 DIIS
   @RHF iter  13:  -197.48636332448129    2.55795e-13   5.44721e-11 DIIS
  Energy and wave function converged.

  ==> Post-Iterations <==

    Orbital Energies [Eh]
    ---------------------

    Doubly Occupied:

       1A    -11.218676     2A    -11.217740     3A    -11.214190
       4A    -11.213946     5A    -11.213865     6A     -1.061705
       7A     -1.022886     8A     -0.912960     9A     -0.833186
      10A     -0.800395    11A     -0.636351    12A     -0.612695
      13A     -0.601488    14A     -0.598806    15A     -0.540866
      16A     -0.511554    17A     -0.501239    18A     -0.485371
      19A     -0.484357    20A     -0.479750    21A     -0.472429
      22A     -0.457748

    Virtual:

      23A      0.173136    24A      0.196003    25A      0.213422
      26A      0.218355    27A      0.235224    28A      0.251011
      29A      0.254666    30A      0.267217    31A      0.270880
      32A      0.285186    33A      0.300872    34A      0.314068
      35A      0.330758    36A      0.356624    37A      0.378249
      38A      0.398062    39A      0.429442    40A      0.554159
      41A      0.585079    42A      0.599090    43A      0.606908
      44A      0.615380    45A      0.625825    46A      0.651790
      47A      0.667619    48A      0.685828    49A      0.770651
      50A      0.784358    51A      0.823994    52A      0.847019
      53A      0.857419    54A      0.865821    55A      0.879208
      56A      0.889408    57A      0.899586    58A      0.901564
      59A      0.907375    60A      0.909466    61A      0.916645
      62A      0.928842    63A      0.943342    64A      0.948729
      65A      0.959090    66A      0.967914    67A      0.987953
      68A      1.012125    69A      1.105818    70A      1.122325
      71A      1.128093    72A      1.144836    73A      1.197418
      74A      1.242796    75A      1.402248    76A      1.452880
      77A      1.484620    78A      1.490611    79A      1.494407
      80A      1.551670    81A      1.621632    82A      1.623808
      83A      1.641045    84A      1.675999    85A      1.704699
      86A      1.733599    87A      1.750448    88A      1.814535
      89A      1.849014    90A      1.858205    91A      1.871178
      92A      1.884799    93A      1.910814    94A      1.915281
      95A      1.929088    96A      1.936432    97A      1.939016
      98A      1.951165    99A      1.957279   100A      1.974757
     101A      1.977774   102A      1.991287   103A      1.995805
     104A      2.016000   105A      2.025279   106A      2.069673
     107A      2.106812   108A      2.114473   109A      2.129692
     110A      2.140646   111A      2.176429   112A      2.239602
     113A      2.285102   114A      2.311484   115A      2.329070
     116A      2.348335   117A      2.433569   118A      2.458916
     119A      2.462068   120A      2.470014   121A      2.503001
     122A      2.548116   123A      2.574002   124A      2.589585
     125A      2.631186   126A      2.694401   127A      2.756956
     128A      2.768019   129A      2.781931   130A      2.795313
     131A      2.802330   132A      2.831898   133A      2.842679
     134A      2.859307   135A      2.880423   136A      2.924062
     137A      2.943551   138A      2.963807   139A      2.980685
     140A      3.049967

    Final Occupation by Irrep:
              A
    DOCC [    22 ]

  @RHF Final Energy:  -197.48636332448129

   => Energetics <=

    Nuclear Repulsion Energy =            181.5865942992569160
    One-Electron Energy =                -623.9615052945501930
    Two-Electron Energy =                 244.8885476708119597
    Total Energy =                       -197.4863633244812888

Computation Completed

Properties will be evaluated at   0.000000,   0.000000,   0.000000 [a0]

Properties computed using the SCF density matrix

  Nuclear Dipole Moment: [e a0]
     X:    -0.1707      Y:     0.6770      Z:    -0.2531

  Electronic Dipole Moment: [e a0]
     X:     0.1682      Y:    -0.6569      Z:     0.2596

  Dipole Moment: [e a0]
     X:    -0.0025      Y:     0.0201      Z:     0.0064     Total:     0.0213

  Dipole Moment: [D]
     X:    -0.0064      Y:     0.0512      Z:     0.0164     Total:     0.0541

*** tstop() called on ds3 at Tue Apr 28 13:59:04 2020
Module time:
	user time   =      16.21 seconds =       0.27 minutes
	system time =       6.28 seconds =       0.10 minutes
	total time  =         22 seconds =       0.37 minutes
Total time:
	user time   =      16.21 seconds =       0.27 minutes
	system time =       6.28 seconds =       0.10 minutes
	total time  =         22 seconds =       0.37 minutes
                                     G D M A

                                 by Anthony Stone

                           version 2.2.06, 22 June 2011

               Distributed Multipoles from Gaussian wavefunctions

Starting at 13:59:4 on 28 Apr 2020

Using SCF density matrix from file ./SSI/SSI-186VAL-208PRO-1-dimer.test.7930.fchk

                         Distributed Multipole Analysis

Standard DMA

Positions and radii in angstrom
Multipole moments in atomic units, ea_0^k for rank k

C          x = -0.701942  y =  2.278669  z = -0.672065 angstrom
           Maximum rank =  0   Radius =  0.650 angstrom
                   Q00  =  -0.239895

C          x = -0.049942  y =  2.880669  z =  0.550935 angstrom
           Maximum rank =  0   Radius =  0.650 angstrom
                   Q00  =  -0.222007

H          x = -1.372942  y =  2.997669  z = -1.141065 angstrom
           Maximum rank =  0   Radius =  0.325 angstrom
                   Q00  =   0.077421

H          x =  0.066058  y =  1.988669  z = -1.391065 angstrom
           Maximum rank =  0   Radius =  0.325 angstrom
                   Q00  =   0.073472

H          x = -1.266942  y =  1.384669  z = -0.411065 angstrom
           Maximum rank =  0   Radius =  0.325 angstrom
                   Q00  =   0.078457

H          x =  0.570058  y =  2.136669  z =  1.049935 angstrom
           Maximum rank =  0   Radius =  0.325 angstrom
                   Q00  =   0.081338

H          x = -0.848692  y =  3.236389  z =  1.218365 angstrom
           Maximum rank =  0   Radius =  0.325 angstrom
                   Q00  =   0.075782

H          x =  0.586058  y =  3.711479  z =  0.211445 angstrom
           Maximum rank =  0   Radius =  0.325 angstrom
                   Q00  =   0.075206

C          x =  0.270058  y = -1.109331  z =  0.152935 angstrom
           Maximum rank =  0   Radius =  0.650 angstrom
                   Q00  =  -0.112223

C          x = -0.674942  y = -1.902331  z = -0.753065 angstrom
           Maximum rank =  0   Radius =  0.650 angstrom
                   Q00  =  -0.230290

C          x =  1.172058  y = -2.208331  z =  0.743935 angstrom
           Maximum rank =  0   Radius =  0.650 angstrom
                   Q00  =  -0.211375

H          x = -0.272942  y = -0.571331  z =  0.930935 angstrom
           Maximum rank =  0   Radius =  0.325 angstrom
                   Q00  =   0.056365

H          x =  0.870058  y = -0.422331  z = -0.447065 angstrom
           Maximum rank =  0   Radius =  0.325 angstrom
                   Q00  =   0.054411

H          x = -1.490942  y = -2.326331  z = -0.167065 angstrom
           Maximum rank =  0   Radius =  0.325 angstrom
                   Q00  =   0.080620

H          x = -1.057942  y = -1.267331  z = -1.553065 angstrom
           Maximum rank =  0   Radius =  0.325 angstrom
                   Q00  =   0.082889

H          x =  0.632058  y = -2.705331  z =  1.547935 angstrom
           Maximum rank =  0   Radius =  0.325 angstrom
                   Q00  =   0.078387

H          x =  2.116058  y = -1.832331  z =  1.116935 angstrom
           Maximum rank =  0   Radius =  0.325 angstrom
                   Q00  =   0.084706

H          x = -0.031652  y = -2.707751  z = -1.137095 angstrom
           Maximum rank =  0   Radius =  0.325 angstrom
                   Q00  =   0.062589

H          x =  1.319638  y = -2.900611  z = -0.098065 angstrom
           Maximum rank =  0   Radius =  0.325 angstrom
                   Q00  =   0.054145

Total multipoles referred to origin at
           x =   0.000000,  y =    0.000000,  z =    0.000000 angstrom
                   Q00  =  -0.000000

Finished at 13:59:4 on 28 Apr 2020

  DMA results are available in the Python driver through the
	  variable('DMA DISTRIBUTED MULTIPOLES')
  and
	  variable('DMA TOTAL MULTIPOLES')
  commands.

    Psi4 stopped on: Tuesday, 28 April 2020 01:59PM
    Psi4 wall time for execution: 0:00:22.06

*** Psi4 exiting successfully. Buy a developer a beer!
