                               Psi4 1.3.2 release

  ==> Input File <==

--------------------------------------------------------------------------
import numpy as np
set {scf_type pk
basis cc-pvdz
d_convergence 10
gdma_switch   0
gdma_limit    0
gdma_origin   [ 0.0,  0.0,  0.0 ]
}
molecule test {
    units Angstrom
    0 1
    --
    0 1
    C               -0.087363740736322    -0.871578913060226     3.974207347485656
    C                1.022636259263678    -1.232578913060226     1.634207347485656
    C                0.981636259263678    -0.699578913060226     2.961207347485656
    C                2.245636259263678    -0.811578913060226     1.047207347485656
    C                2.137636259263677     0.003421086939774     3.130207347485656
    C                0.142636259263678    -2.034578913060226     0.926207347485656
    C                0.496636259263678    -2.387578913060226    -0.367792652514344
    C                1.695636259263678    -1.954578913060226    -0.939792652514344
    C                2.590636259263678    -1.162578913060226    -0.246792652514344
    N                2.896636259263678    -0.059578913060226     1.987207347485656
    H               -0.775363740736322    -2.346578913060226     1.381207347485656
    H               -0.165363740736322    -3.010578913060226    -0.956792652514344
    H                1.929636259263678    -2.248578913060226    -1.955792652514344
    H                0.384636259263678    -0.856578913060226     4.950207347485655
    H               -0.526363740736322    -1.859578913060226     3.846207347485656
    H                2.424636259263678     0.521421086939774     4.040207347485657
    H                3.809636259263678     0.369421086939774     1.882207347485656
    H                3.520636259263678    -0.834578913060226    -0.690792652514344
    H               -0.894403740736322    -0.124128913060226     3.972767347485656
    C               -0.450363740736322     0.976421086939774    -1.431792652514344
    C                0.587636259263678     1.239421086939774    -2.503792652514344
    C               -1.402363740736322     2.416421086939774    -3.149792652514344
    C               -3.100363740736322     0.496421086939774    -0.333792652514344
    C               -2.939363740736322     1.397421086939773    -1.544792652514344
    O               -3.899363740736322     1.913421086939773    -2.125792652514344
    N               -1.665363740736322     1.590421086939774    -1.971792652514344
    H               -0.581363740736322    -0.098578913060226    -1.312792652514344
    H               -0.172363740736322     1.411421086939774    -0.482792652514344
    H                0.655636259263678     0.357421086939774    -3.143792652514344
    H                1.564636259263678     1.442421086939774    -2.066792652514344
    H               -1.747363740736322     3.439421086939774    -2.985792652514344
    H               -2.454363740736322     0.854421086939774     0.460207347485656
    H               -2.760363740736322    -0.502578913060226    -0.603792652514344
    H                0.229106259263678     2.086731086939773    -3.106712652514344
    H               -0.310113740736322     2.402581086939774    -3.279402652514344
    H               -1.903813740736322     1.979721086939774    -4.026062652514344
    H               -4.134893740736322     0.449671086939774     0.037107347485656

}
e, wfn = energy('scf', return_wfn=True)
gdma(wfn)
dmavals = variable('DMA DISTRIBUTED MULTIPOLES')
charges = np.array(dmavals)
print(charges)
np.save('SSI-003TRP-163PRO-1-dimer.npy', np.array(charges))--------------------------------------------------------------------------

*** tstart() called on ds3
*** at Mon Apr 27 07:49:55 2020

   => Loading Basis Set <=

    Name: CC-PVDZ
    Role: ORBITAL
    Keyword: BASIS
    atoms 1-9, 20-24   entry C          line   138 file /theoryfs2/ds/metcalf/miniconda2/envs/tf2gpu/share/psi4/basis/cc-pvdz.gbs
    atoms 10, 26       entry N          line   168 file /theoryfs2/ds/metcalf/miniconda2/envs/tf2gpu/share/psi4/basis/cc-pvdz.gbs
    atoms 11-19, 27-37 entry H          line    22 file /theoryfs2/ds/metcalf/miniconda2/envs/tf2gpu/share/psi4/basis/cc-pvdz.gbs
    atoms 25           entry O          line   198 file /theoryfs2/ds/metcalf/miniconda2/envs/tf2gpu/share/psi4/basis/cc-pvdz.gbs

         ---------------------------------------------------------
                                   SCF
               by Justin Turney, Rob Parrish, Andy Simmonett
                          and Daniel G. A. Smith
                              RHF Reference
                        1 Threads,    500 MiB Core
         ---------------------------------------------------------

  ==> Geometry <==

    Molecular point group: c1
    Full point group: C1

    Geometry (in Angstrom), charge = 0, multiplicity = 1:

       Center              X                  Y                   Z               Mass
    ------------   -----------------  -----------------  -----------------  -----------------
         C           -0.087363740736    -0.871578913060     3.974207347486    12.000000000000
         C            1.022636259264    -1.232578913060     1.634207347486    12.000000000000
         C            0.981636259264    -0.699578913060     2.961207347486    12.000000000000
         C            2.245636259264    -0.811578913060     1.047207347486    12.000000000000
         C            2.137636259264     0.003421086940     3.130207347486    12.000000000000
         C            0.142636259264    -2.034578913060     0.926207347486    12.000000000000
         C            0.496636259264    -2.387578913060    -0.367792652514    12.000000000000
         C            1.695636259264    -1.954578913060    -0.939792652514    12.000000000000
         C            2.590636259264    -1.162578913060    -0.246792652514    12.000000000000
         N            2.896636259264    -0.059578913060     1.987207347486    14.003074004430
         H           -0.775363740736    -2.346578913060     1.381207347486     1.007825032230
         H           -0.165363740736    -3.010578913060    -0.956792652514     1.007825032230
         H            1.929636259264    -2.248578913060    -1.955792652514     1.007825032230
         H            0.384636259264    -0.856578913060     4.950207347486     1.007825032230
         H           -0.526363740736    -1.859578913060     3.846207347486     1.007825032230
         H            2.424636259264     0.521421086940     4.040207347486     1.007825032230
         H            3.809636259264     0.369421086940     1.882207347486     1.007825032230
         H            3.520636259264    -0.834578913060    -0.690792652514     1.007825032230
         H           -0.894403740736    -0.124128913060     3.972767347486     1.007825032230
         C           -0.450363740736     0.976421086940    -1.431792652514    12.000000000000
         C            0.587636259264     1.239421086940    -2.503792652514    12.000000000000
         C           -1.402363740736     2.416421086940    -3.149792652514    12.000000000000
         C           -3.100363740736     0.496421086940    -0.333792652514    12.000000000000
         C           -2.939363740736     1.397421086940    -1.544792652514    12.000000000000
         O           -3.899363740736     1.913421086940    -2.125792652514    15.994914619570
         N           -1.665363740736     1.590421086940    -1.971792652514    14.003074004430
         H           -0.581363740736    -0.098578913060    -1.312792652514     1.007825032230
         H           -0.172363740736     1.411421086940    -0.482792652514     1.007825032230
         H            0.655636259264     0.357421086940    -3.143792652514     1.007825032230
         H            1.564636259264     1.442421086940    -2.066792652514     1.007825032230
         H           -1.747363740736     3.439421086940    -2.985792652514     1.007825032230
         H           -2.454363740736     0.854421086940     0.460207347486     1.007825032230
         H           -2.760363740736    -0.502578913060    -0.603792652514     1.007825032230
         H            0.229106259264     2.086731086940    -3.106712652514     1.007825032230
         H           -0.310113740736     2.402581086940    -3.279402652514     1.007825032230
         H           -1.903813740736     1.979721086940    -4.026062652514     1.007825032230
         H           -4.134893740736     0.449671086940     0.037107347486     1.007825032230

  Running in c1 symmetry.

  Rotational constants: A =      0.02276  B =      0.00828  C =      0.00731 [cm^-1]
  Rotational constants: A =    682.32383  B =    248.17451  C =    219.12634 [MHz]
  Nuclear repulsion = 1185.682910994962185

  Charge       = 0
  Multiplicity = 1
  Electrons    = 126
  Nalpha       = 63
  Nbeta        = 63

  ==> Algorithm <==

  SCF Algorithm Type is PK.
  DIIS enabled.
  MOM disabled.
  Fractional occupation disabled.
  Guess Type is SAD.
  Energy threshold   = 1.00e-06
  Density threshold  = 1.00e-10
  Integral threshold = 0.00e+00

  ==> Primary Basis <==

  Basis Set: CC-PVDZ
    Blend: CC-PVDZ
    Number of shells: 162
    Number of basis function: 338
    Number of Cartesian functions: 355
    Spherical Harmonics?: true
    Max angular momentum: 2

  ==> Pre-Iterations <==

   -------------------------------------------------------
    Irrep   Nso     Nmo     Nalpha   Nbeta   Ndocc  Nsocc
   -------------------------------------------------------
     A        338     338       0       0       0       0
   -------------------------------------------------------
    Total     338     338      63      63      63       0
   -------------------------------------------------------

  ==> Integral Setup <==

  Using integral reordering PK algorithm.
  Sizing the integral batches needed.
  Building batch lookup table.
   Calculation information:
      Number of atoms:                  37
      Number of AO shells:             162
      Number of primitives:            474
      Number of atomic orbitals:       355
      Number of basis functions:       338

      Integral cutoff                 1.00e-12
      Number of threads:                 1

	Batch   1 pq = [       0,    9405] index = [             0,44231715] size =     44231715
	Batch   2 pq = [    9405,   13301] index = [      44231715,88464951] size =     44233236
	Batch   3 pq = [   13301,   16290] index = [      88464951,132690195] size =     44225244
	Batch   4 pq = [   16290,   18810] index = [     132690195,176917455] size =     44227260
	Batch   5 pq = [   18810,   21030] index = [     176917455,221140965] size =     44223510
	Batch   6 pq = [   21030,   23037] index = [     221140965,265363203] size =     44222238
	Batch   7 pq = [   23037,   24883] index = [     265363203,309594286] size =     44231083
	Batch   8 pq = [   24883,   26601] index = [     309594286,353819901] size =     44225615
	Batch   9 pq = [   26601,   28214] index = [     353819901,398029005] size =     44209104
	Batch  10 pq = [   28214,   29740] index = [     398029005,442248670] size =     44219665
	Batch  11 pq = [   29740,   31191] index = [     442248670,486454836] size =     44206166
	Batch  12 pq = [   31191,   32578] index = [     486454836,530679331] size =     44224495
	Batch  13 pq = [   32578,   33908] index = [     530679331,574893186] size =     44213855
	Batch  14 pq = [   33908,   35188] index = [     574893186,619115266] size =     44222080
	Batch  15 pq = [   35188,   36423] index = [     619115266,663335676] size =     44220410
	Batch  16 pq = [   36423,   37617] index = [     663335676,707538153] size =     44202477
	Batch  17 pq = [   37617,   38775] index = [     707538153,751769700] size =     44231547
	Batch  18 pq = [   38775,   39899] index = [     751769700,795985050] size =     44215350
	Batch  19 pq = [   39899,   40992] index = [     795985050,840192528] size =     44207478
	Batch  20 pq = [   40992,   42057] index = [     840192528,884416653] size =     44224125
	Batch  21 pq = [   42057,   43095] index = [     884416653,928611060] size =     44194407
	Batch  22 pq = [   43095,   44109] index = [     928611060,972823995] size =     44212935
	Batch  23 pq = [   44109,   45100] index = [     972823995,1017027550] size =     44203555
	Batch  24 pq = [   45100,   46070] index = [    1017027550,1061245485] size =     44217935
	Batch  25 pq = [   46070,   47020] index = [    1061245485,1105463710] size =     44218225
	Batch  26 pq = [   47020,   47951] index = [    1105463710,1149673176] size =     44209466
	Batch  27 pq = [   47951,   48864] index = [    1149673176,1193869680] size =     44196504
	Batch  28 pq = [   48864,   49761] index = [    1193869680,1238103441] size =     44233761
	Batch  29 pq = [   49761,   50642] index = [    1238103441,1282331403] size =     44227962
	Batch  30 pq = [   50642,   51508] index = [    1282331403,1326562786] size =     44231383
	Batch  31 pq = [   51508,   52359] index = [    1326562786,1370758620] size =     44195834
	Batch  32 pq = [   52359,   53197] index = [    1370758620,1414987003] size =     44228383
	Batch  33 pq = [   53197,   54022] index = [    1414987003,1459215253] size =     44228250
	Batch  34 pq = [   54022,   54834] index = [    1459215253,1503411195] size =     44195942
	Batch  35 pq = [   54834,   55634] index = [    1503411195,1547598795] size =     44187600
	Batch  36 pq = [   55634,   56423] index = [    1547598795,1591805676] size =     44206881
	Batch  37 pq = [   56423,   57201] index = [    1591805676,1636005801] size =     44200125
	Batch  38 pq = [   57201,   57291] index = [    1636005801,1641157986] size =      5152185
  Task number: 149
  Buffer size: 11059200
  Buffer per thread: 2
  We computed 101800582 shell quartets total.
  Whereas there are 87166206 unique shell quartets.
    16.79 percent of shell quartets recomputed by reordering.

  ==> DiskJK: Disk-Based J/K Matrices <==

    J tasked:                  Yes
    K tasked:                  Yes
    wK tasked:                  No
    Memory [MiB]:              375
    Schwarz Cutoff:          1E-12

    OpenMP threads:              1

  Minimum eigenvalue in the overlap matrix is 2.3672522725E-04.
  Using Symmetric Orthogonalization.

  SCF Guess: Superposition of Atomic Densities via on-the-fly atomic UHF.

  ==> Iterations <==

                        Total Energy        Delta E     RMS |[F,P]|

   @RHF iter SAD:  -725.16343479763088   -7.25163e+02   0.00000e+00
   @RHF iter   1:  -724.99721242827081    1.66222e-01   2.40071e-03 DIIS
   @RHF iter   2:  -725.32487069572926   -3.27658e-01   1.27724e-03 DIIS
   @RHF iter   3:  -725.40309848156301   -7.82278e-02   3.26809e-04 DIIS
   @RHF iter   4:  -725.41044478227150   -7.34630e-03   1.23603e-04 DIIS
   @RHF iter   5:  -725.41150676784821   -1.06199e-03   2.22585e-05 DIIS
   @RHF iter   6:  -725.41158029973371   -7.35319e-05   1.19901e-05 DIIS
   @RHF iter   7:  -725.41159787576532   -1.75760e-05   4.40984e-06 DIIS
   @RHF iter   8:  -725.41160173242133   -3.85666e-06   1.69050e-06 DIIS
   @RHF iter   9:  -725.41160223342263   -5.01001e-07   7.07872e-07 DIIS
   @RHF iter  10:  -725.41160231845879   -8.50362e-08   2.70430e-07 DIIS
   @RHF iter  11:  -725.41160233638630   -1.79275e-08   1.26025e-07 DIIS
   @RHF iter  12:  -725.41160234050619   -4.11990e-09   5.91800e-08 DIIS
   @RHF iter  13:  -725.41160234159383   -1.08764e-09   2.47685e-08 DIIS
   @RHF iter  14:  -725.41160234178005   -1.86219e-10   9.21866e-09 DIIS
   @RHF iter  15:  -725.41160234178710   -7.04858e-12   3.41458e-09 DIIS
   @RHF iter  16:  -725.41160234179301   -5.91172e-12   1.41224e-09 DIIS
   @RHF iter  17:  -725.41160234179324   -2.27374e-13   5.13961e-10 DIIS
   @RHF iter  18:  -725.41160234179313    1.13687e-13   2.15625e-10 DIIS
   @RHF iter  19:  -725.41160234179802   -4.88853e-12   1.12877e-10 DIIS
   @RHF iter  20:  -725.41160234179279    5.22959e-12   4.49152e-11 DIIS
  Energy and wave function converged.

  ==> Post-Iterations <==

    Orbital Energies [Eh]
    ---------------------

    Doubly Occupied:

       1A    -20.492157     2A    -15.611420     3A    -15.568237
       4A    -11.333574     5A    -11.274247     6A    -11.272469
       7A    -11.259133     8A    -11.240749     9A    -11.238294
      10A    -11.238041    11A    -11.233719    12A    -11.231382
      13A    -11.230982    14A    -11.229108    15A    -11.228517
      16A    -11.223779    17A    -11.208632    18A     -1.349968
      19A     -1.306203    20A     -1.239245    21A     -1.143381
      22A     -1.085757    23A     -1.057465    24A     -1.011356
      25A     -0.998771    26A     -0.996296    27A     -0.964275
      28A     -0.940588    29A     -0.852049    30A     -0.841105
      31A     -0.815245    32A     -0.763301    33A     -0.744659
      34A     -0.731118    35A     -0.717769    36A     -0.672542
      37A     -0.660403    38A     -0.652531    39A     -0.643985
      40A     -0.616589    41A     -0.605435    42A     -0.604927
      43A     -0.601499    44A     -0.587425    45A     -0.576743
      46A     -0.567180    47A     -0.561513    48A     -0.548139
      49A     -0.543985    50A     -0.534820    51A     -0.524309
      52A     -0.517380    53A     -0.511322    54A     -0.503483
      55A     -0.482946    56A     -0.476756    57A     -0.470866
      58A     -0.394368    59A     -0.388206    60A     -0.377751
      61A     -0.350310    62A     -0.305623    63A     -0.284046

    Virtual:

      64A      0.114003    65A      0.156028    66A      0.162417
      67A      0.171333    68A      0.181955    69A      0.197875
      70A      0.200130    71A      0.206494    72A      0.209528
      73A      0.216985    74A      0.225590    75A      0.245187
      76A      0.248663    77A      0.252151    78A      0.255854
      79A      0.261524    80A      0.272381    81A      0.285854
      82A      0.290134    83A      0.292812    84A      0.308193
      85A      0.317637    86A      0.346146    87A      0.353031
      88A      0.361886    89A      0.370360    90A      0.381075
      91A      0.392576    92A      0.400622    93A      0.414938
      94A      0.419404    95A      0.442029    96A      0.455463
      97A      0.462699    98A      0.474705    99A      0.493207
     100A      0.504907   101A      0.519101   102A      0.525997
     103A      0.542784   104A      0.572081   105A      0.586407
     106A      0.604730   107A      0.609879   108A      0.634070
     109A      0.635400   110A      0.638256   111A      0.646315
     112A      0.659481   113A      0.665075   114A      0.688187
     115A      0.697212   116A      0.706792   117A      0.713736
     118A      0.719360   119A      0.728207   120A      0.729323
     121A      0.735143   122A      0.743775   123A      0.750637
     124A      0.751467   125A      0.761179   126A      0.771628
     127A      0.779229   128A      0.781849   129A      0.797210
     130A      0.818454   131A      0.826669   132A      0.837439
     133A      0.855023   134A      0.858530   135A      0.862290
     136A      0.872973   137A      0.873755   138A      0.879988
     139A      0.884879   140A      0.888968   141A      0.889679
     142A      0.899758   143A      0.906338   144A      0.916263
     145A      0.920704   146A      0.929330   147A      0.935288
     148A      0.939381   149A      0.944367   150A      0.948697
     151A      0.950970   152A      0.960498   153A      0.967947
     154A      0.973941   155A      0.983576   156A      1.000006
     157A      1.007205   158A      1.022278   159A      1.038562
     160A      1.051235   161A      1.057422   162A      1.067241
     163A      1.081732   164A      1.096305   165A      1.113101
     166A      1.121742   167A      1.131472   168A      1.134772
     169A      1.145228   170A      1.155377   171A      1.186257
     172A      1.196892   173A      1.207497   174A      1.211271
     175A      1.219753   176A      1.227576   177A      1.232655
     178A      1.240355   179A      1.261010   180A      1.277746
     181A      1.281476   182A      1.286786   183A      1.319716
     184A      1.322951   185A      1.326988   186A      1.343341
     187A      1.353153   188A      1.360609   189A      1.391485
     190A      1.400247   191A      1.412497   192A      1.430606
     193A      1.433430   194A      1.456924   195A      1.480602
     196A      1.506731   197A      1.509378   198A      1.537520
     199A      1.554417   200A      1.560582   201A      1.575212
     202A      1.596432   203A      1.612191   204A      1.615947
     205A      1.625397   206A      1.645078   207A      1.648782
     208A      1.662777   209A      1.667633   210A      1.680972
     211A      1.691525   212A      1.705003   213A      1.711222
     214A      1.742489   215A      1.747085   216A      1.754924
     217A      1.768360   218A      1.779131   219A      1.786894
     220A      1.809552   221A      1.821271   222A      1.829326
     223A      1.841493   224A      1.848422   225A      1.861888
     226A      1.874353   227A      1.879901   228A      1.884135
     229A      1.897816   230A      1.903316   231A      1.911746
     232A      1.920074   233A      1.922674   234A      1.924907
     235A      1.936381   236A      1.938593   237A      1.947471
     238A      1.959862   239A      1.962614   240A      1.979860
     241A      1.988898   242A      1.991688   243A      1.995918
     244A      2.005932   245A      2.012439   246A      2.031245
     247A      2.043461   248A      2.049976   249A      2.069127
     250A      2.070995   251A      2.073057   252A      2.084627
     253A      2.092732   254A      2.098886   255A      2.103885
     256A      2.112569   257A      2.121730   258A      2.132953
     259A      2.148174   260A      2.161090   261A      2.166906
     262A      2.169900   263A      2.181217   264A      2.188795
     265A      2.199731   266A      2.224492   267A      2.230532
     268A      2.243508   269A      2.256730   270A      2.263164
     271A      2.278683   272A      2.295026   273A      2.303642
     274A      2.317373   275A      2.334606   276A      2.340718
     277A      2.352418   278A      2.357596   279A      2.393006
     280A      2.403046   281A      2.407936   282A      2.416909
     283A      2.447752   284A      2.459345   285A      2.461606
     286A      2.492250   287A      2.528600   288A      2.537331
     289A      2.563358   290A      2.583823   291A      2.589826
     292A      2.593488   293A      2.605583   294A      2.628043
     295A      2.641374   296A      2.661166   297A      2.678682
     298A      2.698983   299A      2.703371   300A      2.763690
     301A      2.765014   302A      2.769506   303A      2.777504
     304A      2.782099   305A      2.795601   306A      2.800582
     307A      2.814040   308A      2.824588   309A      2.828992
     310A      2.839819   311A      2.863376   312A      2.869124
     313A      2.878712   314A      2.888652   315A      2.915615
     316A      2.945324   317A      2.977212   318A      3.009351
     319A      3.023425   320A      3.044327   321A      3.055616
     322A      3.076935   323A      3.112108   324A      3.118517
     325A      3.124234   326A      3.180916   327A      3.203507
     328A      3.237354   329A      3.327596   330A      3.359576
     331A      3.378099   332A      3.398710   333A      3.520938
     334A      3.735044   335A      3.827911   336A      3.906535
     337A      3.967429   338A      5.213719

    Final Occupation by Irrep:
              A
    DOCC [    63 ]

  @RHF Final Energy:  -725.41160234179279

   => Energetics <=

    Nuclear Repulsion Energy =           1185.6829109949621852
    One-Electron Energy =               -3339.7128873461510921
    Two-Electron Energy =                1428.6183740093961205
    Total Energy =                       -725.4116023417927863

Computation Completed

Properties will be evaluated at   0.000000,   0.000000,   0.000000 [a0]

Properties computed using the SCF density matrix

  Nuclear Dipole Moment: [e a0]
     X:    -1.8106      Y:     3.2230      Z:    -3.7988

  Electronic Dipole Moment: [e a0]
     X:     4.1775      Y:    -3.4471      Z:     4.7528

  Dipole Moment: [e a0]
     X:     2.3669      Y:    -0.2241      Z:     0.9541     Total:     2.5618

  Dipole Moment: [D]
     X:     6.0160      Y:    -0.5697      Z:     2.4250     Total:     6.5113

*** tstop() called on ds3 at Mon Apr 27 11:26:00 2020
Module time:
	user time   =     892.99 seconds =      14.88 minutes
	system time =     349.71 seconds =       5.83 minutes
	total time  =      12965 seconds =     216.08 minutes
Total time:
	user time   =     892.99 seconds =      14.88 minutes
	system time =     349.71 seconds =       5.83 minutes
	total time  =      12965 seconds =     216.08 minutes
                                     G D M A

                                 by Anthony Stone

                           version 2.2.06, 22 June 2011

               Distributed Multipoles from Gaussian wavefunctions

Starting at 11:26:0 on 27 Apr 2020

Using SCF density matrix from file ./SSI/SSI-003TRP-163PRO-1-dimer.test.32751.fchk

                         Distributed Multipole Analysis

Standard DMA

Positions and radii in angstrom
Multipole moments in atomic units, ea_0^k for rank k

C          x = -0.087364  y = -0.871579  z =  3.974207 angstrom
           Maximum rank =  0   Radius =  0.650 angstrom
                   Q00  =  -0.217390

C          x =  1.022636  y = -1.232579  z =  1.634207 angstrom
           Maximum rank =  0   Radius =  0.650 angstrom
                   Q00  =  -0.041809

C          x =  0.981636  y = -0.699579  z =  2.961207 angstrom
           Maximum rank =  0   Radius =  0.650 angstrom
                   Q00  =  -0.121192

C          x =  2.245636  y = -0.811579  z =  1.047207 angstrom
           Maximum rank =  0   Radius =  0.650 angstrom
                   Q00  =   0.198058

C          x =  2.137636  y =  0.003421  z =  3.130207 angstrom
           Maximum rank =  0   Radius =  0.650 angstrom
                   Q00  =   0.072133

C          x =  0.142636  y = -2.034579  z =  0.926207 angstrom
           Maximum rank =  0   Radius =  0.650 angstrom
                   Q00  =  -0.098663

C          x =  0.496636  y = -2.387579  z = -0.367793 angstrom
           Maximum rank =  0   Radius =  0.650 angstrom
                   Q00  =  -0.083075

C          x =  1.695636  y = -1.954579  z = -0.939793 angstrom
           Maximum rank =  0   Radius =  0.650 angstrom
                   Q00  =   0.001085

C          x =  2.590636  y = -1.162579  z = -0.246793 angstrom
           Maximum rank =  0   Radius =  0.650 angstrom
                   Q00  =  -0.118300

N          x =  2.896636  y = -0.059579  z =  1.987207 angstrom
           Maximum rank =  0   Radius =  0.650 angstrom
                   Q00  =  -0.493031

H          x = -0.775364  y = -2.346579  z =  1.381207 angstrom
           Maximum rank =  0   Radius =  0.325 angstrom
                   Q00  =   0.074608

H          x = -0.165364  y = -3.010579  z = -0.956793 angstrom
           Maximum rank =  0   Radius =  0.325 angstrom
                   Q00  =   0.060009

H          x =  1.929636  y = -2.248579  z = -1.955793 angstrom
           Maximum rank =  0   Radius =  0.325 angstrom
                   Q00  =   0.064584

H          x =  0.384636  y = -0.856579  z =  4.950207 angstrom
           Maximum rank =  0   Radius =  0.325 angstrom
                   Q00  =   0.105396

H          x = -0.526364  y = -1.859579  z =  3.846207 angstrom
           Maximum rank =  0   Radius =  0.325 angstrom
                   Q00  =   0.102799

H          x =  2.424636  y =  0.521421  z =  4.040207 angstrom
           Maximum rank =  0   Radius =  0.325 angstrom
                   Q00  =   0.101570

H          x =  3.809636  y =  0.369421  z =  1.882207 angstrom
           Maximum rank =  0   Radius =  0.325 angstrom
                   Q00  =   0.219284

H          x =  3.520636  y = -0.834579  z = -0.690793 angstrom
           Maximum rank =  0   Radius =  0.325 angstrom
                   Q00  =   0.076647

H          x = -0.894404  y = -0.124129  z =  3.972767 angstrom
           Maximum rank =  0   Radius =  0.325 angstrom
                   Q00  =   0.099541

C          x = -0.450364  y =  0.976421  z = -1.431793 angstrom
           Maximum rank =  0   Radius =  0.650 angstrom
                   Q00  =   0.032033

C          x =  0.587636  y =  1.239421  z = -2.503793 angstrom
           Maximum rank =  0   Radius =  0.650 angstrom
                   Q00  =  -0.262947

C          x = -1.402364  y =  2.416421  z = -3.149793 angstrom
           Maximum rank =  0   Radius =  0.650 angstrom
                   Q00  =  -0.087380

C          x = -3.100364  y =  0.496421  z = -0.333793 angstrom
           Maximum rank =  0   Radius =  0.650 angstrom
                   Q00  =  -0.273225

C          x = -2.939364  y =  1.397421  z = -1.544793 angstrom
           Maximum rank =  0   Radius =  0.650 angstrom
                   Q00  =   0.773766

O          x = -3.899364  y =  1.913421  z = -2.125793 angstrom
           Maximum rank =  0   Radius =  0.650 angstrom
                   Q00  =  -0.784764

N          x = -1.665364  y =  1.590421  z = -1.971793 angstrom
           Maximum rank =  0   Radius =  0.650 angstrom
                   Q00  =  -0.499176

H          x = -0.581364  y = -0.098579  z = -1.312793 angstrom
           Maximum rank =  0   Radius =  0.325 angstrom
                   Q00  =   0.095834

H          x = -0.172364  y =  1.411421  z = -0.482793 angstrom
           Maximum rank =  0   Radius =  0.325 angstrom
                   Q00  =   0.062944

H          x =  0.655636  y =  0.357421  z = -3.143793 angstrom
           Maximum rank =  0   Radius =  0.325 angstrom
                   Q00  =   0.096073

H          x =  1.564636  y =  1.442421  z = -2.066793 angstrom
           Maximum rank =  0   Radius =  0.325 angstrom
                   Q00  =   0.088320

H          x = -1.747364  y =  3.439421  z = -2.985793 angstrom
           Maximum rank =  0   Radius =  0.325 angstrom
                   Q00  =   0.096757

H          x = -2.454364  y =  0.854421  z =  0.460207 angstrom
           Maximum rank =  0   Radius =  0.325 angstrom
                   Q00  =   0.111316

H          x = -2.760364  y = -0.502579  z = -0.603793 angstrom
           Maximum rank =  0   Radius =  0.325 angstrom
                   Q00  =   0.113758

H          x =  0.229106  y =  2.086731  z = -3.106713 angstrom
           Maximum rank =  0   Radius =  0.325 angstrom
                   Q00  =   0.101385

H          x = -0.310114  y =  2.402581  z = -3.279403 angstrom
           Maximum rank =  0   Radius =  0.325 angstrom
                   Q00  =   0.106100

H          x = -1.903814  y =  1.979721  z = -4.026063 angstrom
           Maximum rank =  0   Radius =  0.325 angstrom
                   Q00  =   0.100722

H          x = -4.134894  y =  0.449671  z =  0.037107 angstrom
           Maximum rank =  0   Radius =  0.325 angstrom
                   Q00  =   0.126227

Total multipoles referred to origin at
           x =   0.000000,  y =    0.000000,  z =    0.000000 angstrom
                   Q00  =  -0.000000

Finished at 11:26:0 on 27 Apr 2020

  DMA results are available in the Python driver through the
	  variable('DMA DISTRIBUTED MULTIPOLES')
  and
	  variable('DMA TOTAL MULTIPOLES')
  commands.

    Psi4 stopped on: Monday, 27 April 2020 11:26AM
    Psi4 wall time for execution: 3:36:04.92

*** Psi4 exiting successfully. Buy a developer a beer!
