                               Psi4 1.3.2 release

  ==> Input File <==

--------------------------------------------------------------------------
import numpy as np
set {scf_type pk
basis cc-pvdz
d_convergence 10
gdma_switch   0
gdma_limit    0
gdma_origin   [ 0.0,  0.0,  0.0 ]
}
molecule test {
    units Angstrom
    0 1
    --
    0 1
    C                0.646314975469910    -0.827801764555691     0.664149757399521
    C                1.404314975469910    -2.107801764555691     0.296149757399520
    C               -0.724685024530090    -1.160801764555692     1.211149757399521
    C                1.452314975469910     0.008198235444309     1.643149757399521
    H                0.507314975469910    -0.237801764555691    -0.238850242600479
    H                1.697314975469910    -2.640801764555691     1.200149757399521
    H               -0.672685024530090    -1.917801764555692     1.995149757399521
    H               -1.160685024530090    -0.250801764555691     1.617149757399521
    H               -1.390685024530090    -1.506801764555692     0.419149757399521
    H                2.418314975469909     0.266198235444309     1.208149757399521
    H                0.915314975469910     0.943198235444309     1.809149757399520
    H                2.287394975469910    -1.837547764555692    -0.301450242600479
    H                0.758974975469910    -2.780663764555691    -0.287630242600480
    H                1.618174975469910    -0.466629764555691     2.621429757399520
    C               -1.209685024530090     2.038198235444308    -1.111850242600479
    C               -1.474685024530090     1.922198235444309    -2.608850242600479
    H               -0.260685024530090     2.530198235444308    -0.906850242600479
    H               -2.006685024530090     2.627198235444308    -0.655850242600479
    H               -1.220685024530090     1.049198235444309    -0.660850242600479
    H               -1.612685024530090     2.933198235444309    -2.994850242600479
    H               -0.610615024530090     1.466183235444309    -3.114260242600480
    H               -2.385325024530090     1.345296235444309    -2.827770242600479

}
e, wfn = energy('scf', return_wfn=True)
gdma(wfn)
dmavals = variable('DMA DISTRIBUTED MULTIPOLES')
charges = np.array(dmavals)
print(charges)
np.save('SSI-110ILE-162VAL-1-dimer.npy', np.array(charges))--------------------------------------------------------------------------

*** tstart() called on ds3
*** at Sun Apr 26 23:24:04 2020

   => Loading Basis Set <=

    Name: CC-PVDZ
    Role: ORBITAL
    Keyword: BASIS
    atoms 1-4, 15-16  entry C          line   138 file /theoryfs2/ds/metcalf/miniconda2/envs/tf2gpu/share/psi4/basis/cc-pvdz.gbs
    atoms 5-14, 17-22 entry H          line    22 file /theoryfs2/ds/metcalf/miniconda2/envs/tf2gpu/share/psi4/basis/cc-pvdz.gbs

         ---------------------------------------------------------
                                   SCF
               by Justin Turney, Rob Parrish, Andy Simmonett
                          and Daniel G. A. Smith
                              RHF Reference
                        1 Threads,    500 MiB Core
         ---------------------------------------------------------

  ==> Geometry <==

    Molecular point group: c1
    Full point group: C1

    Geometry (in Angstrom), charge = 0, multiplicity = 1:

       Center              X                  Y                   Z               Mass
    ------------   -----------------  -----------------  -----------------  -----------------
         C            0.646314975470    -0.827801764556     0.664149757400    12.000000000000
         C            1.404314975470    -2.107801764556     0.296149757400    12.000000000000
         C           -0.724685024530    -1.160801764556     1.211149757400    12.000000000000
         C            1.452314975470     0.008198235444     1.643149757400    12.000000000000
         H            0.507314975470    -0.237801764556    -0.238850242600     1.007825032230
         H            1.697314975470    -2.640801764556     1.200149757400     1.007825032230
         H           -0.672685024530    -1.917801764556     1.995149757400     1.007825032230
         H           -1.160685024530    -0.250801764556     1.617149757400     1.007825032230
         H           -1.390685024530    -1.506801764556     0.419149757400     1.007825032230
         H            2.418314975470     0.266198235444     1.208149757400     1.007825032230
         H            0.915314975470     0.943198235444     1.809149757400     1.007825032230
         H            2.287394975470    -1.837547764556    -0.301450242600     1.007825032230
         H            0.758974975470    -2.780663764556    -0.287630242600     1.007825032230
         H            1.618174975470    -0.466629764556     2.621429757400     1.007825032230
         C           -1.209685024530     2.038198235444    -1.111850242600    12.000000000000
         C           -1.474685024530     1.922198235444    -2.608850242600    12.000000000000
         H           -0.260685024530     2.530198235444    -0.906850242600     1.007825032230
         H           -2.006685024530     2.627198235444    -0.655850242600     1.007825032230
         H           -1.220685024530     1.049198235444    -0.660850242600     1.007825032230
         H           -1.612685024530     2.933198235444    -2.994850242600     1.007825032230
         H           -0.610615024530     1.466183235444    -3.114260242600     1.007825032230
         H           -2.385325024530     1.345296235444    -2.827770242600     1.007825032230

  Running in c1 symmetry.

  Rotational constants: A =      0.14029  B =      0.03373  C =      0.03283 [cm^-1]
  Rotational constants: A =   4205.81387  B =   1011.31551  C =    984.15884 [MHz]
  Nuclear repulsion =  246.131777230649817

  Charge       = 0
  Multiplicity = 1
  Electrons    = 52
  Nalpha       = 26
  Nbeta        = 26

  ==> Algorithm <==

  SCF Algorithm Type is PK.
  DIIS enabled.
  MOM disabled.
  Fractional occupation disabled.
  Guess Type is SAD.
  Energy threshold   = 1.00e-06
  Density threshold  = 1.00e-10
  Integral threshold = 0.00e+00

  ==> Primary Basis <==

  Basis Set: CC-PVDZ
    Blend: CC-PVDZ
    Number of shells: 84
    Number of basis function: 164
    Number of Cartesian functions: 170
    Spherical Harmonics?: true
    Max angular momentum: 2

  ==> Pre-Iterations <==

   -------------------------------------------------------
    Irrep   Nso     Nmo     Nalpha   Nbeta   Ndocc  Nsocc
   -------------------------------------------------------
     A        164     164       0       0       0       0
   -------------------------------------------------------
    Total     164     164      26      26      26       0
   -------------------------------------------------------

  ==> Integral Setup <==

  Using integral reordering PK algorithm.
  Sizing the integral batches needed.
  Building batch lookup table.
   Calculation information:
      Number of atoms:                  22
      Number of AO shells:              84
      Number of primitives:            212
      Number of atomic orbitals:       170
      Number of basis functions:       164

      Integral cutoff                 1.00e-12
      Number of threads:                 1

	Batch   1 pq = [       0,    9405] index = [             0,44231715] size =     44231715
	Batch   2 pq = [    9405,   13530] index = [      44231715,91537215] size =     47305500
  Task number: 9
  Buffer size: 11059200
  Buffer per thread: 2
  We computed 5723278 shell quartets total.
  Whereas there are 6374235 unique shell quartets.

  ==> DiskJK: Disk-Based J/K Matrices <==

    J tasked:                  Yes
    K tasked:                  Yes
    wK tasked:                  No
    Memory [MiB]:              375
    Schwarz Cutoff:          1E-12

    OpenMP threads:              1

  Minimum eigenvalue in the overlap matrix is 4.3878182944E-03.
  Using Symmetric Orthogonalization.

  SCF Guess: Superposition of Atomic Densities via on-the-fly atomic UHF.

  ==> Iterations <==

                        Total Energy        Delta E     RMS |[F,P]|

   @RHF iter SAD:  -235.46935154895863   -2.35469e+02   0.00000e+00
   @RHF iter   1:  -236.30938863457195   -8.40037e-01   3.55345e-03 DIIS
   @RHF iter   2:  -236.50136471796327   -1.91976e-01   1.55278e-03 DIIS
   @RHF iter   3:  -236.53608465183416   -3.47199e-02   3.15639e-04 DIIS
   @RHF iter   4:  -236.53875197999858   -2.66733e-03   7.02261e-05 DIIS
   @RHF iter   5:  -236.53883951036082   -8.75304e-05   1.58331e-05 DIIS
   @RHF iter   6:  -236.53884513499182   -5.62463e-06   2.62207e-06 DIIS
   @RHF iter   7:  -236.53884530587709   -1.70885e-07   6.22575e-07 DIIS
   @RHF iter   8:  -236.53884531609154   -1.02144e-08   1.47045e-07 DIIS
   @RHF iter   9:  -236.53884531668052   -5.88983e-10   4.00236e-08 DIIS
   @RHF iter  10:  -236.53884531673083   -5.03064e-11   8.96871e-09 DIIS
   @RHF iter  11:  -236.53884531673498   -4.14957e-12   1.92309e-09 DIIS
   @RHF iter  12:  -236.53884531673492    5.68434e-14   4.51372e-10 DIIS
   @RHF iter  13:  -236.53884531673489    2.84217e-14   1.23794e-10 DIIS
   @RHF iter  14:  -236.53884531673498   -8.52651e-14   2.30032e-11 DIIS
  Energy and wave function converged.

  ==> Post-Iterations <==

    Orbital Energies [Eh]
    ---------------------

    Doubly Occupied:

       1A    -11.220579     2A    -11.219991     3A    -11.216671
       4A    -11.214395     5A    -11.213439     6A    -11.211758
       7A     -1.084643     8A     -1.020211     9A     -0.928119
      10A     -0.924884    11A     -0.837940    12A     -0.763743
      13A     -0.632246    14A     -0.599608    15A     -0.598398
      16A     -0.590573    17A     -0.586752    18A     -0.538026
      19A     -0.534511    20A     -0.505068    21A     -0.504490
      22A     -0.486288    23A     -0.485038    24A     -0.460150
      25A     -0.457902    26A     -0.451443

    Virtual:

      27A      0.166746    28A      0.192370    29A      0.215456
      30A      0.218890    31A      0.232825    32A      0.248731
      33A      0.252215    34A      0.260893    35A      0.262484
      36A      0.274156    37A      0.280743    38A      0.295947
      39A      0.302644    40A      0.304424    41A      0.330802
      42A      0.340964    43A      0.368356    44A      0.397304
      45A      0.409907    46A      0.415935    47A      0.576798
      48A      0.585645    49A      0.592755    50A      0.597799
      51A      0.607126    52A      0.615878    53A      0.637905
      54A      0.648526    55A      0.689389    56A      0.747895
      57A      0.773711    58A      0.781117    59A      0.795773
      60A      0.824192    61A      0.845256    62A      0.868337
      63A      0.879992    64A      0.885091    65A      0.888614
      66A      0.895750    67A      0.898478    68A      0.901430
      69A      0.902951    70A      0.908563    71A      0.917120
      72A      0.919549    73A      0.931612    74A      0.939461
      75A      0.952416    76A      0.964146    77A      0.980887
      78A      0.991883    79A      1.012619    80A      1.073091
      81A      1.120816    82A      1.129107    83A      1.132758
      84A      1.147035    85A      1.182914    86A      1.280680
      87A      1.385976    88A      1.397196    89A      1.408288
      90A      1.470997    91A      1.492182    92A      1.536602
      93A      1.559127    94A      1.591025    95A      1.648637
      96A      1.665928    97A      1.673187    98A      1.683682
      99A      1.693076   100A      1.694282   101A      1.720072
     102A      1.734134   103A      1.737446   104A      1.835484
     105A      1.846789   106A      1.861908   107A      1.872670
     108A      1.882413   109A      1.902314   110A      1.919040
     111A      1.929892   112A      1.934088   113A      1.946455
     114A      1.954339   115A      1.958707   116A      1.961444
     117A      1.966967   118A      1.980919   119A      1.988299
     120A      2.006799   121A      2.017424   122A      2.039023
     123A      2.062984   124A      2.076911   125A      2.090940
     126A      2.128370   127A      2.143509   128A      2.150398
     129A      2.161765   130A      2.230138   131A      2.248006
     132A      2.298901   133A      2.315768   134A      2.321132
     135A      2.332235   136A      2.341327   137A      2.360459
     138A      2.376817   139A      2.452550   140A      2.469628
     141A      2.474442   142A      2.552609   143A      2.574895
     144A      2.581217   145A      2.601092   146A      2.624930
     147A      2.716374   148A      2.733881   149A      2.760876
     150A      2.764288   151A      2.773221   152A      2.786266
     153A      2.803746   154A      2.806772   155A      2.835858
     156A      2.848192   157A      2.856408   158A      2.864750
     159A      2.871988   160A      2.959502   161A      2.977886
     162A      3.028085   163A      3.029096   164A      3.118686

    Final Occupation by Irrep:
              A
    DOCC [    26 ]

  @RHF Final Energy:  -236.53884531673498

   => Energetics <=

    Nuclear Repulsion Energy =            246.1317772306498171
    One-Electron Energy =                -804.7675145488176440
    Two-Electron Energy =                 322.0968920014328205
    Total Energy =                       -236.5388453167349780

Computation Completed

Properties will be evaluated at   0.000000,   0.000000,   0.000000 [a0]

Properties computed using the SCF density matrix

  Nuclear Dipole Moment: [e a0]
     X:    -1.0480      Y:     1.4267      Z:    -1.0481

  Electronic Dipole Moment: [e a0]
     X:     1.0243      Y:    -1.3755      Z:     1.0200

  Dipole Moment: [e a0]
     X:    -0.0238      Y:     0.0512      Z:    -0.0281     Total:     0.0630

  Dipole Moment: [D]
     X:    -0.0604      Y:     0.1300      Z:    -0.0714     Total:     0.1602

*** tstop() called on ds3 at Sun Apr 26 23:24:43 2020
Module time:
	user time   =      28.63 seconds =       0.48 minutes
	system time =      11.71 seconds =       0.20 minutes
	total time  =         39 seconds =       0.65 minutes
Total time:
	user time   =      28.63 seconds =       0.48 minutes
	system time =      11.71 seconds =       0.20 minutes
	total time  =         39 seconds =       0.65 minutes
                                     G D M A

                                 by Anthony Stone

                           version 2.2.06, 22 June 2011

               Distributed Multipoles from Gaussian wavefunctions

Starting at 23:24:43 on 26 Apr 2020

Using SCF density matrix from file ./SSI/SSI-110ILE-162VAL-1-dimer.test.30530.fchk

                         Distributed Multipole Analysis

Standard DMA

Positions and radii in angstrom
Multipole moments in atomic units, ea_0^k for rank k

C          x =  0.646315  y = -0.827802  z =  0.664150 angstrom
           Maximum rank =  0   Radius =  0.650 angstrom
                   Q00  =   0.026836

C          x =  1.404315  y = -2.107802  z =  0.296150 angstrom
           Maximum rank =  0   Radius =  0.650 angstrom
                   Q00  =  -0.245801

C          x = -0.724685  y = -1.160802  z =  1.211150 angstrom
           Maximum rank =  0   Radius =  0.650 angstrom
                   Q00  =  -0.246498

C          x =  1.452315  y =  0.008198  z =  1.643150 angstrom
           Maximum rank =  0   Radius =  0.650 angstrom
                   Q00  =  -0.248495

H          x =  0.507315  y = -0.237802  z = -0.238850 angstrom
           Maximum rank =  0   Radius =  0.325 angstrom
                   Q00  =   0.013035

H          x =  1.697315  y = -2.640802  z =  1.200150 angstrom
           Maximum rank =  0   Radius =  0.325 angstrom
                   Q00  =   0.076812

H          x = -0.672685  y = -1.917802  z =  1.995150 angstrom
           Maximum rank =  0   Radius =  0.325 angstrom
                   Q00  =   0.078213

H          x = -1.160685  y = -0.250802  z =  1.617150 angstrom
           Maximum rank =  0   Radius =  0.325 angstrom
                   Q00  =   0.075461

H          x = -1.390685  y = -1.506802  z =  0.419150 angstrom
           Maximum rank =  0   Radius =  0.325 angstrom
                   Q00  =   0.079567

H          x =  2.418315  y =  0.266198  z =  1.208150 angstrom
           Maximum rank =  0   Radius =  0.325 angstrom
                   Q00  =   0.079599

H          x =  0.915315  y =  0.943198  z =  1.809150 angstrom
           Maximum rank =  0   Radius =  0.325 angstrom
                   Q00  =   0.078619

H          x =  2.287395  y = -1.837548  z = -0.301450 angstrom
           Maximum rank =  0   Radius =  0.325 angstrom
                   Q00  =   0.079309

H          x =  0.758975  y = -2.780664  z = -0.287630 angstrom
           Maximum rank =  0   Radius =  0.325 angstrom
                   Q00  =   0.076748

H          x =  1.618175  y = -0.466630  z =  2.621430 angstrom
           Maximum rank =  0   Radius =  0.325 angstrom
                   Q00  =   0.077955

C          x = -1.209685  y =  2.038198  z = -1.111850 angstrom
           Maximum rank =  0   Radius =  0.650 angstrom
                   Q00  =  -0.233136

C          x = -1.474685  y =  1.922198  z = -2.608850 angstrom
           Maximum rank =  0   Radius =  0.650 angstrom
                   Q00  =  -0.242686

H          x = -0.260685  y =  2.530198  z = -0.906850 angstrom
           Maximum rank =  0   Radius =  0.325 angstrom
                   Q00  =   0.081639

H          x = -2.006685  y =  2.627198  z = -0.655850 angstrom
           Maximum rank =  0   Radius =  0.325 angstrom
                   Q00  =   0.076466

H          x = -1.220685  y =  1.049198  z = -0.660850 angstrom
           Maximum rank =  0   Radius =  0.325 angstrom
                   Q00  =   0.081466

H          x = -1.612685  y =  2.933198  z = -2.994850 angstrom
           Maximum rank =  0   Radius =  0.325 angstrom
                   Q00  =   0.076309

H          x = -0.610615  y =  1.466183  z = -3.114260 angstrom
           Maximum rank =  0   Radius =  0.325 angstrom
                   Q00  =   0.077304

H          x = -2.385325  y =  1.345296  z = -2.827770 angstrom
           Maximum rank =  0   Radius =  0.325 angstrom
                   Q00  =   0.081277

Total multipoles referred to origin at
           x =   0.000000,  y =    0.000000,  z =    0.000000 angstrom
                   Q00  =  -0.000000

Finished at 23:24:43 on 26 Apr 2020

  DMA results are available in the Python driver through the
	  variable('DMA DISTRIBUTED MULTIPOLES')
  and
	  variable('DMA TOTAL MULTIPOLES')
  commands.

    Psi4 stopped on: Sunday, 26 April 2020 11:24PM
    Psi4 wall time for execution: 0:00:39.34

*** Psi4 exiting successfully. Buy a developer a beer!
