                               Psi4 1.3.2 release

  ==> Input File <==

--------------------------------------------------------------------------
import numpy as np
set {scf_type pk
basis cc-pvdz
d_convergence 10
gdma_switch   0
gdma_limit    0
gdma_origin   [ 0.0,  0.0,  0.0 ]
}
molecule test {
    units Angstrom
    0 1
    --
    0 1
    C                0.701800856211632    -0.525796166841927     3.026042074075584
    C                0.217800856211632    -1.315796166841927     4.242042074075584
    H                1.175800856211632     0.402203833158073     3.345042074075584
    H                1.430800856211632    -1.130796166841927     2.488042074075584
    H               -0.128199143788368    -0.304796166841927     2.355042074075584
    H               -0.364199143788368    -2.170796166841927     3.899042074075584
    H               -0.395375143788368    -0.685526166841927     4.902932074075584
    H                1.084958856211632    -1.678846166841927     4.813212074075584
    C                1.814800856211632     0.415203833158073    -0.388957925924416
    C                2.722800856211633    -0.109796166841927    -1.508957925924416
    C                0.344800856211632     0.356203833158073    -0.720957925924416
    C               -0.248199143788368    -0.849796166841927    -1.105957925924416
    C               -0.439199143788368     1.510203833158073    -0.671957925924416
    C               -1.609199143788368    -0.898796166841927    -1.433957925924416
    C               -1.803199143788368     1.462203833158073    -0.983957925924416
    C               -2.387199143788368     0.258203833158073    -1.375957925924416
    H                1.992800856211632    -0.182796166841927     0.502042074075584
    H                2.095800856211632     1.445203833158073    -0.158957925924416
    H                2.459800856211632    -1.150796166841927    -1.695957925924416
    H                0.332800856211632    -1.759796166841927    -1.137957925924416
    H                0.005800856211632     2.452203833158073    -0.382957925924416
    H               -2.054199143788368    -1.842796166841927    -1.712957925924417
    H               -2.400199143788368     2.363203833158073    -0.936957925924416
    H               -3.434199143788367     0.216203833158073    -1.636957925924416
    H                3.780944856211633    -0.028226166841927    -1.219687925924416
    H                2.572936856211633     0.459833833158073    -2.437967925924416

}
e, wfn = energy('scf', return_wfn=True)
gdma(wfn)
dmavals = variable('DMA DISTRIBUTED MULTIPOLES')
charges = np.array(dmavals)
print(charges)
np.save('SSI-051THR-152PHE-1-dimer.npy', np.array(charges))--------------------------------------------------------------------------

*** tstart() called on ds3
*** at Tue Apr 28 14:56:20 2020

   => Loading Basis Set <=

    Name: CC-PVDZ
    Role: ORBITAL
    Keyword: BASIS
    atoms 1-2, 9-16  entry C          line   138 file /theoryfs2/ds/metcalf/miniconda2/envs/tf2gpu/share/psi4/basis/cc-pvdz.gbs
    atoms 3-8, 17-26 entry H          line    22 file /theoryfs2/ds/metcalf/miniconda2/envs/tf2gpu/share/psi4/basis/cc-pvdz.gbs

         ---------------------------------------------------------
                                   SCF
               by Justin Turney, Rob Parrish, Andy Simmonett
                          and Daniel G. A. Smith
                              RHF Reference
                        1 Threads,    500 MiB Core
         ---------------------------------------------------------

  ==> Geometry <==

    Molecular point group: c1
    Full point group: C1

    Geometry (in Angstrom), charge = 0, multiplicity = 1:

       Center              X                  Y                   Z               Mass
    ------------   -----------------  -----------------  -----------------  -----------------
         C            0.701800856212    -0.525796166842     3.026042074076    12.000000000000
         C            0.217800856212    -1.315796166842     4.242042074076    12.000000000000
         H            1.175800856212     0.402203833158     3.345042074076     1.007825032230
         H            1.430800856212    -1.130796166842     2.488042074076     1.007825032230
         H           -0.128199143788    -0.304796166842     2.355042074076     1.007825032230
         H           -0.364199143788    -2.170796166842     3.899042074076     1.007825032230
         H           -0.395375143788    -0.685526166842     4.902932074076     1.007825032230
         H            1.084958856212    -1.678846166842     4.813212074076     1.007825032230
         C            1.814800856212     0.415203833158    -0.388957925924    12.000000000000
         C            2.722800856212    -0.109796166842    -1.508957925924    12.000000000000
         C            0.344800856212     0.356203833158    -0.720957925924    12.000000000000
         C           -0.248199143788    -0.849796166842    -1.105957925924    12.000000000000
         C           -0.439199143788     1.510203833158    -0.671957925924    12.000000000000
         C           -1.609199143788    -0.898796166842    -1.433957925924    12.000000000000
         C           -1.803199143788     1.462203833158    -0.983957925924    12.000000000000
         C           -2.387199143788     0.258203833158    -1.375957925924    12.000000000000
         H            1.992800856212    -0.182796166842     0.502042074076     1.007825032230
         H            2.095800856212     1.445203833158    -0.158957925924     1.007825032230
         H            2.459800856212    -1.150796166842    -1.695957925924     1.007825032230
         H            0.332800856212    -1.759796166842    -1.137957925924     1.007825032230
         H            0.005800856212     2.452203833158    -0.382957925924     1.007825032230
         H           -2.054199143788    -1.842796166842    -1.712957925924     1.007825032230
         H           -2.400199143788     2.363203833158    -0.936957925924     1.007825032230
         H           -3.434199143788     0.216203833158    -1.636957925924     1.007825032230
         H            3.780944856212    -0.028226166842    -1.219687925924     1.007825032230
         H            2.572936856212     0.459833833158    -2.437967925924     1.007825032230

  Running in c1 symmetry.

  Rotational constants: A =      0.04056  B =      0.02401  C =      0.01839 [cm^-1]
  Rotational constants: A =   1215.81009  B =    719.89366  C =    551.42017 [MHz]
  Nuclear repulsion =  490.594252154742378

  Charge       = 0
  Multiplicity = 1
  Electrons    = 76
  Nalpha       = 38
  Nbeta        = 38

  ==> Algorithm <==

  SCF Algorithm Type is PK.
  DIIS enabled.
  MOM disabled.
  Fractional occupation disabled.
  Guess Type is SAD.
  Energy threshold   = 1.00e-06
  Density threshold  = 1.00e-10
  Integral threshold = 0.00e+00

  ==> Primary Basis <==

  Basis Set: CC-PVDZ
    Blend: CC-PVDZ
    Number of shells: 108
    Number of basis function: 220
    Number of Cartesian functions: 230
    Spherical Harmonics?: true
    Max angular momentum: 2

  ==> Pre-Iterations <==

   -------------------------------------------------------
    Irrep   Nso     Nmo     Nalpha   Nbeta   Ndocc  Nsocc
   -------------------------------------------------------
     A        220     220       0       0       0       0
   -------------------------------------------------------
    Total     220     220      38      38      38       0
   -------------------------------------------------------

  ==> Integral Setup <==

  Using integral reordering PK algorithm.
  Sizing the integral batches needed.
  Building batch lookup table.
   Calculation information:
      Number of atoms:                  26
      Number of AO shells:             108
      Number of primitives:            300
      Number of atomic orbitals:       230
      Number of basis functions:       220

      Integral cutoff                 1.00e-12
      Number of threads:                 1

	Batch   1 pq = [       0,    9405] index = [             0,44231715] size =     44231715
	Batch   2 pq = [    9405,   13301] index = [      44231715,88464951] size =     44233236
	Batch   3 pq = [   13301,   16290] index = [      88464951,132690195] size =     44225244
	Batch   4 pq = [   16290,   18810] index = [     132690195,176917455] size =     44227260
	Batch   5 pq = [   18810,   21030] index = [     176917455,221140965] size =     44223510
	Batch   6 pq = [   21030,   23037] index = [     221140965,265363203] size =     44222238
	Batch   7 pq = [   23037,   24310] index = [     265363203,295500205] size =     30137002
  Task number: 27
  Buffer size: 11059200
  Buffer per thread: 2
  We computed 15499580 shell quartets total.
  Whereas there are 17325441 unique shell quartets.

  ==> DiskJK: Disk-Based J/K Matrices <==

    J tasked:                  Yes
    K tasked:                  Yes
    wK tasked:                  No
    Memory [MiB]:              375
    Schwarz Cutoff:          1E-12

    OpenMP threads:              1

  Minimum eigenvalue in the overlap matrix is 3.1863208152E-04.
  Using Symmetric Orthogonalization.

  SCF Guess: Superposition of Atomic Densities via on-the-fly atomic UHF.

  ==> Iterations <==

                        Total Energy        Delta E     RMS |[F,P]|

   @RHF iter SAD:  -386.82639131877005   -3.86826e+02   0.00000e+00
   @RHF iter   1:  -387.77864358034822   -9.52252e-01   2.71082e-03 DIIS
   @RHF iter   2:  -387.99222161044008   -2.13578e-01   1.12279e-03 DIIS
   @RHF iter   3:  -388.02568480619516   -3.34632e-02   2.46218e-04 DIIS
   @RHF iter   4:  -388.02850638668491   -2.82158e-03   5.44052e-05 DIIS
   @RHF iter   5:  -388.02859761487599   -9.12282e-05   2.10267e-05 DIIS
   @RHF iter   6:  -388.02861136500479   -1.37501e-05   3.95719e-06 DIIS
   @RHF iter   7:  -388.02861202804525   -6.63040e-07   1.18306e-06 DIIS
   @RHF iter   8:  -388.02861208653502   -5.84898e-08   3.35793e-07 DIIS
   @RHF iter   9:  -388.02861209617367   -9.63865e-09   1.48364e-07 DIIS
   @RHF iter  10:  -388.02861209878142   -2.60775e-09   7.80748e-08 DIIS
   @RHF iter  11:  -388.02861209960980   -8.28379e-10   2.92278e-08 DIIS
   @RHF iter  12:  -388.02861209971508   -1.05274e-10   1.31397e-08 DIIS
   @RHF iter  13:  -388.02861209972679   -1.17097e-11   4.87597e-09 DIIS
   @RHF iter  14:  -388.02861209972980   -3.01270e-12   1.28716e-09 DIIS
   @RHF iter  15:  -388.02861209972912    6.82121e-13   4.26156e-10 DIIS
   @RHF iter  16:  -388.02861209972974   -6.25278e-13   1.73792e-10 DIIS
   @RHF iter  17:  -388.02861209973008   -3.41061e-13   7.95979e-11 DIIS
  Energy and wave function converged.

  ==> Post-Iterations <==

    Orbital Energies [Eh]
    ---------------------

    Doubly Occupied:

       1A    -11.238859     2A    -11.236974     3A    -11.236608
       4A    -11.232133     5A    -11.231677     6A    -11.231355
       7A    -11.227838     8A    -11.223256     9A    -11.216112
      10A    -11.212593    11A     -1.150813    12A     -1.061325
      13A     -1.015016    14A     -1.008973    15A     -0.979992
      16A     -0.862346    17A     -0.833207    18A     -0.823186
      19A     -0.783850    20A     -0.690642    21A     -0.637091
      22A     -0.632793    23A     -0.597958    24A     -0.594132
      25A     -0.592281    26A     -0.588774    27A     -0.575087
      28A     -0.537838    29A     -0.516937    30A     -0.502928
      31A     -0.494237    32A     -0.484601    33A     -0.483858
      34A     -0.476522    35A     -0.474948    36A     -0.465541
      37A     -0.330200    38A     -0.321121

    Virtual:

      39A      0.133597    40A      0.141043    41A      0.178045
      42A      0.194049    43A      0.202102    44A      0.208381
      45A      0.230301    46A      0.241109    47A      0.241657
      48A      0.256800    49A      0.258875    50A      0.262800
      51A      0.269439    52A      0.286425    53A      0.291442
      54A      0.302100    55A      0.323936    56A      0.336125
      57A      0.348562    58A      0.393681    59A      0.408365
      60A      0.415046    61A      0.449787    62A      0.467081
      63A      0.493344    64A      0.498306    65A      0.573749
      66A      0.582653    67A      0.594900    68A      0.598538
      69A      0.606531    70A      0.610901    71A      0.632446
      72A      0.673335    73A      0.678677    74A      0.687298
      75A      0.701909    76A      0.719163    77A      0.727176
      78A      0.733155    79A      0.744624    80A      0.745106
      81A      0.746805    82A      0.768687    83A      0.783756
      84A      0.804364    85A      0.819273    86A      0.840700
      87A      0.850221    88A      0.868753    89A      0.878570
      90A      0.881904    91A      0.890097    92A      0.891867
      93A      0.896619    94A      0.897944    95A      0.903185
      96A      0.910347    97A      0.915216    98A      0.924888
      99A      0.936427   100A      0.943664   101A      0.949640
     102A      0.967511   103A      0.981120   104A      0.997834
     105A      1.007171   106A      1.011551   107A      1.053681
     108A      1.078155   109A      1.115604   110A      1.130084
     111A      1.139484   112A      1.144585   113A      1.152039
     114A      1.164692   115A      1.188899   116A      1.219526
     117A      1.230779   118A      1.248612   119A      1.253206
     120A      1.262227   121A      1.298942   122A      1.299998
     123A      1.309138   124A      1.330092   125A      1.386783
     126A      1.423548   127A      1.465122   128A      1.482287
     129A      1.489694   130A      1.517623   131A      1.523822
     132A      1.576728   133A      1.590984   134A      1.608692
     135A      1.676363   136A      1.683998   137A      1.690747
     138A      1.696927   139A      1.725269   140A      1.745392
     141A      1.756246   142A      1.767932   143A      1.821522
     144A      1.834729   145A      1.859840   146A      1.864644
     147A      1.877155   148A      1.886989   149A      1.890079
     150A      1.895032   151A      1.900757   152A      1.918081
     153A      1.929364   154A      1.932436   155A      1.937059
     156A      1.944679   157A      1.945980   158A      1.948473
     159A      1.952682   160A      1.963455   161A      1.965817
     162A      1.979385   163A      1.990046   164A      2.009070
     165A      2.023297   166A      2.030665   167A      2.050604
     168A      2.056505   169A      2.073020   170A      2.090498
     171A      2.105247   172A      2.116916   173A      2.121157
     174A      2.152804   175A      2.157942   176A      2.164531
     177A      2.175824   178A      2.203761   179A      2.234842
     180A      2.259195   181A      2.271001   182A      2.291589
     183A      2.305842   184A      2.314564   185A      2.322346
     186A      2.338876   187A      2.362329   188A      2.443822
     189A      2.457492   190A      2.464848   191A      2.466663
     192A      2.473591   193A      2.541423   194A      2.551302
     195A      2.570880   196A      2.580464   197A      2.604143
     198A      2.641445   199A      2.735177   200A      2.755313
     201A      2.762744   202A      2.772147   203A      2.780483
     204A      2.799117   205A      2.800180   206A      2.837163
     207A      2.850248   208A      2.856783   209A      2.875601
     210A      2.914578   211A      2.947502   212A      2.957004
     213A      2.962053   214A      2.987274   215A      3.026389
     216A      3.057788   217A      3.177002   218A      3.200019
     219A      3.294555   220A      3.953888

    Final Occupation by Irrep:
              A
    DOCC [    38 ]

  @RHF Final Energy:  -388.02861209973008

   => Energetics <=

    Nuclear Repulsion Energy =            490.5942521547423780
    One-Electron Energy =               -1495.6385263453057632
    Two-Electron Energy =                 617.0156620908333025
    Total Energy =                       -388.0286120997300259

Computation Completed

Properties will be evaluated at   0.000000,   0.000000,   0.000000 [a0]

Properties computed using the SCF density matrix

  Nuclear Dipole Moment: [e a0]
     X:     7.6461      Y:    -3.3714      Z:    10.2981

  Electronic Dipole Moment: [e a0]
     X:    -7.5469      Y:     3.3716      Z:   -10.2920

  Dipole Moment: [e a0]
     X:     0.0992      Y:     0.0001      Z:     0.0061     Total:     0.0994

  Dipole Moment: [D]
     X:     0.2521      Y:     0.0003      Z:     0.0154     Total:     0.2526

*** tstop() called on ds3 at Tue Apr 28 15:00:34 2020
Module time:
	user time   =     105.89 seconds =       1.76 minutes
	system time =      40.78 seconds =       0.68 minutes
	total time  =        254 seconds =       4.23 minutes
Total time:
	user time   =     105.89 seconds =       1.76 minutes
	system time =      40.78 seconds =       0.68 minutes
	total time  =        254 seconds =       4.23 minutes
                                     G D M A

                                 by Anthony Stone

                           version 2.2.06, 22 June 2011

               Distributed Multipoles from Gaussian wavefunctions

Starting at 15:0:34 on 28 Apr 2020

Using SCF density matrix from file ./SSI/SSI-051THR-152PHE-1-dimer.test.22566.fchk

                         Distributed Multipole Analysis

Standard DMA

Positions and radii in angstrom
Multipole moments in atomic units, ea_0^k for rank k

C          x =  0.701801  y = -0.525796  z =  3.026042 angstrom
           Maximum rank =  0   Radius =  0.650 angstrom
                   Q00  =  -0.250411

C          x =  0.217801  y = -1.315796  z =  4.242042 angstrom
           Maximum rank =  0   Radius =  0.650 angstrom
                   Q00  =  -0.222329

H          x =  1.175801  y =  0.402204  z =  3.345042 angstrom
           Maximum rank =  0   Radius =  0.325 angstrom
                   Q00  =   0.077080

H          x =  1.430801  y = -1.130796  z =  2.488042 angstrom
           Maximum rank =  0   Radius =  0.325 angstrom
                   Q00  =   0.069693

H          x = -0.128199  y = -0.304796  z =  2.355042 angstrom
           Maximum rank =  0   Radius =  0.325 angstrom
                   Q00  =   0.093290

H          x = -0.364199  y = -2.170796  z =  3.899042 angstrom
           Maximum rank =  0   Radius =  0.325 angstrom
                   Q00  =   0.080534

H          x = -0.395375  y = -0.685526  z =  4.902932 angstrom
           Maximum rank =  0   Radius =  0.325 angstrom
                   Q00  =   0.079373

H          x =  1.084959  y = -1.678846  z =  4.813212 angstrom
           Maximum rank =  0   Radius =  0.325 angstrom
                   Q00  =   0.074535

C          x =  1.814801  y =  0.415204  z = -0.388958 angstrom
           Maximum rank =  0   Radius =  0.650 angstrom
                   Q00  =  -0.038756

C          x =  2.722801  y = -0.109796  z = -1.508958 angstrom
           Maximum rank =  0   Radius =  0.650 angstrom
                   Q00  =  -0.242645

C          x =  0.344801  y =  0.356204  z = -0.720958 angstrom
           Maximum rank =  0   Radius =  0.650 angstrom
                   Q00  =  -0.100526

C          x = -0.248199  y = -0.849796  z = -1.105958 angstrom
           Maximum rank =  0   Radius =  0.650 angstrom
                   Q00  =  -0.112895

C          x = -0.439199  y =  1.510204  z = -0.671958 angstrom
           Maximum rank =  0   Radius =  0.650 angstrom
                   Q00  =   0.007069

C          x = -1.609199  y = -0.898796  z = -1.433958 angstrom
           Maximum rank =  0   Radius =  0.650 angstrom
                   Q00  =  -0.049325

C          x = -1.803199  y =  1.462204  z = -0.983958 angstrom
           Maximum rank =  0   Radius =  0.650 angstrom
                   Q00  =  -0.078648

C          x = -2.387199  y =  0.258204  z = -1.375958 angstrom
           Maximum rank =  0   Radius =  0.650 angstrom
                   Q00  =  -0.087748

H          x =  1.992801  y = -0.182796  z =  0.502042 angstrom
           Maximum rank =  0   Radius =  0.325 angstrom
                   Q00  =   0.076060

H          x =  2.095801  y =  1.445204  z = -0.158958 angstrom
           Maximum rank =  0   Radius =  0.325 angstrom
                   Q00  =   0.062507

H          x =  2.459801  y = -1.150796  z = -1.695958 angstrom
           Maximum rank =  0   Radius =  0.325 angstrom
                   Q00  =   0.079909

H          x =  0.332801  y = -1.759796  z = -1.137958 angstrom
           Maximum rank =  0   Radius =  0.325 angstrom
                   Q00  =   0.059016

H          x =  0.005801  y =  2.452204  z = -0.382958 angstrom
           Maximum rank =  0   Radius =  0.325 angstrom
                   Q00  =   0.060230

H          x = -2.054199  y = -1.842796  z = -1.712958 angstrom
           Maximum rank =  0   Radius =  0.325 angstrom
                   Q00  =   0.065693

H          x = -2.400199  y =  2.363204  z = -0.936958 angstrom
           Maximum rank =  0   Radius =  0.325 angstrom
                   Q00  =   0.066044

H          x = -3.434199  y =  0.216204  z = -1.636958 angstrom
           Maximum rank =  0   Radius =  0.325 angstrom
                   Q00  =   0.062528

H          x =  3.780945  y = -0.028226  z = -1.219688 angstrom
           Maximum rank =  0   Radius =  0.325 angstrom
                   Q00  =   0.086476

H          x =  2.572937  y =  0.459834  z = -2.437968 angstrom
           Maximum rank =  0   Radius =  0.325 angstrom
                   Q00  =   0.083245

Total multipoles referred to origin at
           x =   0.000000,  y =    0.000000,  z =    0.000000 angstrom
                   Q00  =  -0.000000

Finished at 15:0:34 on 28 Apr 2020

  DMA results are available in the Python driver through the
	  variable('DMA DISTRIBUTED MULTIPOLES')
  and
	  variable('DMA TOTAL MULTIPOLES')
  commands.

    Psi4 stopped on: Tuesday, 28 April 2020 03:00PM
    Psi4 wall time for execution: 0:04:14.10

*** Psi4 exiting successfully. Buy a developer a beer!
