                               Psi4 1.3.2 release

  ==> Input File <==

--------------------------------------------------------------------------
import numpy as np
set {scf_type pk
basis cc-pvdz
d_convergence 10
gdma_switch   0
gdma_limit    0
gdma_origin   [ 0.0,  0.0,  0.0 ]
}
molecule test {
    units Angstrom
    0 1
    --
    0 1
    C                1.463600332017825    -2.311075453504978    -1.242253132199959
    C                0.014600332017825     0.720924546495022     0.564746867800041
    C                0.265600332017825    -0.250075453504977    -0.413253132199959
    C                0.758600332017825     0.754924546495022     1.725746867800041
    C                1.257600332017825    -1.219075453504977    -0.217253132199959
    C                1.748600332017825    -0.204075453504977     1.922746867800041
    C                1.994600332017825    -1.190075453504978     0.969746867800041
    H               -0.760399667982175     1.458924546495022     0.407746867800041
    H               -0.327399667982175    -0.259075453504977    -1.317253132199959
    H                0.572600332017825     1.509924546495023     2.474746867800041
    H                2.328600332017825    -0.187075453504977     2.834746867800041
    H                2.497600332017825    -2.658075453504977    -1.209253132199959
    H                1.313600332017825    -1.889075453504977    -2.223253132199959
    H                2.765600332017825    -1.911075453504977     1.152746867800041
    H                0.782120332017825    -3.159157453504978    -1.079961132199959
    C               -3.462399667982175     1.104924546495023    -0.945253132199959
    C               -3.153399667982175     2.329924546495023    -1.765253132199959
    H               -4.509399667982176     0.822924546495023    -1.048253132199959
    H               -2.844399667982175     0.280924546495023    -1.300253132199959
    H               -3.236399667982174     1.286924546495023     0.106746867800041
    H               -3.447399667982175     2.151924546495022    -2.801253132199959
    H               -2.070399667982175     2.441924546495022    -1.742253132199959
    H               -3.630479667982175     3.249644546495022    -1.395786132199959

}
e, wfn = energy('scf', return_wfn=True)
gdma(wfn)
dmavals = variable('DMA DISTRIBUTED MULTIPOLES')
charges = np.array(dmavals)
print(charges)
np.save('SSI-127PHE-206ILE-1-dimer.npy', np.array(charges))--------------------------------------------------------------------------

*** tstart() called on ds3
*** at Mon Apr 27 12:48:07 2020

   => Loading Basis Set <=

    Name: CC-PVDZ
    Role: ORBITAL
    Keyword: BASIS
    atoms 1-7, 16-17  entry C          line   138 file /theoryfs2/ds/metcalf/miniconda2/envs/tf2gpu/share/psi4/basis/cc-pvdz.gbs
    atoms 8-15, 18-23 entry H          line    22 file /theoryfs2/ds/metcalf/miniconda2/envs/tf2gpu/share/psi4/basis/cc-pvdz.gbs

         ---------------------------------------------------------
                                   SCF
               by Justin Turney, Rob Parrish, Andy Simmonett
                          and Daniel G. A. Smith
                              RHF Reference
                        1 Threads,    500 MiB Core
         ---------------------------------------------------------

  ==> Geometry <==

    Molecular point group: c1
    Full point group: C1

    Geometry (in Angstrom), charge = 0, multiplicity = 1:

       Center              X                  Y                   Z               Mass
    ------------   -----------------  -----------------  -----------------  -----------------
         C            1.463600332018    -2.311075453505    -1.242253132200    12.000000000000
         C            0.014600332018     0.720924546495     0.564746867800    12.000000000000
         C            0.265600332018    -0.250075453505    -0.413253132200    12.000000000000
         C            0.758600332018     0.754924546495     1.725746867800    12.000000000000
         C            1.257600332018    -1.219075453505    -0.217253132200    12.000000000000
         C            1.748600332018    -0.204075453505     1.922746867800    12.000000000000
         C            1.994600332018    -1.190075453505     0.969746867800    12.000000000000
         H           -0.760399667982     1.458924546495     0.407746867800     1.007825032230
         H           -0.327399667982    -0.259075453505    -1.317253132200     1.007825032230
         H            0.572600332018     1.509924546495     2.474746867800     1.007825032230
         H            2.328600332018    -0.187075453505     2.834746867800     1.007825032230
         H            2.497600332018    -2.658075453505    -1.209253132200     1.007825032230
         H            1.313600332018    -1.889075453505    -2.223253132200     1.007825032230
         H            2.765600332018    -1.911075453505     1.152746867800     1.007825032230
         H            0.782120332018    -3.159157453505    -1.079961132200     1.007825032230
         C           -3.462399667982     1.104924546495    -0.945253132200    12.000000000000
         C           -3.153399667982     2.329924546495    -1.765253132200    12.000000000000
         H           -4.509399667982     0.822924546495    -1.048253132200     1.007825032230
         H           -2.844399667982     0.280924546495    -1.300253132200     1.007825032230
         H           -3.236399667982     1.286924546495     0.106746867800     1.007825032230
         H           -3.447399667982     2.151924546495    -2.801253132200     1.007825032230
         H           -2.070399667982     2.441924546495    -1.742253132200     1.007825032230
         H           -3.630479667982     3.249644546495    -1.395786132200     1.007825032230

  Running in c1 symmetry.

  Rotational constants: A =      0.07726  B =      0.02258  C =      0.01830 [cm^-1]
  Rotational constants: A =   2316.28619  B =    676.98327  C =    548.73273 [MHz]
  Nuclear repulsion =  402.205193348700845

  Charge       = 0
  Multiplicity = 1
  Electrons    = 68
  Nalpha       = 34
  Nbeta        = 34

  ==> Algorithm <==

  SCF Algorithm Type is PK.
  DIIS enabled.
  MOM disabled.
  Fractional occupation disabled.
  Guess Type is SAD.
  Energy threshold   = 1.00e-06
  Density threshold  = 1.00e-10
  Integral threshold = 0.00e+00

  ==> Primary Basis <==

  Basis Set: CC-PVDZ
    Blend: CC-PVDZ
    Number of shells: 96
    Number of basis function: 196
    Number of Cartesian functions: 205
    Spherical Harmonics?: true
    Max angular momentum: 2

  ==> Pre-Iterations <==

   -------------------------------------------------------
    Irrep   Nso     Nmo     Nalpha   Nbeta   Ndocc  Nsocc
   -------------------------------------------------------
     A        196     196       0       0       0       0
   -------------------------------------------------------
    Total     196     196      34      34      34       0
   -------------------------------------------------------

  ==> Integral Setup <==

  Using integral reordering PK algorithm.
  Sizing the integral batches needed.
  Building batch lookup table.
   Calculation information:
      Number of atoms:                  23
      Number of AO shells:              96
      Number of primitives:            268
      Number of atomic orbitals:       205
      Number of basis functions:       196

      Integral cutoff                 1.00e-12
      Number of threads:                 1

	Batch   1 pq = [       0,    9405] index = [             0,44231715] size =     44231715
	Batch   2 pq = [    9405,   13301] index = [      44231715,88464951] size =     44233236
	Batch   3 pq = [   13301,   16290] index = [      88464951,132690195] size =     44225244
	Batch   4 pq = [   16290,   18810] index = [     132690195,176917455] size =     44227260
	Batch   5 pq = [   18810,   19306] index = [     176917455,186370471] size =      9453016
  Task number: 17
  Buffer size: 11059200
  Buffer per thread: 2
  We computed 8977224 shell quartets total.
  Whereas there are 10841496 unique shell quartets.

  ==> DiskJK: Disk-Based J/K Matrices <==

    J tasked:                  Yes
    K tasked:                  Yes
    wK tasked:                  No
    Memory [MiB]:              375
    Schwarz Cutoff:          1E-12

    OpenMP threads:              1

  Minimum eigenvalue in the overlap matrix is 3.0806318847E-04.
  Using Symmetric Orthogonalization.

  SCF Guess: Superposition of Atomic Densities via on-the-fly atomic UHF.

  ==> Iterations <==

                        Total Energy        Delta E     RMS |[F,P]|

   @RHF iter SAD:  -347.89818621334888   -3.47898e+02   0.00000e+00
   @RHF iter   1:  -348.76479389006238   -8.66608e-01   2.90831e-03 DIIS
   @RHF iter   2:  -348.95900064685225   -1.94207e-01   1.20023e-03 DIIS
   @RHF iter   3:  -348.98912959015968   -3.01289e-02   2.56724e-04 DIIS
   @RHF iter   4:  -348.99160273326731   -2.47314e-03   4.69971e-05 DIIS
   @RHF iter   5:  -348.99166429779223   -6.15645e-05   1.52103e-05 DIIS
   @RHF iter   6:  -348.99167015590768   -5.85812e-06   4.09121e-06 DIIS
   @RHF iter   7:  -348.99167062760608   -4.71698e-07   1.30190e-06 DIIS
   @RHF iter   8:  -348.99167067585040   -4.82443e-08   2.74284e-07 DIIS
   @RHF iter   9:  -348.99167068024934   -4.39894e-09   1.08119e-07 DIIS
   @RHF iter  10:  -348.99167068107607   -8.26731e-10   4.88925e-08 DIIS
   @RHF iter  11:  -348.99167068133943   -2.63356e-10   1.86261e-08 DIIS
   @RHF iter  12:  -348.99167068138735   -4.79190e-11   7.77981e-09 DIIS
   @RHF iter  13:  -348.99167068139349   -6.13909e-12   3.37565e-09 DIIS
   @RHF iter  14:  -348.99167068139491   -1.42109e-12   6.42882e-10 DIIS
   @RHF iter  15:  -348.99167068139531   -3.97904e-13   2.21910e-10 DIIS
   @RHF iter  16:  -348.99167068139428    1.02318e-12   1.22985e-10 DIIS
   @RHF iter  17:  -348.99167068139502   -7.38964e-13   5.48949e-11 DIIS
  Energy and wave function converged.

  ==> Post-Iterations <==

    Orbital Energies [Eh]
    ---------------------

    Doubly Occupied:

       1A    -11.242260     2A    -11.234707     3A    -11.234463
       4A    -11.231273     5A    -11.229707     6A    -11.229228
       7A    -11.229159     8A    -11.218230     9A    -11.216427
      10A     -1.150981    11A     -1.044357    12A     -1.026764
      13A     -1.009253    14A     -0.932466    15A     -0.836565
      16A     -0.824429    17A     -0.794360    18A     -0.691504
      19A     -0.630466    20A     -0.630051    21A     -0.605044
      22A     -0.602412    23A     -0.579474    24A     -0.578631
      25A     -0.563607    26A     -0.535846    27A     -0.507214
      28A     -0.488242    29A     -0.487559    30A     -0.483385
      31A     -0.481209    32A     -0.480345    33A     -0.330439
      34A     -0.322430

    Virtual:

      35A      0.135292    36A      0.140640    37A      0.168051
      38A      0.194237    39A      0.204704    40A      0.228763
      41A      0.231735    42A      0.240269    43A      0.249717
      44A      0.260046    45A      0.261006    46A      0.271249
      47A      0.281571    48A      0.285873    49A      0.335135
      50A      0.353329    51A      0.373042    52A      0.388025
      53A      0.400406    54A      0.462523    55A      0.462850
      56A      0.477095    57A      0.493523    58A      0.557314
      59A      0.591921    60A      0.595266    61A      0.603956
      62A      0.631900    63A      0.642427    64A      0.658685
      65A      0.666809    66A      0.692206    67A      0.707723
      68A      0.717346    69A      0.718130    70A      0.741226
      71A      0.742921    72A      0.749258    73A      0.762168
      74A      0.777257    75A      0.780249    76A      0.803571
      77A      0.839152    78A      0.851390    79A      0.856576
      80A      0.870165    81A      0.878799    82A      0.881260
      83A      0.887098    84A      0.887844    85A      0.900049
      86A      0.908744    87A      0.914753    88A      0.921222
      89A      0.936960    90A      0.942959    91A      0.959328
      92A      0.970606    93A      0.983927    94A      1.001516
      95A      1.031966    96A      1.053223    97A      1.123056
      98A      1.126277    99A      1.131788   100A      1.144239
     101A      1.157178   102A      1.161768   103A      1.201996
     104A      1.241091   105A      1.244053   106A      1.251713
     107A      1.261654   108A      1.264029   109A      1.302824
     110A      1.306818   111A      1.319586   112A      1.326328
     113A      1.413558   114A      1.463123   115A      1.492453
     116A      1.508732   117A      1.515180   118A      1.559302
     119A      1.597772   120A      1.617601   121A      1.667007
     122A      1.687888   123A      1.696990   124A      1.708263
     125A      1.738320   126A      1.744157   127A      1.761760
     128A      1.788842   129A      1.807039   130A      1.856077
     131A      1.861176   132A      1.873129   133A      1.882888
     134A      1.895972   135A      1.897486   136A      1.913610
     137A      1.915504   138A      1.928087   139A      1.938841
     140A      1.944030   141A      1.952163   142A      1.955348
     143A      1.965756   144A      1.968913   145A      1.981021
     146A      1.983618   147A      1.997783   148A      2.015159
     149A      2.040576   150A      2.066448   151A      2.071768
     152A      2.098652   153A      2.107789   154A      2.139482
     155A      2.142885   156A      2.162116   157A      2.171680
     158A      2.178915   159A      2.211687   160A      2.264014
     161A      2.279833   162A      2.291173   163A      2.301838
     164A      2.305781   165A      2.317186   166A      2.324475
     167A      2.336024   168A      2.452102   169A      2.468339
     170A      2.472032   171A      2.487590   172A      2.496154
     173A      2.534313   174A      2.573707   175A      2.590640
     176A      2.629319   177A      2.747667   178A      2.753891
     179A      2.768532   180A      2.774095   181A      2.796131
     182A      2.799643   183A      2.828791   184A      2.845418
     185A      2.858857   186A      2.869460   187A      2.886831
     188A      2.955493   189A      2.964204   190A      2.988026
     191A      3.008169   192A      3.024338   193A      3.151731
     194A      3.202331   195A      3.300397   196A      3.964891

    Final Occupation by Irrep:
              A
    DOCC [    34 ]

  @RHF Final Energy:  -348.99167068139502

   => Energetics <=

    Nuclear Repulsion Energy =            402.2051933487008455
    One-Electron Energy =               -1267.0287536432429079
    Two-Electron Energy =                 515.8318896131470410
    Total Energy =                       -348.9916706813950213

Computation Completed

Properties will be evaluated at   0.000000,   0.000000,   0.000000 [a0]

Properties computed using the SCF density matrix

  Nuclear Dipole Moment: [e a0]
     X:    -9.9054      Y:     2.9433      Z:    -6.6943

  Electronic Dipole Moment: [e a0]
     X:     9.9162      Y:    -3.0592      Z:     6.6203

  Dipole Moment: [e a0]
     X:     0.0108      Y:    -0.1160      Z:    -0.0739     Total:     0.1379

  Dipole Moment: [D]
     X:     0.0273      Y:    -0.2947      Z:    -0.1879     Total:     0.3506

*** tstop() called on ds3 at Mon Apr 27 12:49:47 2020
Module time:
	user time   =      70.88 seconds =       1.18 minutes
	system time =      34.02 seconds =       0.57 minutes
	total time  =        100 seconds =       1.67 minutes
Total time:
	user time   =      70.88 seconds =       1.18 minutes
	system time =      34.02 seconds =       0.57 minutes
	total time  =        100 seconds =       1.67 minutes
                                     G D M A

                                 by Anthony Stone

                           version 2.2.06, 22 June 2011

               Distributed Multipoles from Gaussian wavefunctions

Starting at 12:49:48 on 27 Apr 2020

Using SCF density matrix from file ./SSI/SSI-127PHE-206ILE-1-dimer.test.4123.fchk

                         Distributed Multipole Analysis

Standard DMA

Positions and radii in angstrom
Multipole moments in atomic units, ea_0^k for rank k

C          x =  1.463600  y = -2.311075  z = -1.242253 angstrom
           Maximum rank =  0   Radius =  0.650 angstrom
                   Q00  =  -0.204501

C          x =  0.014600  y =  0.720925  z =  0.564747 angstrom
           Maximum rank =  0   Radius =  0.650 angstrom
                   Q00  =  -0.076189

C          x =  0.265600  y = -0.250075  z = -0.413253 angstrom
           Maximum rank =  0   Radius =  0.650 angstrom
                   Q00  =  -0.077085

C          x =  0.758600  y =  0.754925  z =  1.725747 angstrom
           Maximum rank =  0   Radius =  0.650 angstrom
                   Q00  =  -0.087463

C          x =  1.257600  y = -1.219075  z = -0.217253 angstrom
           Maximum rank =  0   Radius =  0.650 angstrom
                   Q00  =  -0.099069

C          x =  1.748600  y = -0.204075  z =  1.922747 angstrom
           Maximum rank =  0   Radius =  0.650 angstrom
                   Q00  =   0.026129

C          x =  1.994600  y = -1.190075  z =  0.969747 angstrom
           Maximum rank =  0   Radius =  0.650 angstrom
                   Q00  =  -0.089313

H          x = -0.760400  y =  1.458925  z =  0.407747 angstrom
           Maximum rank =  0   Radius =  0.325 angstrom
                   Q00  =   0.063986

H          x = -0.327400  y = -0.259075  z = -1.317253 angstrom
           Maximum rank =  0   Radius =  0.325 angstrom
                   Q00  =   0.055721

H          x =  0.572600  y =  1.509925  z =  2.474747 angstrom
           Maximum rank =  0   Radius =  0.325 angstrom
                   Q00  =   0.060586

H          x =  2.328600  y = -0.187075  z =  2.834747 angstrom
           Maximum rank =  0   Radius =  0.325 angstrom
                   Q00  =   0.063212

H          x =  2.497600  y = -2.658075  z = -1.209253 angstrom
           Maximum rank =  0   Radius =  0.325 angstrom
                   Q00  =   0.098076

H          x =  1.313600  y = -1.889075  z = -2.223253 angstrom
           Maximum rank =  0   Radius =  0.325 angstrom
                   Q00  =   0.101423

H          x =  2.765600  y = -1.911075  z =  1.152747 angstrom
           Maximum rank =  0   Radius =  0.325 angstrom
                   Q00  =   0.057104

H          x =  0.782120  y = -3.159157  z = -1.079961 angstrom
           Maximum rank =  0   Radius =  0.325 angstrom
                   Q00  =   0.106744

C          x = -3.462400  y =  1.104925  z = -0.945253 angstrom
           Maximum rank =  0   Radius =  0.650 angstrom
                   Q00  =  -0.230789

C          x = -3.153400  y =  2.329925  z = -1.765253 angstrom
           Maximum rank =  0   Radius =  0.650 angstrom
                   Q00  =  -0.229238

H          x = -4.509400  y =  0.822925  z = -1.048253 angstrom
           Maximum rank =  0   Radius =  0.325 angstrom
                   Q00  =   0.078497

H          x = -2.844400  y =  0.280925  z = -1.300253 angstrom
           Maximum rank =  0   Radius =  0.325 angstrom
                   Q00  =   0.075653

H          x = -3.236400  y =  1.286925  z =  0.106747 angstrom
           Maximum rank =  0   Radius =  0.325 angstrom
                   Q00  =   0.076994

H          x = -3.447400  y =  2.151925  z = -2.801253 angstrom
           Maximum rank =  0   Radius =  0.325 angstrom
                   Q00  =   0.077569

H          x = -2.070400  y =  2.441925  z = -1.742253 angstrom
           Maximum rank =  0   Radius =  0.325 angstrom
                   Q00  =   0.070224

H          x = -3.630480  y =  3.249645  z = -1.395786 angstrom
           Maximum rank =  0   Radius =  0.325 angstrom
                   Q00  =   0.081729

Total multipoles referred to origin at
           x =   0.000000,  y =    0.000000,  z =    0.000000 angstrom
                   Q00  =  -0.000000

Finished at 12:49:48 on 27 Apr 2020

  DMA results are available in the Python driver through the
	  variable('DMA DISTRIBUTED MULTIPOLES')
  and
	  variable('DMA TOTAL MULTIPOLES')
  commands.

    Psi4 stopped on: Monday, 27 April 2020 12:49PM
    Psi4 wall time for execution: 0:01:40.39

*** Psi4 exiting successfully. Buy a developer a beer!
