                               Psi4 1.3.2 release

  ==> Input File <==

--------------------------------------------------------------------------
import numpy as np
set {scf_type pk
basis cc-pvdz
d_convergence 10
gdma_switch   0
gdma_limit    0
gdma_origin   [ 0.0,  0.0,  0.0 ]
}
molecule test {
    units Angstrom
    0 1
    --
    0 1
    C               -0.723685652317737     1.933269302561018    -1.532299657410058
    C               -2.029685652317736     2.705269302561017    -1.659299657410058
    H               -0.021685652317737     2.476269302561018    -0.900299657410058
    H               -0.928685652317736     0.963269302561018    -1.088299657410058
    H               -0.282685652317737     1.781269302561018    -2.516299657410058
    H               -2.691685652317737     2.129269302561017    -2.302299657410058
    H               -1.842304652317736     3.676769302561018    -2.140004657410058
    H               -2.497420652317737     2.842119302561017    -0.673146657410058
    C                1.469314347682264    -0.741730697438982     0.142700342589942
    C                2.629314347682263    -0.342730697438982     1.048700342589942
    C               -1.060685652317737    -1.832730697438982    -0.091299657410058
    S               -0.099685652317737    -0.813730697438982     1.028700342589942
    H                1.380314347682263    -0.020730697438982    -0.671299657410058
    H                1.676314347682263    -1.717730697438982    -0.295299657410058
    H                2.448314347682263     0.660269302561018     1.431700342589942
    H                3.550314347682263    -0.337730697438982     0.470700342589942
    H               -0.602685652317737    -2.813730697438982    -0.193299657410058
    H               -2.067685652317737    -1.950730697438982     0.308700342589942
    H               -1.119685652317736    -1.340730697438982    -1.058299657410058
    H                2.773331347682263    -1.028973697438982     1.896243342589942

}
e, wfn = energy('scf', return_wfn=True)
gdma(wfn)
dmavals = variable('DMA DISTRIBUTED MULTIPOLES')
charges = np.array(dmavals)
print(charges)
np.save('SSI-251LEU-269MET-1-dimer.npy', np.array(charges))--------------------------------------------------------------------------

*** tstart() called on ds3
*** at Tue Apr 28 13:24:05 2020

   => Loading Basis Set <=

    Name: CC-PVDZ
    Role: ORBITAL
    Keyword: BASIS
    atoms 1-2, 9-11  entry C          line   138 file /theoryfs2/ds/metcalf/miniconda2/envs/tf2gpu/share/psi4/basis/cc-pvdz.gbs
    atoms 3-8, 13-20 entry H          line    22 file /theoryfs2/ds/metcalf/miniconda2/envs/tf2gpu/share/psi4/basis/cc-pvdz.gbs
    atoms 12         entry S          line   598 file /theoryfs2/ds/metcalf/miniconda2/envs/tf2gpu/share/psi4/basis/cc-pvdz.gbs

         ---------------------------------------------------------
                                   SCF
               by Justin Turney, Rob Parrish, Andy Simmonett
                          and Daniel G. A. Smith
                              RHF Reference
                        1 Threads,    500 MiB Core
         ---------------------------------------------------------

  ==> Geometry <==

    Molecular point group: c1
    Full point group: C1

    Geometry (in Angstrom), charge = 0, multiplicity = 1:

       Center              X                  Y                   Z               Mass
    ------------   -----------------  -----------------  -----------------  -----------------
         C           -0.723685652318     1.933269302561    -1.532299657410    12.000000000000
         C           -2.029685652318     2.705269302561    -1.659299657410    12.000000000000
         H           -0.021685652318     2.476269302561    -0.900299657410     1.007825032230
         H           -0.928685652318     0.963269302561    -1.088299657410     1.007825032230
         H           -0.282685652318     1.781269302561    -2.516299657410     1.007825032230
         H           -2.691685652318     2.129269302561    -2.302299657410     1.007825032230
         H           -1.842304652318     3.676769302561    -2.140004657410     1.007825032230
         H           -2.497420652318     2.842119302561    -0.673146657410     1.007825032230
         C            1.469314347682    -0.741730697439     0.142700342590    12.000000000000
         C            2.629314347682    -0.342730697439     1.048700342590    12.000000000000
         C           -1.060685652318    -1.832730697439    -0.091299657410    12.000000000000
         S           -0.099685652318    -0.813730697439     1.028700342590    31.972071174400
         H            1.380314347682    -0.020730697439    -0.671299657410     1.007825032230
         H            1.676314347682    -1.717730697439    -0.295299657410     1.007825032230
         H            2.448314347682     0.660269302561     1.431700342590     1.007825032230
         H            3.550314347682    -0.337730697439     0.470700342590     1.007825032230
         H           -0.602685652318    -2.813730697439    -0.193299657410     1.007825032230
         H           -2.067685652318    -1.950730697439     0.308700342590     1.007825032230
         H           -1.119685652318    -1.340730697439    -1.058299657410     1.007825032230
         H            2.773331347682    -1.028973697439     1.896243342590     1.007825032230

  Running in c1 symmetry.

  Rotational constants: A =      0.09524  B =      0.03510  C =      0.02838 [cm^-1]
  Rotational constants: A =   2855.12731  B =   1052.24298  C =    850.67590 [MHz]
  Nuclear repulsion =  300.291062567710469

  Charge       = 0
  Multiplicity = 1
  Electrons    = 60
  Nalpha       = 30
  Nbeta        = 30

  ==> Algorithm <==

  SCF Algorithm Type is PK.
  DIIS enabled.
  MOM disabled.
  Fractional occupation disabled.
  Guess Type is SAD.
  Energy threshold   = 1.00e-06
  Density threshold  = 1.00e-10
  Integral threshold = 0.00e+00

  ==> Primary Basis <==

  Basis Set: CC-PVDZ
    Blend: CC-PVDZ
    Number of shells: 80
    Number of basis function: 158
    Number of Cartesian functions: 164
    Spherical Harmonics?: true
    Max angular momentum: 2

  ==> Pre-Iterations <==

   -------------------------------------------------------
    Irrep   Nso     Nmo     Nalpha   Nbeta   Ndocc  Nsocc
   -------------------------------------------------------
     A        158     158       0       0       0       0
   -------------------------------------------------------
    Total     158     158      30      30      30       0
   -------------------------------------------------------

  ==> Integral Setup <==

  Using integral reordering PK algorithm.
  Sizing the integral batches needed.
  Building batch lookup table.
   Calculation information:
      Number of atoms:                  20
      Number of AO shells:              80
      Number of primitives:            230
      Number of atomic orbitals:       164
      Number of basis functions:       158

      Integral cutoff                 1.00e-12
      Number of threads:                 1

	Batch   1 pq = [       0,    9405] index = [             0,44231715] size =     44231715
	Batch   2 pq = [    9405,   12561] index = [      44231715,78895641] size =     34663926
  Task number: 8
  Buffer size: 11059200
  Buffer per thread: 2
  We computed 4693160 shell quartets total.
  Whereas there are 5250420 unique shell quartets.

  ==> DiskJK: Disk-Based J/K Matrices <==

    J tasked:                  Yes
    K tasked:                  Yes
    wK tasked:                  No
    Memory [MiB]:              375
    Schwarz Cutoff:          1E-12

    OpenMP threads:              1

  Minimum eigenvalue in the overlap matrix is 5.3812556225E-03.
  Using Symmetric Orthogonalization.

  SCF Guess: Superposition of Atomic Densities via on-the-fly atomic UHF.

  ==> Iterations <==

                        Total Energy        Delta E     RMS |[F,P]|

   @RHF iter SAD:  -593.95191858197745   -5.93952e+02   0.00000e+00
   @RHF iter   1:  -594.85027159577021   -8.98353e-01   3.17814e-03 DIIS
   @RHF iter   2:  -595.00129778419955   -1.51026e-01   1.27473e-03 DIIS
   @RHF iter   3:  -595.02390281754708   -2.26050e-02   2.93722e-04 DIIS
   @RHF iter   4:  -595.02615499214517   -2.25217e-03   5.14470e-05 DIIS
   @RHF iter   5:  -595.02620723309394   -5.22409e-05   1.69531e-05 DIIS
   @RHF iter   6:  -595.02621261362458   -5.38053e-06   3.31176e-06 DIIS
   @RHF iter   7:  -595.02621287666318   -2.63039e-07   8.62459e-07 DIIS
   @RHF iter   8:  -595.02621289869046   -2.20273e-08   2.67239e-07 DIIS
   @RHF iter   9:  -595.02621290124102   -2.55056e-09   7.04320e-08 DIIS
   @RHF iter  10:  -595.02621290144384   -2.02817e-10   2.18218e-08 DIIS
   @RHF iter  11:  -595.02621290146180   -1.79625e-11   6.18607e-09 DIIS
   @RHF iter  12:  -595.02621290146362   -1.81899e-12   2.28162e-09 DIIS
   @RHF iter  13:  -595.02621290146283    7.95808e-13   7.73588e-10 DIIS
   @RHF iter  14:  -595.02621290146431   -1.47793e-12   2.28427e-10 DIIS
   @RHF iter  15:  -595.02621290146362    6.82121e-13   7.49302e-11 DIIS
  Energy and wave function converged.

  ==> Post-Iterations <==

    Orbital Energies [Eh]
    ---------------------

    Doubly Occupied:

       1A    -91.931208     2A    -11.255322     3A    -11.254336
       4A    -11.229528     5A    -11.215624     6A    -11.211153
       7A     -8.935654     8A     -6.617729     9A     -6.616155
      10A     -6.613945    11A     -1.080678    12A     -1.017255
      13A     -1.001398    14A     -0.879309    15A     -0.832739
      16A     -0.787696    17A     -0.630425    18A     -0.600439
      19A     -0.597161    20A     -0.596050    21A     -0.585284
      22A     -0.578554    23A     -0.523760    24A     -0.508632
      25A     -0.495043    26A     -0.483336    27A     -0.480826
      28A     -0.476186    29A     -0.421731    30A     -0.329291

    Virtual:

      31A      0.171486    32A      0.173245    33A      0.199423
      34A      0.220643    35A      0.235168    36A      0.247415
      37A      0.248832    38A      0.253827    39A      0.257387
      40A      0.268859    41A      0.276846    42A      0.284286
      43A      0.290855    44A      0.301461    45A      0.305129
      46A      0.344916    47A      0.374049    48A      0.416465
      49A      0.537524    50A      0.563448    51A      0.580806
      52A      0.595844    53A      0.608225    54A      0.609578
      55A      0.625551    56A      0.647708    57A      0.656369
      58A      0.672422    59A      0.692448    60A      0.710056
      61A      0.726220    62A      0.771534    63A      0.795772
      64A      0.822586    65A      0.854629    66A      0.866887
      67A      0.872918    68A      0.876111    69A      0.879632
      70A      0.890606    71A      0.897616    72A      0.898571
      73A      0.900445    74A      0.909201    75A      0.913977
      76A      0.915626    77A      0.919638    78A      0.930745
      79A      0.951465    80A      0.958893    81A      0.977162
      82A      0.992215    83A      1.008483    84A      1.088395
      85A      1.128687    86A      1.139331    87A      1.168929
      88A      1.224893    89A      1.261158    90A      1.313295
      91A      1.323639    92A      1.350596    93A      1.374412
      94A      1.429510    95A      1.450715    96A      1.477608
      97A      1.482644    98A      1.501388    99A      1.597702
     100A      1.647904   101A      1.650836   102A      1.682275
     103A      1.684590   104A      1.690945   105A      1.717609
     106A      1.843140   107A      1.858382   108A      1.870196
     109A      1.882053   110A      1.883797   111A      1.890389
     112A      1.902587   113A      1.921459   114A      1.929552
     115A      1.936029   116A      1.950280   117A      1.957264
     118A      1.965868   119A      1.975653   120A      1.979656
     121A      1.992024   122A      1.993471   123A      2.014441
     124A      2.033850   125A      2.065209   126A      2.084487
     127A      2.108122   128A      2.121535   129A      2.124692
     130A      2.210781   131A      2.241405   132A      2.293146
     133A      2.310187   134A      2.326389   135A      2.361689
     136A      2.429224   137A      2.451658   138A      2.463208
     139A      2.471779   140A      2.486920   141A      2.529810
     142A      2.566153   143A      2.572915   144A      2.582037
     145A      2.761267   146A      2.767483   147A      2.769888
     148A      2.786047   149A      2.791281   150A      2.806650
     151A      2.836139   152A      2.840320   153A      2.855545
     154A      2.862251   155A      2.904512   156A      2.946985
     157A      2.958746   158A      2.999204

    Final Occupation by Irrep:
              A
    DOCC [    30 ]

  @RHF Final Energy:  -595.02621290146362

   => Energetics <=

    Nuclear Repulsion Energy =            300.2910625677104690
    One-Electron Energy =               -1411.0616565490722678
    Two-Electron Energy =                 515.7443810798981758
    Total Energy =                       -595.0262129014636230

Computation Completed

Properties will be evaluated at   0.000000,   0.000000,   0.000000 [a0]

Properties computed using the SCF density matrix

  Nuclear Dipole Moment: [e a0]
     X:    -0.2144      Y:     4.9648      Z:    -7.2206

  Electronic Dipole Moment: [e a0]
     X:     0.4439      Y:    -5.2637      Z:     6.6890

  Dipole Moment: [e a0]
     X:     0.2295      Y:    -0.2988      Z:    -0.5317     Total:     0.6516

  Dipole Moment: [D]
     X:     0.5833      Y:    -0.7596      Z:    -1.3514     Total:     1.6563

*** tstop() called on ds3 at Tue Apr 28 13:24:58 2020
Module time:
	user time   =      34.77 seconds =       0.58 minutes
	system time =      10.99 seconds =       0.18 minutes
	total time  =         53 seconds =       0.88 minutes
Total time:
	user time   =      34.77 seconds =       0.58 minutes
	system time =      10.99 seconds =       0.18 minutes
	total time  =         53 seconds =       0.88 minutes
                                     G D M A

                                 by Anthony Stone

                           version 2.2.06, 22 June 2011

               Distributed Multipoles from Gaussian wavefunctions

Starting at 13:24:59 on 28 Apr 2020

Using SCF density matrix from file ./SSI/SSI-251LEU-269MET-1-dimer.test.16034.fchk

                         Distributed Multipole Analysis

Standard DMA

Positions and radii in angstrom
Multipole moments in atomic units, ea_0^k for rank k

C          x = -0.723686  y =  1.933269  z = -1.532300 angstrom
           Maximum rank =  0   Radius =  0.650 angstrom
                   Q00  =  -0.221515

C          x = -2.029686  y =  2.705269  z = -1.659300 angstrom
           Maximum rank =  0   Radius =  0.650 angstrom
                   Q00  =  -0.240776

H          x = -0.021686  y =  2.476269  z = -0.900300 angstrom
           Maximum rank =  0   Radius =  0.325 angstrom
                   Q00  =   0.078891

H          x = -0.928686  y =  0.963269  z = -1.088300 angstrom
           Maximum rank =  0   Radius =  0.325 angstrom
                   Q00  =   0.080382

H          x = -0.282686  y =  1.781269  z = -2.516300 angstrom
           Maximum rank =  0   Radius =  0.325 angstrom
                   Q00  =   0.069635

H          x = -2.691686  y =  2.129269  z = -2.302300 angstrom
           Maximum rank =  0   Radius =  0.325 angstrom
                   Q00  =   0.074583

H          x = -1.842305  y =  3.676769  z = -2.140005 angstrom
           Maximum rank =  0   Radius =  0.325 angstrom
                   Q00  =   0.076225

H          x = -2.497421  y =  2.842119  z = -0.673147 angstrom
           Maximum rank =  0   Radius =  0.325 angstrom
                   Q00  =   0.082950

C          x =  1.469314  y = -0.741731  z =  0.142700 angstrom
           Maximum rank =  0   Radius =  0.650 angstrom
                   Q00  =  -0.227679

C          x =  2.629314  y = -0.342731  z =  1.048700 angstrom
           Maximum rank =  0   Radius =  0.650 angstrom
                   Q00  =  -0.218185

C          x = -1.060686  y = -1.832731  z = -0.091300 angstrom
           Maximum rank =  0   Radius =  0.650 angstrom
                   Q00  =  -0.350437

S          x = -0.099686  y = -0.813731  z =  1.028700 angstrom
           Maximum rank =  0   Radius =  0.650 angstrom
                   Q00  =   0.109212

H          x =  1.380314  y = -0.020731  z = -0.671300 angstrom
           Maximum rank =  0   Radius =  0.325 angstrom
                   Q00  =   0.064973

H          x =  1.676314  y = -1.717731  z = -0.295300 angstrom
           Maximum rank =  0   Radius =  0.325 angstrom
                   Q00  =   0.058282

H          x =  2.448314  y =  0.660269  z =  1.431700 angstrom
           Maximum rank =  0   Radius =  0.325 angstrom
                   Q00  =   0.088151

H          x =  3.550314  y = -0.337731  z =  0.470700 angstrom
           Maximum rank =  0   Radius =  0.325 angstrom
                   Q00  =   0.092889

H          x = -0.602686  y = -2.813731  z = -0.193300 angstrom
           Maximum rank =  0   Radius =  0.325 angstrom
                   Q00  =   0.088850

H          x = -2.067686  y = -1.950731  z =  0.308700 angstrom
           Maximum rank =  0   Radius =  0.325 angstrom
                   Q00  =   0.120875

H          x = -1.119686  y = -1.340731  z = -1.058300 angstrom
           Maximum rank =  0   Radius =  0.325 angstrom
                   Q00  =   0.081472

H          x =  2.773331  y = -1.028974  z =  1.896243 angstrom
           Maximum rank =  0   Radius =  0.325 angstrom
                   Q00  =   0.091222

Total multipoles referred to origin at
           x =   0.000000,  y =    0.000000,  z =    0.000000 angstrom
                   Q00  =  -0.000000

Finished at 13:24:59 on 28 Apr 2020

  DMA results are available in the Python driver through the
	  variable('DMA DISTRIBUTED MULTIPOLES')
  and
	  variable('DMA TOTAL MULTIPOLES')
  commands.

    Psi4 stopped on: Tuesday, 28 April 2020 01:24PM
    Psi4 wall time for execution: 0:00:53.78

*** Psi4 exiting successfully. Buy a developer a beer!
