                               Psi4 1.3.2 release

  ==> Input File <==

--------------------------------------------------------------------------
import numpy as np
set {scf_type pk
basis cc-pvdz
d_convergence 10
gdma_switch   0
gdma_limit    0
gdma_origin   [ 0.0,  0.0,  0.0 ]
}
molecule test {
    units Angstrom
    0 1
    --
    0 1
    C               -1.356222097696985     0.398832502668668    -2.347244118446478
    C               -1.171222097696984     0.581832502668668    -3.876244118446478
    C               -2.439222097696985    -0.628167497331331    -2.004244118446478
    H               -0.410222097696985     0.070832502668669    -1.919244118446478
    H               -1.624222097696985     1.354832502668669    -1.897244118446478
    H               -2.149222097696985     0.859832502668669    -4.270244118446478
    H               -3.408222097696985    -0.283167497331332    -2.369244118446479
    H               -2.212222097696984    -1.587167497331331    -2.469244118446478
    H               -0.825572097696985    -0.355617497331332    -4.336364118446477
    H               -0.516092097696984     1.451172502668668    -4.034504118446478
    H               -2.474472097696985    -0.767717497331331    -0.913702118446478
    C               -0.115222097696985     1.564832502668668     2.612755881553522
    C                0.943777902303016     0.476832502668668     0.507755881553522
    C                0.569777902303016     0.487832502668668     1.807755881553522
    C                1.522777902303015    -1.463167497331331     1.372755881553522
    N                1.520777902303015    -0.750167497331331     0.260755881553522
    N                0.940777902303015    -0.748167497331331     2.337755881553522
    H                0.810777902303015     1.283832502668669    -0.199244118446478
    H                1.913777902303015    -1.073167497331331    -0.624244118446478
    H               -1.016222097696984     1.135832502668669     3.051755881553522
    H               -0.398222097696985     2.364832502668668     1.935755881553522
    H                1.920777902303015    -2.468167497331331     1.471755881553522
    H                0.543707902303015     1.938492502668669     3.410370881553522

}
e, wfn = energy('scf', return_wfn=True)
gdma(wfn)
dmavals = variable('DMA DISTRIBUTED MULTIPOLES')
charges = np.array(dmavals)
print(charges)
np.save('SSI-026GLN-065HIE-1-dimer.npy', np.array(charges))--------------------------------------------------------------------------

*** tstart() called on ds3
*** at Tue Apr 28 07:45:06 2020

   => Loading Basis Set <=

    Name: CC-PVDZ
    Role: ORBITAL
    Keyword: BASIS
    atoms 1-3, 12-15  entry C          line   138 file /theoryfs2/ds/metcalf/miniconda2/envs/tf2gpu/share/psi4/basis/cc-pvdz.gbs
    atoms 4-11, 18-23 entry H          line    22 file /theoryfs2/ds/metcalf/miniconda2/envs/tf2gpu/share/psi4/basis/cc-pvdz.gbs
    atoms 16-17       entry N          line   168 file /theoryfs2/ds/metcalf/miniconda2/envs/tf2gpu/share/psi4/basis/cc-pvdz.gbs

         ---------------------------------------------------------
                                   SCF
               by Justin Turney, Rob Parrish, Andy Simmonett
                          and Daniel G. A. Smith
                              RHF Reference
                        1 Threads,    500 MiB Core
         ---------------------------------------------------------

  ==> Geometry <==

    Molecular point group: c1
    Full point group: C1

    Geometry (in Angstrom), charge = 0, multiplicity = 1:

       Center              X                  Y                   Z               Mass
    ------------   -----------------  -----------------  -----------------  -----------------
         C           -1.356222097697     0.398832502669    -2.347244118446    12.000000000000
         C           -1.171222097697     0.581832502669    -3.876244118446    12.000000000000
         C           -2.439222097697    -0.628167497331    -2.004244118446    12.000000000000
         H           -0.410222097697     0.070832502669    -1.919244118446     1.007825032230
         H           -1.624222097697     1.354832502669    -1.897244118446     1.007825032230
         H           -2.149222097697     0.859832502669    -4.270244118446     1.007825032230
         H           -3.408222097697    -0.283167497331    -2.369244118446     1.007825032230
         H           -2.212222097697    -1.587167497331    -2.469244118446     1.007825032230
         H           -0.825572097697    -0.355617497331    -4.336364118446     1.007825032230
         H           -0.516092097697     1.451172502669    -4.034504118446     1.007825032230
         H           -2.474472097697    -0.767717497331    -0.913702118446     1.007825032230
         C           -0.115222097697     1.564832502669     2.612755881554    12.000000000000
         C            0.943777902303     0.476832502669     0.507755881554    12.000000000000
         C            0.569777902303     0.487832502669     1.807755881554    12.000000000000
         C            1.522777902303    -1.463167497331     1.372755881554    12.000000000000
         N            1.520777902303    -0.750167497331     0.260755881554    14.003074004430
         N            0.940777902303    -0.748167497331     2.337755881554    14.003074004430
         H            0.810777902303     1.283832502669    -0.199244118446     1.007825032230
         H            1.913777902303    -1.073167497331    -0.624244118446     1.007825032230
         H           -1.016222097697     1.135832502669     3.051755881554     1.007825032230
         H           -0.398222097697     2.364832502669     1.935755881554     1.007825032230
         H            1.920777902303    -2.468167497331     1.471755881554     1.007825032230
         H            0.543707902303     1.938492502669     3.410370881554     1.007825032230

  Running in c1 symmetry.

  Rotational constants: A =      0.07698  B =      0.02046  C =      0.01866 [cm^-1]
  Rotational constants: A =   2307.67423  B =    613.38109  C =    559.50475 [MHz]
  Nuclear repulsion =  424.870980916929227

  Charge       = 0
  Multiplicity = 1
  Electrons    = 70
  Nalpha       = 35
  Nbeta        = 35

  ==> Algorithm <==

  SCF Algorithm Type is PK.
  DIIS enabled.
  MOM disabled.
  Fractional occupation disabled.
  Guess Type is SAD.
  Energy threshold   = 1.00e-06
  Density threshold  = 1.00e-10
  Integral threshold = 0.00e+00

  ==> Primary Basis <==

  Basis Set: CC-PVDZ
    Blend: CC-PVDZ
    Number of shells: 96
    Number of basis function: 196
    Number of Cartesian functions: 205
    Spherical Harmonics?: true
    Max angular momentum: 2

  ==> Pre-Iterations <==

   -------------------------------------------------------
    Irrep   Nso     Nmo     Nalpha   Nbeta   Ndocc  Nsocc
   -------------------------------------------------------
     A        196     196       0       0       0       0
   -------------------------------------------------------
    Total     196     196      35      35      35       0
   -------------------------------------------------------

  ==> Integral Setup <==

  Using integral reordering PK algorithm.
  Sizing the integral batches needed.
  Building batch lookup table.
   Calculation information:
      Number of atoms:                  23
      Number of AO shells:              96
      Number of primitives:            268
      Number of atomic orbitals:       205
      Number of basis functions:       196

      Integral cutoff                 1.00e-12
      Number of threads:                 1

	Batch   1 pq = [       0,    9405] index = [             0,44231715] size =     44231715
	Batch   2 pq = [    9405,   13301] index = [      44231715,88464951] size =     44233236
	Batch   3 pq = [   13301,   16290] index = [      88464951,132690195] size =     44225244
	Batch   4 pq = [   16290,   18810] index = [     132690195,176917455] size =     44227260
	Batch   5 pq = [   18810,   19306] index = [     176917455,186370471] size =      9453016
  Task number: 17
  Buffer size: 11059200
  Buffer per thread: 2
  We computed 8901286 shell quartets total.
  Whereas there are 10841496 unique shell quartets.

  ==> DiskJK: Disk-Based J/K Matrices <==

    J tasked:                  Yes
    K tasked:                  Yes
    wK tasked:                  No
    Memory [MiB]:              375
    Schwarz Cutoff:          1E-12

    OpenMP threads:              1

  Minimum eigenvalue in the overlap matrix is 1.1920147261E-03.
  Using Symmetric Orthogonalization.

  SCF Guess: Superposition of Atomic Densities via on-the-fly atomic UHF.

  ==> Iterations <==

                        Total Energy        Delta E     RMS |[F,P]|

   @RHF iter SAD:  -381.14283837233376   -3.81143e+02   0.00000e+00
   @RHF iter   1:  -381.89153209152494   -7.48694e-01   3.12582e-03 DIIS
   @RHF iter   2:  -382.08900964509405   -1.97478e-01   1.56242e-03 DIIS
   @RHF iter   3:  -382.13385628717680   -4.48466e-02   4.00697e-04 DIIS
   @RHF iter   4:  -382.13773910793782   -3.88282e-03   1.70892e-04 DIIS
   @RHF iter   5:  -382.13837261780861   -6.33510e-04   2.53747e-05 DIIS
   @RHF iter   6:  -382.13839690001276   -2.42822e-05   1.06707e-05 DIIS
   @RHF iter   7:  -382.13840096722413   -4.06721e-06   3.80512e-06 DIIS
   @RHF iter   8:  -382.13840184610490   -8.78881e-07   1.57247e-06 DIIS
   @RHF iter   9:  -382.13840204230780   -1.96203e-07   5.65252e-07 DIIS
   @RHF iter  10:  -382.13840206220976   -1.99020e-08   1.67115e-07 DIIS
   @RHF iter  11:  -382.13840206433400   -2.12424e-09   7.14838e-08 DIIS
   @RHF iter  12:  -382.13840206460287   -2.68869e-10   3.03488e-08 DIIS
   @RHF iter  13:  -382.13840206465039   -4.75211e-11   9.42652e-09 DIIS
   @RHF iter  14:  -382.13840206465488   -4.49063e-12   3.16890e-09 DIIS
   @RHF iter  15:  -382.13840206465625   -1.36424e-12   1.18424e-09 DIIS
   @RHF iter  16:  -382.13840206465795   -1.70530e-12   4.02890e-10 DIIS
   @RHF iter  17:  -382.13840206465693    1.02318e-12   1.44050e-10 DIIS
   @RHF iter  18:  -382.13840206465574    1.19371e-12   4.46401e-11 DIIS
  Energy and wave function converged.

  ==> Post-Iterations <==

    Orbital Energies [Eh]
    ---------------------

    Doubly Occupied:

       1A    -15.620454     2A    -15.527222     3A    -11.292779
       4A    -11.249123     5A    -11.241683     6A    -11.225429
       7A    -11.224020     8A    -11.223365     9A    -11.217439
      10A     -1.340256    11A     -1.146997    12A     -1.053264
      13A     -1.030784    14A     -0.941662    15A     -0.925353
      16A     -0.813593    17A     -0.799586    18A     -0.759273
      19A     -0.741194    20A     -0.630368    21A     -0.608649
      22A     -0.603162    23A     -0.597544    24A     -0.591588
      25A     -0.552854    26A     -0.552119    27A     -0.538802
      28A     -0.536176    29A     -0.523492    30A     -0.477531
      31A     -0.472121    32A     -0.464898    33A     -0.407192
      34A     -0.373437    35A     -0.311131

    Virtual:

      36A      0.160116    37A      0.181450    38A      0.192302
      39A      0.196834    40A      0.217610    41A      0.221356
      42A      0.226569    43A      0.236389    44A      0.246969
      45A      0.253438    46A      0.277624    47A      0.283080
      48A      0.288096    49A      0.297076    50A      0.304241
      51A      0.318059    52A      0.362897    53A      0.385773
      54A      0.395109    55A      0.413140    56A      0.417714
      57A      0.474501    58A      0.502785    59A      0.574934
      60A      0.595245    61A      0.603271    62A      0.611459
      63A      0.613753    64A      0.619409    65A      0.631670
      66A      0.663443    67A      0.677632    68A      0.699064
      69A      0.707862    70A      0.747676    71A      0.775557
      72A      0.780905    73A      0.793164    74A      0.808349
      75A      0.812984    76A      0.838349    77A      0.842927
      78A      0.868540    79A      0.874532    80A      0.883637
      81A      0.891374    82A      0.893236    83A      0.900845
      84A      0.904396    85A      0.911800    86A      0.912476
      87A      0.927240    88A      0.933891    89A      0.942697
      90A      0.957015    91A      0.968334    92A      0.975377
      93A      1.001095    94A      1.030279    95A      1.078912
      96A      1.100954    97A      1.114254    98A      1.120381
      99A      1.125834   100A      1.130057   101A      1.154265
     102A      1.178900   103A      1.232032   104A      1.260864
     105A      1.269565   106A      1.313509   107A      1.331343
     108A      1.337126   109A      1.387219   110A      1.423384
     111A      1.440419   112A      1.467232   113A      1.487399
     114A      1.495094   115A      1.514885   116A      1.535926
     117A      1.569656   118A      1.605130   119A      1.625036
     120A      1.636590   121A      1.664851   122A      1.681154
     123A      1.684691   124A      1.698715   125A      1.710047
     126A      1.771950   127A      1.812048   128A      1.818609
     129A      1.846354   130A      1.860790   131A      1.861505
     132A      1.881623   133A      1.894259   134A      1.897822
     135A      1.918996   136A      1.925582   137A      1.942265
     138A      1.949784   139A      1.954023   140A      1.962519
     141A      1.971886   142A      1.976496   143A      1.983650
     144A      1.987367   145A      1.999629   146A      2.011275
     147A      2.031937   148A      2.050901   149A      2.083590
     150A      2.115533   151A      2.127609   152A      2.138620
     153A      2.150593   154A      2.171893   155A      2.199438
     156A      2.229262   157A      2.259560   158A      2.290928
     159A      2.310858   160A      2.319397   161A      2.344845
     162A      2.351471   163A      2.402588   164A      2.438630
     165A      2.446171   166A      2.482410   167A      2.486677
     168A      2.524302   169A      2.542765   170A      2.575310
     171A      2.595961   172A      2.612693   173A      2.635944
     174A      2.693037   175A      2.733199   176A      2.740524
     177A      2.747042   178A      2.765441   179A      2.780761
     180A      2.783277   181A      2.791662   182A      2.807945
     183A      2.819237   184A      2.871447   185A      2.886195
     186A      2.895848   187A      2.901276   188A      2.952259
     189A      2.954633   190A      2.959733   191A      3.064959
     192A      3.069399   193A      3.160773   194A      3.230705
     195A      3.466079   196A      3.791476

    Final Occupation by Irrep:
              A
    DOCC [    35 ]

  @RHF Final Energy:  -382.13840206465574

   => Energetics <=

    Nuclear Repulsion Energy =            424.8709809169292271
    One-Electron Energy =               -1358.7896832086412360
    Two-Electron Energy =                 551.7803002270561592
    Total Energy =                       -382.1384020646557929

Computation Completed

Properties will be evaluated at   0.000000,   0.000000,   0.000000 [a0]

Properties computed using the SCF density matrix

  Nuclear Dipole Moment: [e a0]
     X:    -9.2371      Y:     3.6836      Z:   -12.3481

  Electronic Dipole Moment: [e a0]
     X:     9.6097      Y:    -3.7051      Z:    11.0992

  Dipole Moment: [e a0]
     X:     0.3726      Y:    -0.0215      Z:    -1.2489     Total:     1.3034

  Dipole Moment: [D]
     X:     0.9470      Y:    -0.0547      Z:    -3.1743     Total:     3.3130

*** tstop() called on ds3 at Tue Apr 28 07:46:30 2020
Module time:
	user time   =      58.01 seconds =       0.97 minutes
	system time =      28.99 seconds =       0.48 minutes
	total time  =         84 seconds =       1.40 minutes
Total time:
	user time   =      58.01 seconds =       0.97 minutes
	system time =      28.99 seconds =       0.48 minutes
	total time  =         84 seconds =       1.40 minutes
                                     G D M A

                                 by Anthony Stone

                           version 2.2.06, 22 June 2011

               Distributed Multipoles from Gaussian wavefunctions

Starting at 7:46:30 on 28 Apr 2020

Using SCF density matrix from file ./SSI/SSI-026GLN-065HIE-1-dimer.test.6732.fchk

                         Distributed Multipole Analysis

Standard DMA

Positions and radii in angstrom
Multipole moments in atomic units, ea_0^k for rank k

C          x = -1.356222  y =  0.398833  z = -2.347244 angstrom
           Maximum rank =  0   Radius =  0.650 angstrom
                   Q00  =  -0.077533

C          x = -1.171222  y =  0.581833  z = -3.876244 angstrom
           Maximum rank =  0   Radius =  0.650 angstrom
                   Q00  =  -0.224932

C          x = -2.439222  y = -0.628167  z = -2.004244 angstrom
           Maximum rank =  0   Radius =  0.650 angstrom
                   Q00  =  -0.241153

H          x = -0.410222  y =  0.070833  z = -1.919244 angstrom
           Maximum rank =  0   Radius =  0.325 angstrom
                   Q00  =   0.032154

H          x = -1.624222  y =  1.354833  z = -1.897244 angstrom
           Maximum rank =  0   Radius =  0.325 angstrom
                   Q00  =   0.049837

H          x = -2.149222  y =  0.859833  z = -4.270244 angstrom
           Maximum rank =  0   Radius =  0.325 angstrom
                   Q00  =   0.076993

H          x = -3.408222  y = -0.283167  z = -2.369244 angstrom
           Maximum rank =  0   Radius =  0.325 angstrom
                   Q00  =   0.078082

H          x = -2.212222  y = -1.587168  z = -2.469244 angstrom
           Maximum rank =  0   Radius =  0.325 angstrom
                   Q00  =   0.073591

H          x = -0.825572  y = -0.355617  z = -4.336364 angstrom
           Maximum rank =  0   Radius =  0.325 angstrom
                   Q00  =   0.069318

H          x = -0.516092  y =  1.451173  z = -4.034504 angstrom
           Maximum rank =  0   Radius =  0.325 angstrom
                   Q00  =   0.069374

H          x = -2.474472  y = -0.767717  z = -0.913702 angstrom
           Maximum rank =  0   Radius =  0.325 angstrom
                   Q00  =   0.090587

C          x = -0.115222  y =  1.564833  z =  2.612756 angstrom
           Maximum rank =  0   Radius =  0.650 angstrom
                   Q00  =  -0.185911

C          x =  0.943778  y =  0.476833  z =  0.507756 angstrom
           Maximum rank =  0   Radius =  0.650 angstrom
                   Q00  =   0.006921

C          x =  0.569778  y =  0.487833  z =  1.807756 angstrom
           Maximum rank =  0   Radius =  0.650 angstrom
                   Q00  =   0.219469

C          x =  1.522778  y = -1.463168  z =  1.372756 angstrom
           Maximum rank =  0   Radius =  0.650 angstrom
                   Q00  =   0.466256

N          x =  1.520778  y = -0.750167  z =  0.260756 angstrom
           Maximum rank =  0   Radius =  0.650 angstrom
                   Q00  =  -0.487961

N          x =  0.940778  y = -0.748167  z =  2.337756 angstrom
           Maximum rank =  0   Radius =  0.650 angstrom
                   Q00  =  -0.777983

H          x =  0.810778  y =  1.283833  z = -0.199244 angstrom
           Maximum rank =  0   Radius =  0.325 angstrom
                   Q00  =   0.103501

H          x =  1.913778  y = -1.073167  z = -0.624244 angstrom
           Maximum rank =  0   Radius =  0.325 angstrom
                   Q00  =   0.219730

H          x = -1.016222  y =  1.135833  z =  3.051756 angstrom
           Maximum rank =  0   Radius =  0.325 angstrom
                   Q00  =   0.112888

H          x = -0.398222  y =  2.364833  z =  1.935756 angstrom
           Maximum rank =  0   Radius =  0.325 angstrom
                   Q00  =   0.092732

H          x =  1.920778  y = -2.468167  z =  1.471756 angstrom
           Maximum rank =  0   Radius =  0.325 angstrom
                   Q00  =   0.124371

H          x =  0.543708  y =  1.938493  z =  3.410371 angstrom
           Maximum rank =  0   Radius =  0.325 angstrom
                   Q00  =   0.109667

Total multipoles referred to origin at
           x =   0.000000,  y =    0.000000,  z =    0.000000 angstrom
                   Q00  =  -0.000000

Finished at 7:46:30 on 28 Apr 2020

  DMA results are available in the Python driver through the
	  variable('DMA DISTRIBUTED MULTIPOLES')
  and
	  variable('DMA TOTAL MULTIPOLES')
  commands.

    Psi4 stopped on: Tuesday, 28 April 2020 07:46AM
    Psi4 wall time for execution: 0:01:24.41

*** Psi4 exiting successfully. Buy a developer a beer!
