                               Psi4 1.3.2 release

  ==> Input File <==

--------------------------------------------------------------------------
import numpy as np
set {scf_type pk
basis cc-pvdz
d_convergence 10
gdma_switch   0
gdma_limit    0
gdma_origin   [ 0.0,  0.0,  0.0 ]
}
molecule test {
    units Angstrom
    0 1
    --
    0 1
    C                0.210613074000435    -0.921787113013335    -0.947316343041306
    C                1.202613074000435    -1.689787113013334    -0.053316343041306
    C                0.834613074000435     0.340212886986665    -1.523316343041306
    O               -0.258386925999565    -1.743787113013335    -2.016316343041306
    H               -0.641386925999565    -0.624787113013335    -0.335316343041306
    H                1.523613074000435    -1.020787113013335     0.746683656958694
    H                1.557613074000435     0.041212886986665    -2.269316343041306
    H                0.068613074000435     0.965212886986665    -1.985316343041306
    H                1.330613074000435     0.912212886986665    -0.737316343041306
    H               -0.706386925999565    -1.134787113013334    -2.604316343041306
    H                2.069563074000436    -2.066392113013335    -0.615916343041306
    H                0.639373074000435    -2.519330113013334     0.398983656958694
    C               -0.880386925999565     1.570212886986666     1.710683656958694
    C               -1.038386925999565     2.468212886986665     2.944683656958694
    H               -0.296386925999565     2.075212886986666     0.940683656958694
    H               -0.354386925999565     0.660212886986665     1.999683656958694
    H               -1.858386925999565     1.296212886986666     1.311683656958694
    H               -0.041386925999565     2.683212886986665     3.326683656958694
    H               -1.523966925999565     3.425262886986665     2.703283656958694
    H               -1.584436925999565     1.942363886986666     3.741783656958694

}
e, wfn = energy('scf', return_wfn=True)
gdma(wfn)
dmavals = variable('DMA DISTRIBUTED MULTIPOLES')
charges = np.array(dmavals)
print(charges)
np.save('SSI-109THR-131VAL-1-dimer.npy', np.array(charges))--------------------------------------------------------------------------

*** tstart() called on ds3
*** at Tue Apr 28 11:08:15 2020

   => Loading Basis Set <=

    Name: CC-PVDZ
    Role: ORBITAL
    Keyword: BASIS
    atoms 1-3, 13-14  entry C          line   138 file /theoryfs2/ds/metcalf/miniconda2/envs/tf2gpu/share/psi4/basis/cc-pvdz.gbs
    atoms 4           entry O          line   198 file /theoryfs2/ds/metcalf/miniconda2/envs/tf2gpu/share/psi4/basis/cc-pvdz.gbs
    atoms 5-12, 15-20 entry H          line    22 file /theoryfs2/ds/metcalf/miniconda2/envs/tf2gpu/share/psi4/basis/cc-pvdz.gbs

         ---------------------------------------------------------
                                   SCF
               by Justin Turney, Rob Parrish, Andy Simmonett
                          and Daniel G. A. Smith
                              RHF Reference
                        1 Threads,    500 MiB Core
         ---------------------------------------------------------

  ==> Geometry <==

    Molecular point group: c1
    Full point group: C1

    Geometry (in Angstrom), charge = 0, multiplicity = 1:

       Center              X                  Y                   Z               Mass
    ------------   -----------------  -----------------  -----------------  -----------------
         C            0.210613074000    -0.921787113013    -0.947316343041    12.000000000000
         C            1.202613074000    -1.689787113013    -0.053316343041    12.000000000000
         C            0.834613074000     0.340212886987    -1.523316343041    12.000000000000
         O           -0.258386926000    -1.743787113013    -2.016316343041    15.994914619570
         H           -0.641386926000    -0.624787113013    -0.335316343041     1.007825032230
         H            1.523613074000    -1.020787113013     0.746683656959     1.007825032230
         H            1.557613074000     0.041212886987    -2.269316343041     1.007825032230
         H            0.068613074000     0.965212886987    -1.985316343041     1.007825032230
         H            1.330613074000     0.912212886987    -0.737316343041     1.007825032230
         H           -0.706386926000    -1.134787113013    -2.604316343041     1.007825032230
         H            2.069563074000    -2.066392113013    -0.615916343041     1.007825032230
         H            0.639373074000    -2.519330113013     0.398983656959     1.007825032230
         C           -0.880386926000     1.570212886987     1.710683656959    12.000000000000
         C           -1.038386926000     2.468212886987     2.944683656959    12.000000000000
         H           -0.296386926000     2.075212886987     0.940683656959     1.007825032230
         H           -0.354386926000     0.660212886987     1.999683656959     1.007825032230
         H           -1.858386926000     1.296212886987     1.311683656959     1.007825032230
         H           -0.041386926000     2.683212886987     3.326683656959     1.007825032230
         H           -1.523966926000     3.425262886987     2.703283656959     1.007825032230
         H           -1.584436926000     1.942363886987     3.741783656959     1.007825032230

  Running in c1 symmetry.

  Rotational constants: A =      0.17150  B =      0.03052  C =      0.02940 [cm^-1]
  Rotational constants: A =   5141.33825  B =    915.06983  C =    881.36371 [MHz]
  Nuclear repulsion =  244.278583197850253

  Charge       = 0
  Multiplicity = 1
  Electrons    = 52
  Nalpha       = 26
  Nbeta        = 26

  ==> Algorithm <==

  SCF Algorithm Type is PK.
  DIIS enabled.
  MOM disabled.
  Fractional occupation disabled.
  Guess Type is SAD.
  Energy threshold   = 1.00e-06
  Density threshold  = 1.00e-10
  Integral threshold = 0.00e+00

  ==> Primary Basis <==

  Basis Set: CC-PVDZ
    Blend: CC-PVDZ
    Number of shells: 78
    Number of basis function: 154
    Number of Cartesian functions: 160
    Spherical Harmonics?: true
    Max angular momentum: 2

  ==> Pre-Iterations <==

   -------------------------------------------------------
    Irrep   Nso     Nmo     Nalpha   Nbeta   Ndocc  Nsocc
   -------------------------------------------------------
     A        154     154       0       0       0       0
   -------------------------------------------------------
    Total     154     154      26      26      26       0
   -------------------------------------------------------

  ==> Integral Setup <==

  Using integral reordering PK algorithm.
  Sizing the integral batches needed.
  Building batch lookup table.
   Calculation information:
      Number of atoms:                  20
      Number of AO shells:              78
      Number of primitives:            202
      Number of atomic orbitals:       160
      Number of basis functions:       154

      Integral cutoff                 1.00e-12
      Number of threads:                 1

	Batch   1 pq = [       0,    9405] index = [             0,44231715] size =     44231715
	Batch   2 pq = [    9405,   11935] index = [      44231715,71228080] size =     26996365
  Task number: 7
  Buffer size: 11059200
  Buffer per thread: 2
  We computed 3968086 shell quartets total.
  Whereas there are 4747821 unique shell quartets.

  ==> DiskJK: Disk-Based J/K Matrices <==

    J tasked:                  Yes
    K tasked:                  Yes
    wK tasked:                  No
    Memory [MiB]:              375
    Schwarz Cutoff:          1E-12

    OpenMP threads:              1

  Minimum eigenvalue in the overlap matrix is 4.5313091620E-03.
  Using Symmetric Orthogonalization.

  SCF Guess: Superposition of Atomic Densities via on-the-fly atomic UHF.

  ==> Iterations <==

                        Total Energy        Delta E     RMS |[F,P]|

   @RHF iter SAD:  -271.09264796293917   -2.71093e+02   0.00000e+00
   @RHF iter   1:  -272.14502853456361   -1.05238e+00   3.86910e-03 DIIS
   @RHF iter   2:  -272.32780728869352   -1.82779e-01   1.74745e-03 DIIS
   @RHF iter   3:  -272.36063203434588   -3.28247e-02   3.48955e-04 DIIS
   @RHF iter   4:  -272.36309268543175   -2.46065e-03   1.15221e-04 DIIS
   @RHF iter   5:  -272.36326089860006   -1.68213e-04   2.22743e-05 DIIS
   @RHF iter   6:  -272.36327014957681   -9.25098e-06   4.68695e-06 DIIS
   @RHF iter   7:  -272.36327065220922   -5.02632e-07   1.36137e-06 DIIS
   @RHF iter   8:  -272.36327069162701   -3.94178e-08   3.87921e-07 DIIS
   @RHF iter   9:  -272.36327069627447   -4.64746e-09   9.58447e-08 DIIS
   @RHF iter  10:  -272.36327069657756   -3.03089e-10   2.75165e-08 DIIS
   @RHF iter  11:  -272.36327069659853   -2.09752e-11   8.34625e-09 DIIS
   @RHF iter  12:  -272.36327069660166   -3.12639e-12   2.59172e-09 DIIS
   @RHF iter  13:  -272.36327069660280   -1.13687e-12   6.87990e-10 DIIS
   @RHF iter  14:  -272.36327069660149    1.30740e-12   1.51613e-10 DIIS
   @RHF iter  15:  -272.36327069660103    4.54747e-13   5.30399e-11 DIIS
  Energy and wave function converged.

  ==> Post-Iterations <==

    Orbital Energies [Eh]
    ---------------------

    Doubly Occupied:

       1A    -20.545936     2A    -11.275827     3A    -11.223929
       4A    -11.223328     5A    -11.221044     6A    -11.219880
       7A     -1.353437     8A     -1.039903     9A     -1.021548
      10A     -0.937653    11A     -0.842992    12A     -0.794883
      13A     -0.683675    14A     -0.627063    15A     -0.605386
      16A     -0.602343    17A     -0.600172    18A     -0.549324
      19A     -0.532601    20A     -0.526773    21A     -0.508652
      22A     -0.505267    23A     -0.492374    24A     -0.488609
      25A     -0.461769    26A     -0.427244

    Virtual:

      27A      0.164052    28A      0.190460    29A      0.210638
      30A      0.219825    31A      0.228424    32A      0.237293
      33A      0.258026    34A      0.265312    35A      0.273912
      36A      0.278395    37A      0.289375    38A      0.292725
      39A      0.312315    40A      0.337954    41A      0.368364
      42A      0.388378    43A      0.421055    44A      0.437051
      45A      0.572212    46A      0.590779    47A      0.593506
      48A      0.608443    49A      0.657822    50A      0.659667
      51A      0.676634    52A      0.685429    53A      0.699695
      54A      0.754559    55A      0.771109    56A      0.791959
      57A      0.816145    58A      0.838707    59A      0.867088
      60A      0.879477    61A      0.886752    62A      0.889256
      63A      0.891127    64A      0.897119    65A      0.904948
      66A      0.912518    67A      0.916562    68A      0.929971
      69A      0.951120    70A      0.953877    71A      0.979325
      72A      0.989494    73A      1.023651    74A      1.122911
      75A      1.127273    76A      1.130441    77A      1.146186
      78A      1.164634    79A      1.241024    80A      1.268088
      81A      1.338816    82A      1.373328    83A      1.408050
      84A      1.459072    85A      1.470899    86A      1.487502
      87A      1.509705    88A      1.555433    89A      1.580211
      90A      1.626967    91A      1.670618    92A      1.678412
      93A      1.682192    94A      1.689917    95A      1.696588
      96A      1.728511    97A      1.826536    98A      1.840057
      99A      1.860167   100A      1.863408   101A      1.871995
     102A      1.888263   103A      1.903850   104A      1.913851
     105A      1.934778   106A      1.941277   107A      1.946406
     108A      1.957695   109A      1.961719   110A      1.981991
     111A      2.002358   112A      2.009747   113A      2.014597
     114A      2.060339   115A      2.077644   116A      2.081912
     117A      2.113642   118A      2.143329   119A      2.148530
     120A      2.240867   121A      2.256380   122A      2.279346
     123A      2.290980   124A      2.298834   125A      2.353956
     126A      2.374855   127A      2.446843   128A      2.456139
     129A      2.464816   130A      2.509099   131A      2.535333
     132A      2.543815   133A      2.551243   134A      2.565195
     135A      2.605988   136A      2.665554   137A      2.755082
     138A      2.762734   139A      2.769119   140A      2.781125
     141A      2.809906   142A      2.824173   143A      2.842913
     144A      2.864536   145A      2.892753   146A      2.902516
     147A      2.948779   148A      2.952903   149A      3.009593
     150A      3.335720   151A      3.412257   152A      3.499644
     153A      3.655360   154A      4.134264

    Final Occupation by Irrep:
              A
    DOCC [    26 ]

  @RHF Final Energy:  -272.36327069660103

   => Energetics <=

    Nuclear Repulsion Energy =            244.2785831978502529
    One-Electron Energy =                -852.6604885912953478
    Two-Electron Energy =                 336.0186346968440603
    Total Energy =                       -272.3632706966010346

Computation Completed

Properties will be evaluated at   0.000000,   0.000000,   0.000000 [a0]

Properties computed using the SCF density matrix

  Nuclear Dipole Moment: [e a0]
     X:     0.1700      Y:     6.2118      Z:     6.1982

  Electronic Dipole Moment: [e a0]
     X:    -0.2220      Y:    -5.5163      Z:    -6.0700

  Dipole Moment: [e a0]
     X:    -0.0520      Y:     0.6955      Z:     0.1282     Total:     0.7091

  Dipole Moment: [D]
     X:    -0.1323      Y:     1.7677      Z:     0.3259     Total:     1.8024

*** tstop() called on ds3 at Tue Apr 28 11:08:45 2020
Module time:
	user time   =      20.96 seconds =       0.35 minutes
	system time =       8.99 seconds =       0.15 minutes
	total time  =         30 seconds =       0.50 minutes
Total time:
	user time   =      20.96 seconds =       0.35 minutes
	system time =       8.99 seconds =       0.15 minutes
	total time  =         30 seconds =       0.50 minutes
                                     G D M A

                                 by Anthony Stone

                           version 2.2.06, 22 June 2011

               Distributed Multipoles from Gaussian wavefunctions

Starting at 11:8:45 on 28 Apr 2020

Using SCF density matrix from file ./SSI/SSI-109THR-131VAL-1-dimer.test.30112.fchk

                         Distributed Multipole Analysis

Standard DMA

Positions and radii in angstrom
Multipole moments in atomic units, ea_0^k for rank k

C          x =  0.210613  y = -0.921787  z = -0.947316 angstrom
           Maximum rank =  0   Radius =  0.650 angstrom
                   Q00  =   0.136631

C          x =  1.202613  y = -1.689787  z = -0.053316 angstrom
           Maximum rank =  0   Radius =  0.650 angstrom
                   Q00  =  -0.258348

C          x =  0.834613  y =  0.340213  z = -1.523316 angstrom
           Maximum rank =  0   Radius =  0.650 angstrom
                   Q00  =  -0.245932

O          x = -0.258387  y = -1.743787  z = -2.016316 angstrom
           Maximum rank =  0   Radius =  0.650 angstrom
                   Q00  =  -0.542889

H          x = -0.641387  y = -0.624787  z = -0.335316 angstrom
           Maximum rank =  0   Radius =  0.325 angstrom
                   Q00  =   0.012596

H          x =  1.523613  y = -1.020787  z =  0.746684 angstrom
           Maximum rank =  0   Radius =  0.325 angstrom
                   Q00  =   0.082630

H          x =  1.557613  y =  0.041213  z = -2.269316 angstrom
           Maximum rank =  0   Radius =  0.325 angstrom
                   Q00  =   0.086161

H          x =  0.068613  y =  0.965213  z = -1.985316 angstrom
           Maximum rank =  0   Radius =  0.325 angstrom
                   Q00  =   0.073203

H          x =  1.330613  y =  0.912213  z = -0.737316 angstrom
           Maximum rank =  0   Radius =  0.325 angstrom
                   Q00  =   0.087462

H          x = -0.706387  y = -1.134787  z = -2.604316 angstrom
           Maximum rank =  0   Radius =  0.325 angstrom
                   Q00  =   0.378167

H          x =  2.069563  y = -2.066392  z = -0.615916 angstrom
           Maximum rank =  0   Radius =  0.325 angstrom
                   Q00  =   0.094611

H          x =  0.639373  y = -2.519330  z =  0.398984 angstrom
           Maximum rank =  0   Radius =  0.325 angstrom
                   Q00  =   0.094499

C          x = -0.880387  y =  1.570213  z =  1.710684 angstrom
           Maximum rank =  0   Radius =  0.650 angstrom
                   Q00  =  -0.247469

C          x = -1.038387  y =  2.468213  z =  2.944684 angstrom
           Maximum rank =  0   Radius =  0.650 angstrom
                   Q00  =  -0.235217

H          x = -0.296387  y =  2.075213  z =  0.940684 angstrom
           Maximum rank =  0   Radius =  0.325 angstrom
                   Q00  =   0.081464

H          x = -0.354387  y =  0.660213  z =  1.999684 angstrom
           Maximum rank =  0   Radius =  0.325 angstrom
                   Q00  =   0.078824

H          x = -1.858387  y =  1.296213  z =  1.311684 angstrom
           Maximum rank =  0   Radius =  0.325 angstrom
                   Q00  =   0.079953

H          x = -0.041387  y =  2.683213  z =  3.326684 angstrom
           Maximum rank =  0   Radius =  0.325 angstrom
                   Q00  =   0.078315

H          x = -1.523967  y =  3.425263  z =  2.703284 angstrom
           Maximum rank =  0   Radius =  0.325 angstrom
                   Q00  =   0.083180

H          x = -1.584437  y =  1.942364  z =  3.741784 angstrom
           Maximum rank =  0   Radius =  0.325 angstrom
                   Q00  =   0.082158

Total multipoles referred to origin at
           x =   0.000000,  y =    0.000000,  z =    0.000000 angstrom
                   Q00  =  -0.000000

Finished at 11:8:45 on 28 Apr 2020

  DMA results are available in the Python driver through the
	  variable('DMA DISTRIBUTED MULTIPOLES')
  and
	  variable('DMA TOTAL MULTIPOLES')
  commands.

    Psi4 stopped on: Tuesday, 28 April 2020 11:08AM
    Psi4 wall time for execution: 0:00:29.82

*** Psi4 exiting successfully. Buy a developer a beer!
