                               Psi4 1.3.2 release

  ==> Input File <==

--------------------------------------------------------------------------
import numpy as np
set {scf_type pk
basis cc-pvdz
d_convergence 10
gdma_switch   0
gdma_limit    0
gdma_origin   [ 0.0,  0.0,  0.0 ]
}
molecule test {
    units Angstrom
    1 1
    --
    1 1
    C               -1.723688555058385    -1.302805397001665    -1.702586905931997
    C               -2.512688555058384    -1.893805397001665    -0.495586905931997
    H               -1.922688555058385    -1.877805397001665    -2.608586905931997
    H               -2.030688555058385    -0.269805397001665    -1.867586905931997
    H               -0.659688555058385    -1.313805397001665    -1.487586905931997
    H               -2.247688555058385    -1.368805397001665     0.421413094068003
    H               -2.273388555058385    -2.964615397001665    -0.417476905931997
    H               -3.586438555058384    -1.783293397001665    -0.707346905931997
    C                0.365311444941615     2.550194602998334     0.159413094068003
    C                0.965311444941615     0.171194602998335     0.511413094068003
    N                1.028311444941615     1.291194602998335    -0.185586905931997
    N                0.386311444941615     0.162194602998335     1.704413094068003
    N                1.548311444941615    -0.904805397001665     0.007413094068003
    H                1.416311444941615     1.212194602998335    -1.127586905931997
    H                0.015311444941615     1.017194602998335     2.080413094068004
    H                0.430311444941615    -0.664805397001665     2.279413094068003
    H                2.076311444941615    -0.803805397001665    -0.862586905931997
    H                1.618311444941615    -1.753805397001665     0.542413094068003
    H                0.942311444941615     3.389194602998335    -0.228586905931997
    H                0.296311444941615     2.682194602998335     1.240413094068003
    H               -0.644328555058385     2.535934602998335    -0.276956905931997

}
e, wfn = energy('scf', return_wfn=True)
gdma(wfn)
dmavals = variable('DMA DISTRIBUTED MULTIPOLES')
charges = np.array(dmavals)
print(charges)
np.save('SSI-168LEU-211ARG-1-dimer.npy', np.array(charges))--------------------------------------------------------------------------

*** tstart() called on ds3
*** at Tue Apr 28 08:58:44 2020

   => Loading Basis Set <=

    Name: CC-PVDZ
    Role: ORBITAL
    Keyword: BASIS
    atoms 1-2, 9-10  entry C          line   138 file /theoryfs2/ds/metcalf/miniconda2/envs/tf2gpu/share/psi4/basis/cc-pvdz.gbs
    atoms 3-8, 14-21 entry H          line    22 file /theoryfs2/ds/metcalf/miniconda2/envs/tf2gpu/share/psi4/basis/cc-pvdz.gbs
    atoms 11-13      entry N          line   168 file /theoryfs2/ds/metcalf/miniconda2/envs/tf2gpu/share/psi4/basis/cc-pvdz.gbs

         ---------------------------------------------------------
                                   SCF
               by Justin Turney, Rob Parrish, Andy Simmonett
                          and Daniel G. A. Smith
                              RHF Reference
                        1 Threads,    500 MiB Core
         ---------------------------------------------------------

  ==> Geometry <==

    Molecular point group: c1
    Full point group: C1

    Geometry (in Angstrom), charge = 1, multiplicity = 1:

       Center              X                  Y                   Z               Mass
    ------------   -----------------  -----------------  -----------------  -----------------
         C           -1.723688555058    -1.302805397002    -1.702586905932    12.000000000000
         C           -2.512688555058    -1.893805397002    -0.495586905932    12.000000000000
         H           -1.922688555058    -1.877805397002    -2.608586905932     1.007825032230
         H           -2.030688555058    -0.269805397002    -1.867586905932     1.007825032230
         H           -0.659688555058    -1.313805397002    -1.487586905932     1.007825032230
         H           -2.247688555058    -1.368805397002     0.421413094068     1.007825032230
         H           -2.273388555058    -2.964615397002    -0.417476905932     1.007825032230
         H           -3.586438555058    -1.783293397002    -0.707346905932     1.007825032230
         C            0.365311444942     2.550194602998     0.159413094068    12.000000000000
         C            0.965311444942     0.171194602998     0.511413094068    12.000000000000
         N            1.028311444942     1.291194602998    -0.185586905932    14.003074004430
         N            0.386311444942     0.162194602998     1.704413094068    14.003074004430
         N            1.548311444942    -0.904805397002     0.007413094068    14.003074004430
         H            1.416311444942     1.212194602998    -1.127586905932     1.007825032230
         H            0.015311444942     1.017194602998     2.080413094068     1.007825032230
         H            0.430311444942    -0.664805397002     2.279413094068     1.007825032230
         H            2.076311444942    -0.803805397002    -0.862586905932     1.007825032230
         H            1.618311444942    -1.753805397002     0.542413094068     1.007825032230
         H            0.942311444942     3.389194602998    -0.228586905932     1.007825032230
         H            0.296311444942     2.682194602998     1.240413094068     1.007825032230
         H           -0.644328555058     2.535934602998    -0.276956905932     1.007825032230

  Running in c1 symmetry.

  Rotational constants: A =      0.09238  B =      0.03807  C =      0.03484 [cm^-1]
  Rotational constants: A =   2769.47212  B =   1141.44291  C =   1044.35679 [MHz]
  Nuclear repulsion =  325.871376855673475

  Charge       = 1
  Multiplicity = 1
  Electrons    = 58
  Nalpha       = 29
  Nbeta        = 29

  ==> Algorithm <==

  SCF Algorithm Type is PK.
  DIIS enabled.
  MOM disabled.
  Fractional occupation disabled.
  Guess Type is SAD.
  Energy threshold   = 1.00e-06
  Density threshold  = 1.00e-10
  Integral threshold = 0.00e+00

  ==> Primary Basis <==

  Basis Set: CC-PVDZ
    Blend: CC-PVDZ
    Number of shells: 84
    Number of basis function: 168
    Number of Cartesian functions: 175
    Spherical Harmonics?: true
    Max angular momentum: 2

  ==> Pre-Iterations <==

   -------------------------------------------------------
    Irrep   Nso     Nmo     Nalpha   Nbeta   Ndocc  Nsocc
   -------------------------------------------------------
     A        168     168       0       0       0       0
   -------------------------------------------------------
    Total     168     168      29      29      29       0
   -------------------------------------------------------

  ==> Integral Setup <==

  Using integral reordering PK algorithm.
  Sizing the integral batches needed.
  Building batch lookup table.
   Calculation information:
      Number of atoms:                  21
      Number of AO shells:              84
      Number of primitives:            224
      Number of atomic orbitals:       175
      Number of basis functions:       168

      Integral cutoff                 1.00e-12
      Number of threads:                 1

	Batch   1 pq = [       0,    9405] index = [             0,44231715] size =     44231715
	Batch   2 pq = [    9405,   13301] index = [      44231715,88464951] size =     44233236
	Batch   3 pq = [   13301,   14196] index = [      88464951,100770306] size =     12305355
  Task number: 10
  Buffer size: 11059200
  Buffer per thread: 2
  We computed 6127072 shell quartets total.
  Whereas there are 6374235 unique shell quartets.

  ==> DiskJK: Disk-Based J/K Matrices <==

    J tasked:                  Yes
    K tasked:                  Yes
    wK tasked:                  No
    Memory [MiB]:              375
    Schwarz Cutoff:          1E-12

    OpenMP threads:              1

  Minimum eigenvalue in the overlap matrix is 3.4517818832E-03.
  Using Symmetric Orthogonalization.

  SCF Guess: Superposition of Atomic Densities via on-the-fly atomic UHF.

  ==> Iterations <==

                        Total Energy        Delta E     RMS |[F,P]|

   @RHF iter SAD:  -322.06484626132476   -3.22065e+02   0.00000e+00
   @RHF iter   1:  -322.61636945884243   -5.51523e-01   3.39206e-03 DIIS
   @RHF iter   2:  -322.78636704658925   -1.69998e-01   1.32648e-03 DIIS
   @RHF iter   3:  -322.81102655373820   -2.46595e-02   3.19480e-04 DIIS
   @RHF iter   4:  -322.81341308063855   -2.38653e-03   5.08969e-05 DIIS
   @RHF iter   5:  -322.81347643307924   -6.33524e-05   2.09389e-05 DIIS
   @RHF iter   6:  -322.81348533737241   -8.90429e-06   4.30167e-06 DIIS
   @RHF iter   7:  -322.81348597847017   -6.41098e-07   1.40142e-06 DIIS
   @RHF iter   8:  -322.81348602527629   -4.68061e-08   4.25513e-07 DIIS
   @RHF iter   9:  -322.81348602962044   -4.34414e-09   9.82639e-08 DIIS
   @RHF iter  10:  -322.81348602988800   -2.67562e-10   2.77575e-08 DIIS
   @RHF iter  11:  -322.81348602990988   -2.18847e-11   7.81509e-09 DIIS
   @RHF iter  12:  -322.81348602991096   -1.08002e-12   2.43229e-09 DIIS
   @RHF iter  13:  -322.81348602991181   -8.52651e-13   8.32763e-10 DIIS
   @RHF iter  14:  -322.81348602991159    2.27374e-13   2.52709e-10 DIIS
   @RHF iter  15:  -322.81348602991227   -6.82121e-13   8.52479e-11 DIIS
  Energy and wave function converged.

  ==> Post-Iterations <==

    Orbital Energies [Eh]
    ---------------------

    Doubly Occupied:

       1A    -15.791697     2A    -15.790334     3A    -15.788699
       4A    -11.591938     5A    -11.444846     6A    -11.329029
       7A    -11.327533     8A     -1.547128     9A     -1.401475
      10A     -1.395288    11A     -1.145640    12A     -1.120796
      13A     -1.037257    14A     -0.977421    15A     -0.946881
      16A     -0.943095    17A     -0.860894    18A     -0.858874
      19A     -0.827783    20A     -0.794851    21A     -0.748300
      22A     -0.726824    23A     -0.706740    24A     -0.702760
      25A     -0.624356    26A     -0.601922    27A     -0.595894
      28A     -0.594317    29A     -0.585458

    Virtual:

      30A     -0.016031    31A      0.018691    32A      0.022100
      33A      0.029345    34A      0.059821    35A      0.068205
      36A      0.088126    37A      0.113601    38A      0.116624
      39A      0.139659    40A      0.148812    41A      0.161249
      42A      0.169686    43A      0.186707    44A      0.195056
      45A      0.198716    46A      0.274056    47A      0.287062
      48A      0.322467    49A      0.336500    50A      0.425539
      51A      0.437157    52A      0.484910    53A      0.490044
      54A      0.495961    55A      0.516468    56A      0.523658
      57A      0.536290    58A      0.551731    59A      0.562456
      60A      0.573609    61A      0.589004    62A      0.646197
      63A      0.679377    64A      0.694226    65A      0.696254
      66A      0.716104    67A      0.717827    68A      0.741291
      69A      0.752665    70A      0.763758    71A      0.772285
      72A      0.783184    73A      0.790348    74A      0.808236
      75A      0.818029    76A      0.843490    77A      0.853754
      78A      0.872231    79A      0.901144    80A      0.916528
      81A      0.932711    82A      0.957631    83A      0.999478
      84A      1.013346    85A      1.024277    86A      1.043772
      87A      1.100919    88A      1.131799    89A      1.156603
      90A      1.162491    91A      1.194432    92A      1.209388
      93A      1.245700    94A      1.284767    95A      1.361943
      96A      1.369237    97A      1.378939    98A      1.432364
      99A      1.471591   100A      1.496011   101A      1.527564
     102A      1.549332   103A      1.555430   104A      1.576904
     105A      1.612057   106A      1.619259   107A      1.647657
     108A      1.694304   109A      1.719216   110A      1.727761
     111A      1.740182   112A      1.743815   113A      1.759526
     114A      1.768740   115A      1.773323   116A      1.792001
     117A      1.795418   118A      1.812217   119A      1.833392
     120A      1.840464   121A      1.848562   122A      1.850145
     123A      1.860338   124A      1.868006   125A      1.888854
     126A      1.984079   127A      1.987417   128A      2.004866
     129A      2.012952   130A      2.040000   131A      2.123357
     132A      2.144975   133A      2.165336   134A      2.168420
     135A      2.201692   136A      2.237389   137A      2.246479
     138A      2.254827   139A      2.323563   140A      2.341936
     141A      2.342889   142A      2.360763   143A      2.368373
     144A      2.437288   145A      2.453962   146A      2.455413
     147A      2.470421   148A      2.513820   149A      2.580510
     150A      2.582109   151A      2.634046   152A      2.665289
     153A      2.687002   154A      2.715483   155A      2.735860
     156A      2.740420   157A      2.752331   158A      2.788819
     159A      2.803154   160A      2.826680   161A      2.855654
     162A      2.857790   163A      2.890792   164A      3.052283
     165A      3.090819   166A      3.122910   167A      3.561277
     168A      3.612620

    Final Occupation by Irrep:
              A
    DOCC [    29 ]

  @RHF Final Energy:  -322.81348602991227

   => Energetics <=

    Nuclear Repulsion Energy =            325.8713768556734749
    One-Electron Energy =               -1071.7536677012205928
    Two-Electron Energy =                 423.0688048156348486
    Total Energy =                       -322.8134860299122693

Computation Completed

Properties will be evaluated at   0.000000,   0.000000,   0.000000 [a0]

Properties computed using the SCF density matrix

  Nuclear Dipole Moment: [e a0]
     X:    -6.1675      Y:    -1.8426      Z:    -2.8358

  Electronic Dipole Moment: [e a0]
     X:     7.8676      Y:     2.4922      Z:     3.6937

  Dipole Moment: [e a0]
     X:     1.7000      Y:     0.6496      Z:     0.8579     Total:     2.0120

  Dipole Moment: [D]
     X:     4.3211      Y:     1.6511      Z:     2.1805     Total:     5.1139

*** tstop() called on ds3 at Tue Apr 28 08:59:36 2020
Module time:
	user time   =      39.50 seconds =       0.66 minutes
	system time =      14.22 seconds =       0.24 minutes
	total time  =         52 seconds =       0.87 minutes
Total time:
	user time   =      39.50 seconds =       0.66 minutes
	system time =      14.22 seconds =       0.24 minutes
	total time  =         52 seconds =       0.87 minutes
                                     G D M A

                                 by Anthony Stone

                           version 2.2.06, 22 June 2011

               Distributed Multipoles from Gaussian wavefunctions

Starting at 8:59:36 on 28 Apr 2020

Using SCF density matrix from file ./SSI/SSI-168LEU-211ARG-1-dimer.test.16831.fchk

                         Distributed Multipole Analysis

Standard DMA

Positions and radii in angstrom
Multipole moments in atomic units, ea_0^k for rank k

C          x = -1.723689  y = -1.302805  z = -1.702587 angstrom
           Maximum rank =  0   Radius =  0.650 angstrom
                   Q00  =  -0.264041

C          x = -2.512689  y = -1.893805  z = -0.495587 angstrom
           Maximum rank =  0   Radius =  0.650 angstrom
                   Q00  =  -0.225136

H          x = -1.922689  y = -1.877805  z = -2.608587 angstrom
           Maximum rank =  0   Radius =  0.325 angstrom
                   Q00  =   0.111469

H          x = -2.030689  y = -0.269805  z = -1.867587 angstrom
           Maximum rank =  0   Radius =  0.325 angstrom
                   Q00  =   0.076922

H          x = -0.659689  y = -1.313805  z = -1.487587 angstrom
           Maximum rank =  0   Radius =  0.325 angstrom
                   Q00  =   0.041900

H          x = -2.247689  y = -1.368805  z =  0.421413 angstrom
           Maximum rank =  0   Radius =  0.325 angstrom
                   Q00  =   0.056637

H          x = -2.273389  y = -2.964615  z = -0.417477 angstrom
           Maximum rank =  0   Radius =  0.325 angstrom
                   Q00  =   0.090378

H          x = -3.586439  y = -1.783293  z = -0.707347 angstrom
           Maximum rank =  0   Radius =  0.325 angstrom
                   Q00  =   0.107420

C          x =  0.365311  y =  2.550195  z =  0.159413 angstrom
           Maximum rank =  0   Radius =  0.650 angstrom
                   Q00  =  -0.124426

C          x =  0.965311  y =  0.171195  z =  0.511413 angstrom
           Maximum rank =  0   Radius =  0.650 angstrom
                   Q00  =   1.077445

N          x =  1.028311  y =  1.291195  z = -0.185587 angstrom
           Maximum rank =  0   Radius =  0.650 angstrom
                   Q00  =  -0.485171

N          x =  0.386311  y =  0.162195  z =  1.704413 angstrom
           Maximum rank =  0   Radius =  0.650 angstrom
                   Q00  =  -0.587877

N          x =  1.548311  y = -0.904805  z =  0.007413 angstrom
           Maximum rank =  0   Radius =  0.650 angstrom
                   Q00  =  -0.590715

H          x =  1.416311  y =  1.212195  z = -1.127587 angstrom
           Maximum rank =  0   Radius =  0.325 angstrom
                   Q00  =   0.232262

H          x =  0.015311  y =  1.017195  z =  2.080413 angstrom
           Maximum rank =  0   Radius =  0.325 angstrom
                   Q00  =   0.272052

H          x =  0.430311  y = -0.664805  z =  2.279413 angstrom
           Maximum rank =  0   Radius =  0.325 angstrom
                   Q00  =   0.269478

H          x =  2.076311  y = -0.803805  z = -0.862587 angstrom
           Maximum rank =  0   Radius =  0.325 angstrom
                   Q00  =   0.270221

H          x =  1.618311  y = -1.753805  z =  0.542413 angstrom
           Maximum rank =  0   Radius =  0.325 angstrom
                   Q00  =   0.269192

H          x =  0.942311  y =  3.389195  z = -0.228587 angstrom
           Maximum rank =  0   Radius =  0.325 angstrom
                   Q00  =   0.161368

H          x =  0.296311  y =  2.682195  z =  1.240413 angstrom
           Maximum rank =  0   Radius =  0.325 angstrom
                   Q00  =   0.113196

H          x = -0.644329  y =  2.535935  z = -0.276957 angstrom
           Maximum rank =  0   Radius =  0.325 angstrom
                   Q00  =   0.127424

Total multipoles referred to origin at
           x =   0.000000,  y =    0.000000,  z =    0.000000 angstrom
                   Q00  =   1.000000

Finished at 8:59:36 on 28 Apr 2020

  DMA results are available in the Python driver through the
	  variable('DMA DISTRIBUTED MULTIPOLES')
  and
	  variable('DMA TOTAL MULTIPOLES')
  commands.

    Psi4 stopped on: Tuesday, 28 April 2020 08:59AM
    Psi4 wall time for execution: 0:00:52.32

*** Psi4 exiting successfully. Buy a developer a beer!
