                               Psi4 1.3.2 release

  ==> Input File <==

--------------------------------------------------------------------------
import numpy as np
set {scf_type pk
basis cc-pvdz
d_convergence 10
gdma_switch   0
gdma_limit    0
gdma_origin   [ 0.0,  0.0,  0.0 ]
}
molecule test {
    units Angstrom
    0 1
    --
    0 1
    C               -0.118506489162223    -0.004874967192810     1.683697674987306
    C               -0.921506489162223    -0.468874967192810     2.882697674987306
    H                0.187493510837777     1.034125032807190     1.805697674987306
    H                0.763493510837777    -0.632874967192810     1.549697674987306
    H               -0.785506489162223    -0.086874967192810     0.836697674987306
    H               -0.416506489162223    -0.160874967192810     3.799697674987306
    H               -0.910506489162223    -1.557874967192810     2.849697674987306
    H               -1.962234489162223    -0.112664967192810     2.881267674987306
    C                0.156493510837777     0.577125032807190    -1.706302325012694
    C                0.882493510837777    -0.094874967192810    -2.860302325012694
    H               -0.056506489162223    -0.208874967192810    -1.000302325012694
    H                0.784493510837777     1.331125032807190    -1.235302325012694
    H               -0.776506489162223     1.020125032807190    -2.056302325012694
    H                0.893493510837777     0.593125032807190    -3.699302325012694
    H                0.361928270837777    -1.022554967192810    -3.140332325012694
    H                1.929080510837777    -0.297114967192810    -2.588722325012694

}
e, wfn = energy('scf', return_wfn=True)
gdma(wfn)
dmavals = variable('DMA DISTRIBUTED MULTIPOLES')
charges = np.array(dmavals)
print(charges)
np.save('SSI-032ILE-065LEU-1-dimer.npy', np.array(charges))--------------------------------------------------------------------------

*** tstart() called on ds3
*** at Tue Apr 28 01:36:31 2020

   => Loading Basis Set <=

    Name: CC-PVDZ
    Role: ORBITAL
    Keyword: BASIS
    atoms 1-2, 9-10  entry C          line   138 file /theoryfs2/ds/metcalf/miniconda2/envs/tf2gpu/share/psi4/basis/cc-pvdz.gbs
    atoms 3-8, 11-16 entry H          line    22 file /theoryfs2/ds/metcalf/miniconda2/envs/tf2gpu/share/psi4/basis/cc-pvdz.gbs

         ---------------------------------------------------------
                                   SCF
               by Justin Turney, Rob Parrish, Andy Simmonett
                          and Daniel G. A. Smith
                              RHF Reference
                        1 Threads,    500 MiB Core
         ---------------------------------------------------------

  ==> Geometry <==

    Molecular point group: c1
    Full point group: C1

    Geometry (in Angstrom), charge = 0, multiplicity = 1:

       Center              X                  Y                   Z               Mass
    ------------   -----------------  -----------------  -----------------  -----------------
         C           -0.118506489162    -0.004874967193     1.683697674987    12.000000000000
         C           -0.921506489162    -0.468874967193     2.882697674987    12.000000000000
         H            0.187493510838     1.034125032807     1.805697674987     1.007825032230
         H            0.763493510838    -0.632874967193     1.549697674987     1.007825032230
         H           -0.785506489162    -0.086874967193     0.836697674987     1.007825032230
         H           -0.416506489162    -0.160874967193     3.799697674987     1.007825032230
         H           -0.910506489162    -1.557874967193     2.849697674987     1.007825032230
         H           -1.962234489162    -0.112664967193     2.881267674987     1.007825032230
         C            0.156493510838     0.577125032807    -1.706302325013    12.000000000000
         C            0.882493510838    -0.094874967193    -2.860302325013    12.000000000000
         H           -0.056506489162    -0.208874967193    -1.000302325013     1.007825032230
         H            0.784493510838     1.331125032807    -1.235302325013     1.007825032230
         H           -0.776506489162     1.020125032807    -2.056302325013     1.007825032230
         H            0.893493510838     0.593125032807    -3.699302325013     1.007825032230
         H            0.361928270838    -1.022554967193    -3.140332325013     1.007825032230
         H            1.929080510838    -0.297114967193    -2.588722325013     1.007825032230

  Running in c1 symmetry.

  Rotational constants: A =      0.76111  B =      0.04484  C =      0.04442 [cm^-1]
  Rotational constants: A =  22817.38999  B =   1344.31926  C =   1331.63247 [MHz]
  Nuclear repulsion =  122.711841491233471

  Charge       = 0
  Multiplicity = 1
  Electrons    = 36
  Nalpha       = 18
  Nbeta        = 18

  ==> Algorithm <==

  SCF Algorithm Type is PK.
  DIIS enabled.
  MOM disabled.
  Fractional occupation disabled.
  Guess Type is SAD.
  Energy threshold   = 1.00e-06
  Density threshold  = 1.00e-10
  Integral threshold = 0.00e+00

  ==> Primary Basis <==

  Basis Set: CC-PVDZ
    Blend: CC-PVDZ
    Number of shells: 60
    Number of basis function: 116
    Number of Cartesian functions: 120
    Spherical Harmonics?: true
    Max angular momentum: 2

  ==> Pre-Iterations <==

   -------------------------------------------------------
    Irrep   Nso     Nmo     Nalpha   Nbeta   Ndocc  Nsocc
   -------------------------------------------------------
     A        116     116       0       0       0       0
   -------------------------------------------------------
    Total     116     116      18      18      18       0
   -------------------------------------------------------

  ==> Integral Setup <==

  Using integral reordering PK algorithm.
  Sizing the integral batches needed.
  Building batch lookup table.
   Calculation information:
      Number of atoms:                  16
      Number of AO shells:              60
      Number of primitives:            148
      Number of atomic orbitals:       120
      Number of basis functions:       116

      Integral cutoff                 1.00e-12
      Number of threads:                 1

	Batch   1 pq = [       0,    6786] index = [             0,23028291] size =     23028291
  Task number: 3
  Buffer size: 11059200
  Buffer per thread: 2
  We computed 1416534 shell quartets total.
  Whereas there are 1675365 unique shell quartets.

  ==> DiskJK: Disk-Based J/K Matrices <==

    J tasked:                  Yes
    K tasked:                  Yes
    wK tasked:                  No
    Memory [MiB]:              375
    Schwarz Cutoff:          1E-12

    OpenMP threads:              1

  Minimum eigenvalue in the overlap matrix is 5.9477670839E-03.
  Using Symmetric Orthogonalization.

  SCF Guess: Superposition of Atomic Densities via on-the-fly atomic UHF.

  ==> Iterations <==

                        Total Energy        Delta E     RMS |[F,P]|

   @RHF iter SAD:  -157.44300361629760   -1.57443e+02   0.00000e+00
   @RHF iter   1:  -158.29621272919883   -8.53209e-01   4.26313e-03 DIIS
   @RHF iter   2:  -158.43239698686736   -1.36184e-01   1.79825e-03 DIIS
   @RHF iter   3:  -158.45587068709409   -2.34737e-02   3.52940e-04 DIIS
   @RHF iter   4:  -158.45772591138714   -1.85522e-03   4.00355e-05 DIIS
   @RHF iter   5:  -158.45775123692576   -2.53255e-05   7.70853e-06 DIIS
   @RHF iter   6:  -158.45775205464756   -8.17722e-07   1.67355e-06 DIIS
   @RHF iter   7:  -158.45775208154453   -2.68970e-08   3.42826e-07 DIIS
   @RHF iter   8:  -158.45775208291059   -1.36606e-09   5.01097e-08 DIIS
   @RHF iter   9:  -158.45775208295512   -4.45368e-11   1.01969e-08 DIIS
   @RHF iter  10:  -158.45775208295672   -1.59162e-12   2.44595e-09 DIIS
   @RHF iter  11:  -158.45775208295709   -3.69482e-13   6.77060e-10 DIIS
   @RHF iter  12:  -158.45775208295689    1.98952e-13   1.88891e-10 DIIS
   @RHF iter  13:  -158.45775208295717   -2.84217e-13   2.78365e-11 DIIS
  Energy and wave function converged.

  ==> Post-Iterations <==

    Orbital Energies [Eh]
    ---------------------

    Doubly Occupied:

       1A    -11.215527     2A    -11.215104     3A    -11.212891
       4A    -11.210998     5A     -1.023606     6A     -1.019291
       7A     -0.839337     8A     -0.828340     9A     -0.608833
      10A     -0.601119    11A     -0.598981    12A     -0.595932
      13A     -0.506134    14A     -0.498580    15A     -0.493075
      16A     -0.485209    17A     -0.480468    18A     -0.464858

    Virtual:

      19A      0.178227    20A      0.195016    21A      0.226233
      22A      0.237360    23A      0.244569    24A      0.254620
      25A      0.260061    26A      0.283869    27A      0.285867
      28A      0.302619    29A      0.307676    30A      0.330360
      31A      0.390132    32A      0.406139    33A      0.566932
      34A      0.594327    35A      0.601303    36A      0.609899
      37A      0.611142    38A      0.644405    39A      0.675676
      40A      0.708017    41A      0.712276    42A      0.788292
      43A      0.859698    44A      0.882320    45A      0.887428
      46A      0.888867    47A      0.893520    48A      0.897025
      49A      0.905654    50A      0.914975    51A      0.919532
      52A      0.923710    53A      0.931109    54A      0.945600
      55A      0.973022    56A      1.000449    57A      1.111364
      58A      1.133703    59A      1.134517    60A      1.158152
      61A      1.228508    62A      1.259047    63A      1.477436
      64A      1.481455    65A      1.491594    66A      1.512958
      67A      1.577955    68A      1.601892    69A      1.679137
      70A      1.682450    71A      1.690531    72A      1.696922
      73A      1.852441    74A      1.856499    75A      1.868841
      76A      1.873744    77A      1.898449    78A      1.917774
      79A      1.925981    80A      1.931893    81A      1.942247
      82A      1.951233    83A      1.959701    84A      1.961137
      85A      1.975687    86A      1.988926    87A      2.024881
      88A      2.052407    89A      2.120573    90A      2.127896
      91A      2.169976    92A      2.203032    93A      2.287143
      94A      2.300591    95A      2.306766    96A      2.327439
      97A      2.430073    98A      2.454086    99A      2.472552
     100A      2.479813   101A      2.572508   102A      2.574324
     103A      2.595455   104A      2.636406   105A      2.769787
     106A      2.772457   107A      2.783069   108A      2.821444
     109A      2.828083   110A      2.844916   111A      2.853564
     112A      2.861866   113A      2.944444   114A      2.952876
     115A      2.957080   116A      2.984450

    Final Occupation by Irrep:
              A
    DOCC [    18 ]

  @RHF Final Energy:  -158.45775208295717

   => Energetics <=

    Nuclear Repulsion Energy =            122.7118414912334714
    One-Electron Energy =                -454.5426189562626860
    Two-Electron Energy =                 173.3730253820720293
    Total Energy =                       -158.4577520829571711

Computation Completed

Properties will be evaluated at   0.000000,   0.000000,   0.000000 [a0]

Properties computed using the SCF density matrix

  Nuclear Dipole Moment: [e a0]
     X:     0.0115      Y:    -0.0949      Z:     0.0023

  Electronic Dipole Moment: [e a0]
     X:    -0.0179      Y:     0.0909      Z:     0.0062

  Dipole Moment: [e a0]
     X:    -0.0064      Y:    -0.0040      Z:     0.0086     Total:     0.0114

  Dipole Moment: [D]
     X:    -0.0163      Y:    -0.0102      Z:     0.0218     Total:     0.0291

*** tstop() called on ds3 at Tue Apr 28 01:36:40 2020
Module time:
	user time   =       6.98 seconds =       0.12 minutes
	system time =       2.69 seconds =       0.04 minutes
	total time  =          9 seconds =       0.15 minutes
Total time:
	user time   =       6.98 seconds =       0.12 minutes
	system time =       2.69 seconds =       0.04 minutes
	total time  =          9 seconds =       0.15 minutes
                                     G D M A

                                 by Anthony Stone

                           version 2.2.06, 22 June 2011

               Distributed Multipoles from Gaussian wavefunctions

Starting at 1:36:40 on 28 Apr 2020

Using SCF density matrix from file ./SSI/SSI-032ILE-065LEU-1-dimer.test.8824.fchk

                         Distributed Multipole Analysis

Standard DMA

Positions and radii in angstrom
Multipole moments in atomic units, ea_0^k for rank k

C          x = -0.118506  y = -0.004875  z =  1.683698 angstrom
           Maximum rank =  0   Radius =  0.650 angstrom
                   Q00  =  -0.214529

C          x = -0.921506  y = -0.468875  z =  2.882698 angstrom
           Maximum rank =  0   Radius =  0.650 angstrom
                   Q00  =  -0.246647

H          x =  0.187494  y =  1.034125  z =  1.805698 angstrom
           Maximum rank =  0   Radius =  0.325 angstrom
                   Q00  =   0.077336

H          x =  0.763494  y = -0.632875  z =  1.549698 angstrom
           Maximum rank =  0   Radius =  0.325 angstrom
                   Q00  =   0.077241

H          x = -0.785506  y = -0.086875  z =  0.836698 angstrom
           Maximum rank =  0   Radius =  0.325 angstrom
                   Q00  =   0.075941

H          x = -0.416506  y = -0.160875  z =  3.799698 angstrom
           Maximum rank =  0   Radius =  0.325 angstrom
                   Q00  =   0.074865

H          x = -0.910506  y = -1.557875  z =  2.849698 angstrom
           Maximum rank =  0   Radius =  0.325 angstrom
                   Q00  =   0.077843

H          x = -1.962234  y = -0.112665  z =  2.881268 angstrom
           Maximum rank =  0   Radius =  0.325 angstrom
                   Q00  =   0.079739

C          x =  0.156494  y =  0.577125  z = -1.706302 angstrom
           Maximum rank =  0   Radius =  0.650 angstrom
                   Q00  =  -0.215753

C          x =  0.882494  y = -0.094875  z = -2.860302 angstrom
           Maximum rank =  0   Radius =  0.650 angstrom
                   Q00  =  -0.244499

H          x = -0.056506  y = -0.208875  z = -1.000302 angstrom
           Maximum rank =  0   Radius =  0.325 angstrom
                   Q00  =   0.074549

H          x =  0.784494  y =  1.331125  z = -1.235302 angstrom
           Maximum rank =  0   Radius =  0.325 angstrom
                   Q00  =   0.080094

H          x = -0.776506  y =  1.020125  z = -2.056302 angstrom
           Maximum rank =  0   Radius =  0.325 angstrom
                   Q00  =   0.076325

H          x =  0.893494  y =  0.593125  z = -3.699302 angstrom
           Maximum rank =  0   Radius =  0.325 angstrom
                   Q00  =   0.074016

H          x =  0.361928  y = -1.022555  z = -3.140332 angstrom
           Maximum rank =  0   Radius =  0.325 angstrom
                   Q00  =   0.076440

H          x =  1.929081  y = -0.297115  z = -2.588722 angstrom
           Maximum rank =  0   Radius =  0.325 angstrom
                   Q00  =   0.077039

Total multipoles referred to origin at
           x =   0.000000,  y =    0.000000,  z =    0.000000 angstrom
                   Q00  =  -0.000000

Finished at 1:36:40 on 28 Apr 2020

  DMA results are available in the Python driver through the
	  variable('DMA DISTRIBUTED MULTIPOLES')
  and
	  variable('DMA TOTAL MULTIPOLES')
  commands.

    Psi4 stopped on: Tuesday, 28 April 2020 01:36AM
    Psi4 wall time for execution: 0:00:09.57

*** Psi4 exiting successfully. Buy a developer a beer!
