                               Psi4 1.3.2 release

  ==> Input File <==

--------------------------------------------------------------------------
import numpy as np
set {scf_type pk
basis cc-pvdz
d_convergence 10
gdma_switch   0
gdma_limit    0
gdma_origin   [ 0.0,  0.0,  0.0 ]
}
molecule test {
    units Angstrom
    0 1
    --
    0 1
    C                0.366340063531769     0.280717058173042     2.040836569250509
    C                1.356340063531769    -0.854282941826958     1.803836569250508
    C                0.682340063531769     1.063717058173042     3.258836569250508
    H                0.336340063531769     0.954717058173042     1.194836569250508
    H               -0.635659936468231    -0.138282941826958     2.148836569250508
    H                0.937340063531768    -1.445282941826958     0.986836569250508
    H                1.736340063531769     1.322717058173042     3.305836569250508
    H                0.092340063531769     1.980717058173042     3.261836569250508
    H                0.404340063531769     0.485717058173042     4.137836569250508
    H                2.348630063531769    -0.498572941826958     1.489468569250508
    H                1.437500063531769    -1.523692941826958     2.672916569250507
    C               -1.893659936468231     0.360717058173042    -2.197163430749492
    C               -0.539659936468232    -0.093282941826958    -1.729163430749492
    O                0.243340063531769     0.689717058173042    -1.219163430749492
    N               -0.238659936468231    -1.356282941826958    -1.916163430749492
    H               -2.633659936468231    -0.420282941826958    -2.020163430749491
    H               -1.815659936468231     0.506717058173042    -3.276163430749492
    H                0.690340063531768    -1.666282941826958    -1.678163430749492
    H               -0.895659936468231    -1.980282941826958    -2.360163430749492
    H               -2.211529936468231     1.300017058173042    -1.721068430749492

}
e, wfn = energy('scf', return_wfn=True)
gdma(wfn)
dmavals = variable('DMA DISTRIBUTED MULTIPOLES')
charges = np.array(dmavals)
print(charges)
np.save('SSI-014ILE-085ASN-1-dimer.npy', np.array(charges))--------------------------------------------------------------------------

*** tstart() called on ds3
*** at Tue Apr 28 16:38:54 2020

   => Loading Basis Set <=

    Name: CC-PVDZ
    Role: ORBITAL
    Keyword: BASIS
    atoms 1-3, 12-13  entry C          line   138 file /theoryfs2/ds/metcalf/miniconda2/envs/tf2gpu/share/psi4/basis/cc-pvdz.gbs
    atoms 4-11, 16-20 entry H          line    22 file /theoryfs2/ds/metcalf/miniconda2/envs/tf2gpu/share/psi4/basis/cc-pvdz.gbs
    atoms 14          entry O          line   198 file /theoryfs2/ds/metcalf/miniconda2/envs/tf2gpu/share/psi4/basis/cc-pvdz.gbs
    atoms 15          entry N          line   168 file /theoryfs2/ds/metcalf/miniconda2/envs/tf2gpu/share/psi4/basis/cc-pvdz.gbs

         ---------------------------------------------------------
                                   SCF
               by Justin Turney, Rob Parrish, Andy Simmonett
                          and Daniel G. A. Smith
                              RHF Reference
                        1 Threads,    500 MiB Core
         ---------------------------------------------------------

  ==> Geometry <==

    Molecular point group: c1
    Full point group: C1

    Geometry (in Angstrom), charge = 0, multiplicity = 1:

       Center              X                  Y                   Z               Mass
    ------------   -----------------  -----------------  -----------------  -----------------
         C            0.366340063532     0.280717058173     2.040836569251    12.000000000000
         C            1.356340063532    -0.854282941827     1.803836569251    12.000000000000
         C            0.682340063532     1.063717058173     3.258836569251    12.000000000000
         H            0.336340063532     0.954717058173     1.194836569251     1.007825032230
         H           -0.635659936468    -0.138282941827     2.148836569251     1.007825032230
         H            0.937340063532    -1.445282941827     0.986836569251     1.007825032230
         H            1.736340063532     1.322717058173     3.305836569251     1.007825032230
         H            0.092340063532     1.980717058173     3.261836569251     1.007825032230
         H            0.404340063532     0.485717058173     4.137836569251     1.007825032230
         H            2.348630063532    -0.498572941827     1.489468569251     1.007825032230
         H            1.437500063532    -1.523692941827     2.672916569251     1.007825032230
         C           -1.893659936468     0.360717058173    -2.197163430749    12.000000000000
         C           -0.539659936468    -0.093282941827    -1.729163430749    12.000000000000
         O            0.243340063532     0.689717058173    -1.219163430749    15.994914619570
         N           -0.238659936468    -1.356282941827    -1.916163430749    14.003074004430
         H           -2.633659936468    -0.420282941827    -2.020163430749     1.007825032230
         H           -1.815659936468     0.506717058173    -3.276163430749     1.007825032230
         H            0.690340063532    -1.666282941827    -1.678163430749     1.007825032230
         H           -0.895659936468    -1.980282941827    -2.360163430749     1.007825032230
         H           -2.211529936468     1.300017058173    -1.721068430749     1.007825032230

  Running in c1 symmetry.

  Rotational constants: A =      0.14126  B =      0.02999  C =      0.02704 [cm^-1]
  Rotational constants: A =   4234.93446  B =    899.13353  C =    810.52437 [MHz]
  Nuclear repulsion =  304.201938193353669

  Charge       = 0
  Multiplicity = 1
  Electrons    = 58
  Nalpha       = 29
  Nbeta        = 29

  ==> Algorithm <==

  SCF Algorithm Type is PK.
  DIIS enabled.
  MOM disabled.
  Fractional occupation disabled.
  Guess Type is SAD.
  Energy threshold   = 1.00e-06
  Density threshold  = 1.00e-10
  Integral threshold = 0.00e+00

  ==> Primary Basis <==

  Basis Set: CC-PVDZ
    Blend: CC-PVDZ
    Number of shells: 81
    Number of basis function: 163
    Number of Cartesian functions: 170
    Spherical Harmonics?: true
    Max angular momentum: 2

  ==> Pre-Iterations <==

   -------------------------------------------------------
    Irrep   Nso     Nmo     Nalpha   Nbeta   Ndocc  Nsocc
   -------------------------------------------------------
     A        163     163       0       0       0       0
   -------------------------------------------------------
    Total     163     163      29      29      29       0
   -------------------------------------------------------

  ==> Integral Setup <==

  Using integral reordering PK algorithm.
  Sizing the integral batches needed.
  Building batch lookup table.
   Calculation information:
      Number of atoms:                  20
      Number of AO shells:              81
      Number of primitives:            219
      Number of atomic orbitals:       170
      Number of basis functions:       163

      Integral cutoff                 1.00e-12
      Number of threads:                 1

	Batch   1 pq = [       0,    9405] index = [             0,44231715] size =     44231715
	Batch   2 pq = [    9405,   13366] index = [      44231715,89331661] size =     45099946
  Task number: 9
  Buffer size: 11059200
  Buffer per thread: 2
  We computed 4758473 shell quartets total.
  Whereas there are 5516181 unique shell quartets.

  ==> DiskJK: Disk-Based J/K Matrices <==

    J tasked:                  Yes
    K tasked:                  Yes
    wK tasked:                  No
    Memory [MiB]:              375
    Schwarz Cutoff:          1E-12

    OpenMP threads:              1

  Minimum eigenvalue in the overlap matrix is 4.4757394651E-03.
  Using Symmetric Orthogonalization.

  SCF Guess: Superposition of Atomic Densities via on-the-fly atomic UHF.

  ==> Iterations <==

                        Total Energy        Delta E     RMS |[F,P]|

   @RHF iter SAD:  -325.11927175193665   -3.25119e+02   0.00000e+00
   @RHF iter   1:  -325.99305041809396   -8.73779e-01   4.20315e-03 DIIS
   @RHF iter   2:  -326.20058969021545   -2.07539e-01   2.29412e-03 DIIS
   @RHF iter   3:  -326.25651132146254   -5.59216e-02   4.81000e-04 DIIS
   @RHF iter   4:  -326.26020090706373   -3.68959e-03   2.03133e-04 DIIS
   @RHF iter   5:  -326.26085477907566   -6.53872e-04   3.06973e-05 DIIS
   @RHF iter   6:  -326.26088502515574   -3.02461e-05   1.31489e-05 DIIS
   @RHF iter   7:  -326.26088997781602   -4.95266e-06   5.07797e-06 DIIS
   @RHF iter   8:  -326.26089096258517   -9.84769e-07   1.73822e-06 DIIS
   @RHF iter   9:  -326.26089108425356   -1.21668e-07   4.49979e-07 DIIS
   @RHF iter  10:  -326.26089108981267   -5.55912e-09   1.45477e-07 DIIS
   @RHF iter  11:  -326.26089109046984   -6.57167e-10   3.61094e-08 DIIS
   @RHF iter  12:  -326.26089109050741   -3.75735e-11   8.87279e-09 DIIS
   @RHF iter  13:  -326.26089109051060   -3.18323e-12   2.12958e-09 DIIS
   @RHF iter  14:  -326.26089109051037    2.27374e-13   8.50801e-10 DIIS
   @RHF iter  15:  -326.26089109051196   -1.59162e-12   3.57641e-10 DIIS
   @RHF iter  16:  -326.26089109050901    2.95586e-12   1.44284e-10 DIIS
   @RHF iter  17:  -326.26089109050935   -3.41061e-13   6.46957e-11 DIIS
  Energy and wave function converged.

  ==> Post-Iterations <==

    Orbital Energies [Eh]
    ---------------------

    Doubly Occupied:

       1A    -20.503849     2A    -15.590833     3A    -11.345877
       4A    -11.242984     5A    -11.202507     6A    -11.194254
       7A    -11.192459     8A     -1.377305     9A     -1.224499
      10A     -1.045119    11A     -1.004818    12A     -0.911919
      13A     -0.804024    14A     -0.777641    15A     -0.733290
      16A     -0.659773    17A     -0.619610    18A     -0.612066
      19A     -0.583134    20A     -0.572373    21A     -0.562108
      22A     -0.538585    23A     -0.524197    24A     -0.520119
      25A     -0.459526    26A     -0.449353    27A     -0.446396
      28A     -0.411794    29A     -0.405247

    Virtual:

      30A      0.158684    31A      0.196058    32A      0.201421
      33A      0.211618    34A      0.228986    35A      0.245467
      36A      0.246942    37A      0.262777    38A      0.273297
      39A      0.277595    40A      0.287487    41A      0.303792
      42A      0.325373    43A      0.347897    44A      0.382955
      45A      0.393562    46A      0.442603    47A      0.481821
      48A      0.546686    49A      0.600215    50A      0.610774
      51A      0.622819    52A      0.632731    53A      0.637620
      54A      0.655618    55A      0.665672    56A      0.710192
      57A      0.732149    58A      0.751938    59A      0.785315
      60A      0.795095    61A      0.829280    62A      0.843447
      63A      0.859349    64A      0.880114    65A      0.890316
      66A      0.894794    67A      0.907033    68A      0.910043
      69A      0.913413    70A      0.923281    71A      0.931973
      72A      0.942590    73A      0.946832    74A      0.966530
      75A      0.974607    76A      1.004721    77A      1.008326
      78A      1.051605    79A      1.070256    80A      1.136888
      81A      1.148406    82A      1.151939    83A      1.188486
      84A      1.224186    85A      1.346880    86A      1.355622
      87A      1.385786    88A      1.402441    89A      1.418550
      90A      1.446464    91A      1.459973    92A      1.470561
      93A      1.506872    94A      1.520384    95A      1.578813
      96A      1.652223    97A      1.657333    98A      1.664655
      99A      1.690572   100A      1.703423   101A      1.721911
     102A      1.738554   103A      1.811866   104A      1.864040
     105A      1.871074   106A      1.880848   107A      1.883687
     108A      1.899532   109A      1.902285   110A      1.915537
     111A      1.926546   112A      1.952067   113A      1.960238
     114A      1.967841   115A      1.974072   116A      1.999852
     117A      2.012990   118A      2.015158   119A      2.039704
     120A      2.041475   121A      2.057663   122A      2.079284
     123A      2.089618   124A      2.163622   125A      2.182839
     126A      2.189202   127A      2.226311   128A      2.266274
     129A      2.325703   130A      2.341399   131A      2.349459
     132A      2.378665   133A      2.441684   134A      2.453171
     135A      2.506106   136A      2.508518   137A      2.529723
     138A      2.555608   139A      2.589991   140A      2.595283
     141A      2.625660   142A      2.646056   143A      2.654229
     144A      2.716933   145A      2.742168   146A      2.773515
     147A      2.793438   148A      2.796369   149A      2.813750
     150A      2.864899   151A      2.888173   152A      2.933786
     153A      2.984318   154A      3.005984   155A      3.020760
     156A      3.088129   157A      3.102155   158A      3.145489
     159A      3.290206   160A      3.527800   161A      3.550746
     162A      3.892570   163A      3.940326

    Final Occupation by Irrep:
              A
    DOCC [    29 ]

  @RHF Final Energy:  -326.26089109050935

   => Energetics <=

    Nuclear Repulsion Energy =            304.2019381933536692
    One-Electron Energy =               -1045.8943381793158096
    Two-Electron Energy =                 415.4315088954527369
    Total Energy =                       -326.2608910905093467

Computation Completed

Properties will be evaluated at   0.000000,   0.000000,   0.000000 [a0]

Properties computed using the SCF density matrix

  Nuclear Dipole Moment: [e a0]
     X:    -0.1941      Y:    -1.0447      Z:     7.6332

  Electronic Dipole Moment: [e a0]
     X:    -0.6852      Y:    -0.1649      Z:    -8.6022

  Dipole Moment: [e a0]
     X:    -0.8793      Y:    -1.2096      Z:    -0.9689     Total:     1.7819

  Dipole Moment: [D]
     X:    -2.2349      Y:    -3.0745      Z:    -2.4628     Total:     4.5290

*** tstop() called on ds3 at Tue Apr 28 16:39:34 2020
Module time:
	user time   =      28.85 seconds =       0.48 minutes
	system time =      12.69 seconds =       0.21 minutes
	total time  =         40 seconds =       0.67 minutes
Total time:
	user time   =      28.85 seconds =       0.48 minutes
	system time =      12.69 seconds =       0.21 minutes
	total time  =         40 seconds =       0.67 minutes
                                     G D M A

                                 by Anthony Stone

                           version 2.2.06, 22 June 2011

               Distributed Multipoles from Gaussian wavefunctions

Starting at 16:39:34 on 28 Apr 2020

Using SCF density matrix from file ./SSI/SSI-014ILE-085ASN-1-dimer.test.16587.fchk

                         Distributed Multipole Analysis

Standard DMA

Positions and radii in angstrom
Multipole moments in atomic units, ea_0^k for rank k

C          x =  0.366340  y =  0.280717  z =  2.040837 angstrom
           Maximum rank =  0   Radius =  0.650 angstrom
                   Q00  =  -0.062770

C          x =  1.356340  y = -0.854283  z =  1.803837 angstrom
           Maximum rank =  0   Radius =  0.650 angstrom
                   Q00  =  -0.246816

C          x =  0.682340  y =  1.063717  z =  3.258837 angstrom
           Maximum rank =  0   Radius =  0.650 angstrom
                   Q00  =  -0.226370

H          x =  0.336340  y =  0.954717  z =  1.194837 angstrom
           Maximum rank =  0   Radius =  0.325 angstrom
                   Q00  =   0.081396

H          x = -0.635660  y = -0.138283  z =  2.148837 angstrom
           Maximum rank =  0   Radius =  0.325 angstrom
                   Q00  =   0.025249

H          x =  0.937340  y = -1.445283  z =  0.986837 angstrom
           Maximum rank =  0   Radius =  0.325 angstrom
                   Q00  =   0.064162

H          x =  1.736340  y =  1.322717  z =  3.305837 angstrom
           Maximum rank =  0   Radius =  0.325 angstrom
                   Q00  =   0.071665

H          x =  0.092340  y =  1.980717  z =  3.261837 angstrom
           Maximum rank =  0   Radius =  0.325 angstrom
                   Q00  =   0.072861

H          x =  0.404340  y =  0.485717  z =  4.137837 angstrom
           Maximum rank =  0   Radius =  0.325 angstrom
                   Q00  =   0.062056

H          x =  2.348630  y = -0.498573  z =  1.489469 angstrom
           Maximum rank =  0   Radius =  0.325 angstrom
                   Q00  =   0.083947

H          x =  1.437500  y = -1.523693  z =  2.672917 angstrom
           Maximum rank =  0   Radius =  0.325 angstrom
                   Q00  =   0.063918

C          x = -1.893660  y =  0.360717  z = -2.197163 angstrom
           Maximum rank =  0   Radius =  0.650 angstrom
                   Q00  =  -0.260179

C          x = -0.539660  y = -0.093283  z = -1.729163 angstrom
           Maximum rank =  0   Radius =  0.650 angstrom
                   Q00  =   0.824016

O          x =  0.243340  y =  0.689717  z = -1.219163 angstrom
           Maximum rank =  0   Radius =  0.650 angstrom
                   Q00  =  -0.792170

N          x = -0.238660  y = -1.356283  z = -1.916163 angstrom
           Maximum rank =  0   Radius =  0.650 angstrom
                   Q00  =  -0.531255

H          x = -2.633660  y = -0.420283  z = -2.020163 angstrom
           Maximum rank =  0   Radius =  0.325 angstrom
                   Q00  =   0.083901

H          x = -1.815660  y =  0.506717  z = -3.276163 angstrom
           Maximum rank =  0   Radius =  0.325 angstrom
                   Q00  =   0.122585

H          x =  0.690340  y = -1.666283  z = -1.678163 angstrom
           Maximum rank =  0   Radius =  0.325 angstrom
                   Q00  =   0.226571

H          x = -0.895660  y = -1.980283  z = -2.360163 angstrom
           Maximum rank =  0   Radius =  0.325 angstrom
                   Q00  =   0.204944

H          x = -2.211530  y =  1.300017  z = -1.721068 angstrom
           Maximum rank =  0   Radius =  0.325 angstrom
                   Q00  =   0.132289

Total multipoles referred to origin at
           x =   0.000000,  y =    0.000000,  z =    0.000000 angstrom
                   Q00  =  -0.000000

Finished at 16:39:34 on 28 Apr 2020

  DMA results are available in the Python driver through the
	  variable('DMA DISTRIBUTED MULTIPOLES')
  and
	  variable('DMA TOTAL MULTIPOLES')
  commands.

    Psi4 stopped on: Tuesday, 28 April 2020 04:39PM
    Psi4 wall time for execution: 0:00:40.77

*** Psi4 exiting successfully. Buy a developer a beer!
