                               Psi4 1.3.2 release

  ==> Input File <==

--------------------------------------------------------------------------
import numpy as np
set {scf_type pk
basis cc-pvdz
d_convergence 10
gdma_switch   0
gdma_limit    0
gdma_origin   [ 0.0,  0.0,  0.0 ]
}
molecule test {
    units Angstrom
    0 1
    --
    0 1
    C                0.011479360149392    -1.888883505926596    -1.388932956616555
    C               -0.937520639850608    -3.049883505926596    -1.687932956616555
    H                0.730479360149392    -2.172883505926596    -0.618932956616555
    H                0.544479360149392    -1.591883505926596    -2.288932956616555
    H               -0.540520639850608    -1.008883505926596    -1.061932956616555
    H               -1.678520639850608    -2.718883505926596    -2.417932956616555
    H               -1.449171639850608    -3.378802505926596    -0.771402956616555
    H               -0.378486639850608    -3.908068505926596    -2.089182956616555
    C                0.527479360149392     0.577116494073404     2.034067043383445
    C                0.175479360149392     1.304116494073404     0.751067043383445
    O               -0.927520639850608     1.825116494073404     0.586067043383445
    N                1.108479360149392     1.332116494073404    -0.180932956616555
    H                1.533479360149392     0.858116494073404     2.344067043383445
    H                0.526479360149392    -0.490883505926596     1.828067043383445
    H                0.922479360149392     1.782116494073405    -1.061932956616555
    H                1.937479360149392     0.750116494073404    -0.024932956616555
    H               -0.173145639850608     0.810656494073404     2.849287043383445

}
e, wfn = energy('scf', return_wfn=True)
gdma(wfn)
dmavals = variable('DMA DISTRIBUTED MULTIPOLES')
charges = np.array(dmavals)
print(charges)
np.save('SSI-052ILE-056GLN-1-dimer.npy', np.array(charges))--------------------------------------------------------------------------

*** tstart() called on ds3
*** at Tue Apr 28 14:22:16 2020

   => Loading Basis Set <=

    Name: CC-PVDZ
    Role: ORBITAL
    Keyword: BASIS
    atoms 1-2, 9-10  entry C          line   138 file /theoryfs2/ds/metcalf/miniconda2/envs/tf2gpu/share/psi4/basis/cc-pvdz.gbs
    atoms 3-8, 13-17 entry H          line    22 file /theoryfs2/ds/metcalf/miniconda2/envs/tf2gpu/share/psi4/basis/cc-pvdz.gbs
    atoms 11         entry O          line   198 file /theoryfs2/ds/metcalf/miniconda2/envs/tf2gpu/share/psi4/basis/cc-pvdz.gbs
    atoms 12         entry N          line   168 file /theoryfs2/ds/metcalf/miniconda2/envs/tf2gpu/share/psi4/basis/cc-pvdz.gbs

         ---------------------------------------------------------
                                   SCF
               by Justin Turney, Rob Parrish, Andy Simmonett
                          and Daniel G. A. Smith
                              RHF Reference
                        1 Threads,    500 MiB Core
         ---------------------------------------------------------

  ==> Geometry <==

    Molecular point group: c1
    Full point group: C1

    Geometry (in Angstrom), charge = 0, multiplicity = 1:

       Center              X                  Y                   Z               Mass
    ------------   -----------------  -----------------  -----------------  -----------------
         C            0.011479360149    -1.888883505927    -1.388932956617    12.000000000000
         C           -0.937520639851    -3.049883505927    -1.687932956617    12.000000000000
         H            0.730479360149    -2.172883505927    -0.618932956617     1.007825032230
         H            0.544479360149    -1.591883505927    -2.288932956617     1.007825032230
         H           -0.540520639851    -1.008883505927    -1.061932956617     1.007825032230
         H           -1.678520639851    -2.718883505927    -2.417932956617     1.007825032230
         H           -1.449171639851    -3.378802505927    -0.771402956617     1.007825032230
         H           -0.378486639851    -3.908068505927    -2.089182956617     1.007825032230
         C            0.527479360149     0.577116494073     2.034067043383    12.000000000000
         C            0.175479360149     1.304116494073     0.751067043383    12.000000000000
         O           -0.927520639851     1.825116494073     0.586067043383    15.994914619570
         N            1.108479360149     1.332116494073    -0.180932956617    14.003074004430
         H            1.533479360149     0.858116494073     2.344067043383     1.007825032230
         H            0.526479360149    -0.490883505927     1.828067043383     1.007825032230
         H            0.922479360149     1.782116494073    -1.061932956617     1.007825032230
         H            1.937479360149     0.750116494073    -0.024932956617     1.007825032230
         H           -0.173145639851     0.810656494073     2.849287043383     1.007825032230

  Running in c1 symmetry.

  Rotational constants: A =      0.15958  B =      0.03634  C =      0.03591 [cm^-1]
  Rotational constants: A =   4784.00408  B =   1089.53293  C =   1076.50800 [MHz]
  Nuclear repulsion =  231.912950230849077

  Charge       = 0
  Multiplicity = 1
  Electrons    = 50
  Nalpha       = 25
  Nbeta        = 25

  ==> Algorithm <==

  SCF Algorithm Type is PK.
  DIIS enabled.
  MOM disabled.
  Fractional occupation disabled.
  Guess Type is SAD.
  Energy threshold   = 1.00e-06
  Density threshold  = 1.00e-10
  Integral threshold = 0.00e+00

  ==> Primary Basis <==

  Basis Set: CC-PVDZ
    Blend: CC-PVDZ
    Number of shells: 69
    Number of basis function: 139
    Number of Cartesian functions: 145
    Spherical Harmonics?: true
    Max angular momentum: 2

  ==> Pre-Iterations <==

   -------------------------------------------------------
    Irrep   Nso     Nmo     Nalpha   Nbeta   Ndocc  Nsocc
   -------------------------------------------------------
     A        139     139       0       0       0       0
   -------------------------------------------------------
    Total     139     139      25      25      25       0
   -------------------------------------------------------

  ==> Integral Setup <==

  Using integral reordering PK algorithm.
  Sizing the integral batches needed.
  Building batch lookup table.
   Calculation information:
      Number of atoms:                  17
      Number of AO shells:              69
      Number of primitives:            187
      Number of atomic orbitals:       145
      Number of basis functions:       139

      Integral cutoff                 1.00e-12
      Number of threads:                 1

	Batch   1 pq = [       0,    9730] index = [             0,47341315] size =     47341315
  Task number: 5
  Buffer size: 11059200
  Buffer per thread: 2
  We computed 2466702 shell quartets total.
  Whereas there are 2917320 unique shell quartets.

  ==> DiskJK: Disk-Based J/K Matrices <==

    J tasked:                  Yes
    K tasked:                  Yes
    wK tasked:                  No
    Memory [MiB]:              375
    Schwarz Cutoff:          1E-12

    OpenMP threads:              1

  Minimum eigenvalue in the overlap matrix is 4.5060499142E-03.
  Using Symmetric Orthogonalization.

  SCF Guess: Superposition of Atomic Densities via on-the-fly atomic UHF.

  ==> Iterations <==

                        Total Energy        Delta E     RMS |[F,P]|

   @RHF iter SAD:  -285.93445159750138   -2.85934e+02   0.00000e+00
   @RHF iter   1:  -286.99529734154589   -1.06085e+00   4.64077e-03 DIIS
   @RHF iter   2:  -287.17055054899208   -1.75253e-01   2.62309e-03 DIIS
   @RHF iter   3:  -287.22153896037747   -5.09884e-02   5.43930e-04 DIIS
   @RHF iter   4:  -287.22496580702352   -3.42685e-03   2.20534e-04 DIIS
   @RHF iter   5:  -287.22558012465947   -6.14318e-04   3.47487e-05 DIIS
   @RHF iter   6:  -287.22561202624263   -3.19016e-05   1.57681e-05 DIIS
   @RHF iter   7:  -287.22561704700195   -5.02076e-06   6.33845e-06 DIIS
   @RHF iter   8:  -287.22561816687625   -1.11987e-06   2.14600e-06 DIIS
   @RHF iter   9:  -287.22561829942856   -1.32552e-07   5.49969e-07 DIIS
   @RHF iter  10:  -287.22561830573483   -6.30627e-09   1.72705e-07 DIIS
   @RHF iter  11:  -287.22561830643906   -7.04233e-10   3.74993e-08 DIIS
   @RHF iter  12:  -287.22561830647453   -3.54703e-11   7.98133e-09 DIIS
   @RHF iter  13:  -287.22561830647641   -1.87583e-12   1.60217e-09 DIIS
   @RHF iter  14:  -287.22561830647567    7.38964e-13   7.14886e-10 DIIS
   @RHF iter  15:  -287.22561830647533    3.41061e-13   2.94834e-10 DIIS
   @RHF iter  16:  -287.22561830647578   -4.54747e-13   1.12328e-10 DIIS
   @RHF iter  17:  -287.22561830647430    1.47793e-12   4.77553e-11 DIIS
  Energy and wave function converged.

  ==> Post-Iterations <==

    Orbital Energies [Eh]
    ---------------------

    Doubly Occupied:

       1A    -20.501671     2A    -15.589282     3A    -11.345099
       4A    -11.241943     5A    -11.222145     6A    -11.220848
       7A     -1.365469     8A     -1.217457     9A     -1.021003
      10A     -1.000154    11A     -0.841505    12A     -0.796481
      13A     -0.727059    14A     -0.652972    15A     -0.615731
      16A     -0.604175    17A     -0.595200    18A     -0.567751
      19A     -0.557879    20A     -0.523060    21A     -0.505029
      22A     -0.491983    23A     -0.484749    24A     -0.408142
      25A     -0.402110

    Virtual:

      26A      0.152124    27A      0.187837    28A      0.202368
      29A      0.208804    30A      0.231310    31A      0.246109
      32A      0.251274    33A      0.254939    34A      0.265864
      35A      0.282585    36A      0.291636    37A      0.318337
      38A      0.377789    39A      0.395388    40A      0.480659
      41A      0.544638    42A      0.590088    43A      0.596252
      44A      0.600096    45A      0.630092    46A      0.644929
      47A      0.678845    48A      0.693279    49A      0.706975
      50A      0.732329    51A      0.750875    52A      0.807542
      53A      0.834687    54A      0.859163    55A      0.874067
      56A      0.885531    57A      0.891312    58A      0.894013
      59A      0.905868    60A      0.912796    61A      0.917587
      62A      0.924668    63A      0.952262    64A      0.982257
      65A      1.032330    66A      1.057978    67A      1.071839
      68A      1.112271    69A      1.121263    70A      1.131145
      71A      1.153373    72A      1.236604    73A      1.317861
      74A      1.347630    75A      1.377651    76A      1.384888
      77A      1.426543    78A      1.463492    79A      1.470327
      80A      1.477723    81A      1.504339    82A      1.581347
      83A      1.658130    84A      1.659113    85A      1.680456
      86A      1.693789    87A      1.731453    88A      1.785039
      89A      1.846454    90A      1.853632    91A      1.868816
      92A      1.884783    93A      1.900586    94A      1.909068
      95A      1.916873    96A      1.939660    97A      1.944844
      98A      1.950777    99A      1.956627   100A      1.963850
     101A      1.986651   102A      2.019525   103A      2.027321
     104A      2.092133   105A      2.099587   106A      2.101767
     107A      2.167697   108A      2.233759   109A      2.262182
     110A      2.305159   111A      2.325447   112A      2.416354
     113A      2.439226   114A      2.456008   115A      2.461500
     116A      2.489159   117A      2.524191   118A      2.555866
     119A      2.564678   120A      2.614813   121A      2.625404
     122A      2.711960   123A      2.750216   124A      2.758283
     125A      2.786170   126A      2.801483   127A      2.849225
     128A      2.863890   129A      2.873358   130A      2.941682
     131A      2.967257   132A      2.981372   133A      3.097888
     134A      3.138678   135A      3.287142   136A      3.510011
     137A      3.528002   138A      3.858953   139A      3.904186

    Final Occupation by Irrep:
              A
    DOCC [    25 ]

  @RHF Final Energy:  -287.22561830647430

   => Energetics <=

    Nuclear Repulsion Energy =            231.9129502308490771
    One-Electron Energy =                -849.2793454666758635
    Two-Electron Energy =                 330.1407769293524552
    Total Energy =                       -287.2256183064743027

Computation Completed

Properties will be evaluated at   0.000000,   0.000000,   0.000000 [a0]

Properties computed using the SCF density matrix

  Nuclear Dipole Moment: [e a0]
     X:     1.8439      Y:   -10.3722      Z:    -3.1032

  Electronic Dipole Moment: [e a0]
     X:    -0.3357      Y:     9.6859      Z:     2.9894

  Dipole Moment: [e a0]
     X:     1.5081      Y:    -0.6863      Z:    -0.1138     Total:     1.6609

  Dipole Moment: [D]
     X:     3.8333      Y:    -1.7443      Z:    -0.2892     Total:     4.2215

*** tstop() called on ds3 at Tue Apr 28 14:22:40 2020
Module time:
	user time   =      17.23 seconds =       0.29 minutes
	system time =       8.24 seconds =       0.14 minutes
	total time  =         24 seconds =       0.40 minutes
Total time:
	user time   =      17.23 seconds =       0.29 minutes
	system time =       8.24 seconds =       0.14 minutes
	total time  =         24 seconds =       0.40 minutes
                                     G D M A

                                 by Anthony Stone

                           version 2.2.06, 22 June 2011

               Distributed Multipoles from Gaussian wavefunctions

Starting at 14:22:40 on 28 Apr 2020

Using SCF density matrix from file ./SSI/SSI-052ILE-056GLN-1-dimer.test.16825.fchk

                         Distributed Multipole Analysis

Standard DMA

Positions and radii in angstrom
Multipole moments in atomic units, ea_0^k for rank k

C          x =  0.011479  y = -1.888884  z = -1.388933 angstrom
           Maximum rank =  0   Radius =  0.650 angstrom
                   Q00  =  -0.255489

C          x = -0.937521  y = -3.049884  z = -1.687933 angstrom
           Maximum rank =  0   Radius =  0.650 angstrom
                   Q00  =  -0.226285

H          x =  0.730479  y = -2.172884  z = -0.618933 angstrom
           Maximum rank =  0   Radius =  0.325 angstrom
                   Q00  =   0.068061

H          x =  0.544479  y = -1.591884  z = -2.288933 angstrom
           Maximum rank =  0   Radius =  0.325 angstrom
                   Q00  =   0.075936

H          x = -0.540521  y = -1.008884  z = -1.061933 angstrom
           Maximum rank =  0   Radius =  0.325 angstrom
                   Q00  =   0.091469

H          x = -1.678521  y = -2.718884  z = -2.417933 angstrom
           Maximum rank =  0   Radius =  0.325 angstrom
                   Q00  =   0.084552

H          x = -1.449172  y = -3.378803  z = -0.771403 angstrom
           Maximum rank =  0   Radius =  0.325 angstrom
                   Q00  =   0.081160

H          x = -0.378487  y = -3.908069  z = -2.089183 angstrom
           Maximum rank =  0   Radius =  0.325 angstrom
                   Q00  =   0.076730

C          x =  0.527479  y =  0.577116  z =  2.034067 angstrom
           Maximum rank =  0   Radius =  0.650 angstrom
                   Q00  =  -0.266890

C          x =  0.175479  y =  1.304116  z =  0.751067 angstrom
           Maximum rank =  0   Radius =  0.650 angstrom
                   Q00  =   0.823068

O          x = -0.927521  y =  1.825116  z =  0.586067 angstrom
           Maximum rank =  0   Radius =  0.650 angstrom
                   Q00  =  -0.799725

N          x =  1.108479  y =  1.332116  z = -0.180933 angstrom
           Maximum rank =  0   Radius =  0.650 angstrom
                   Q00  =  -0.527952

H          x =  1.533479  y =  0.858116  z =  2.344067 angstrom
           Maximum rank =  0   Radius =  0.325 angstrom
                   Q00  =   0.091829

H          x =  0.526479  y = -0.490884  z =  1.828067 angstrom
           Maximum rank =  0   Radius =  0.325 angstrom
                   Q00  =   0.117572

H          x =  0.922479  y =  1.782116  z = -1.061933 angstrom
           Maximum rank =  0   Radius =  0.325 angstrom
                   Q00  =   0.228822

H          x =  1.937479  y =  0.750116  z = -0.024933 angstrom
           Maximum rank =  0   Radius =  0.325 angstrom
                   Q00  =   0.204986

H          x = -0.173146  y =  0.810656  z =  2.849287 angstrom
           Maximum rank =  0   Radius =  0.325 angstrom
                   Q00  =   0.132156

Total multipoles referred to origin at
           x =   0.000000,  y =    0.000000,  z =    0.000000 angstrom
                   Q00  =  -0.000000

Finished at 14:22:40 on 28 Apr 2020

  DMA results are available in the Python driver through the
	  variable('DMA DISTRIBUTED MULTIPOLES')
  and
	  variable('DMA TOTAL MULTIPOLES')
  commands.

    Psi4 stopped on: Tuesday, 28 April 2020 02:22PM
    Psi4 wall time for execution: 0:00:24.78

*** Psi4 exiting successfully. Buy a developer a beer!
