                               Psi4 1.3.2 release

  ==> Input File <==

--------------------------------------------------------------------------
import numpy as np
set {scf_type pk
basis cc-pvdz
d_convergence 10
gdma_switch   0
gdma_limit    0
gdma_origin   [ 0.0,  0.0,  0.0 ]
}
molecule test {
    units Angstrom
    -1 1
    --
    -1 1
    C                0.446058794584829     3.355636213757577    -1.929559684544173
    C                1.019058794584829     1.432636213757578    -0.368559684544173
    C               -0.973941205415170     0.488636213757578     0.011440315455827
    C                0.133058794584829     2.182636213757578    -1.072559684544173
    C               -1.155941205415171     1.606636213757578    -0.841559684544173
    C               -2.046941205415171    -0.299363786242422     0.437440315455827
    C               -3.309941205415170     0.020636213757578    -0.029559684544173
    C               -2.440941205415171     1.884636213757578    -1.316559684544173
    C               -3.505941205415171     1.095636213757578    -0.908559684544173
    N                0.365058794584829     0.423636213757578     0.298440315455827
    H                0.827058794584829    -0.371363786242422     0.746440315455827
    H                2.092058794584829     1.588636213757578    -0.350559684544173
    H               -1.885941205415171    -1.138363786242422     1.100440315455827
    H               -0.082941205415171     3.253636213757578    -2.876559684544174
    H                1.514058794584830     3.330636213757578    -2.151559684544174
    H               -4.159941205415171    -0.577363786242422     0.273440315455827
    H               -2.571941205415170     2.675636213757578    -2.024559684544173
    H               -4.503941205415170     1.311636213757578    -1.265559684544173
    H                0.200858794584829     4.329246213757578    -1.480149684544173
    C                3.320058794584829    -2.231363786242422     2.306440315455827
    C                2.418058794584829    -2.757363786242422     1.214440315455827
    O                1.278058794584829    -2.250363786242422     1.089440315455827
    O                2.848058794584829    -3.716363786242422     0.538440315455827
    H                4.119058794584830    -2.942363786242422     2.526440315455826
    H                2.732058794584829    -2.104363786242422     3.218440315455827
    H                3.762958794584829    -1.261833786242422     2.034680315455827

}
e, wfn = energy('scf', return_wfn=True)
gdma(wfn)
dmavals = variable('DMA DISTRIBUTED MULTIPOLES')
charges = np.array(dmavals)
print(charges)
np.save('SSI-008TRP-252GLU-1-dimer.npy', np.array(charges))--------------------------------------------------------------------------

*** tstart() called on ds3
*** at Sun Apr 26 20:52:57 2020

   => Loading Basis Set <=

    Name: CC-PVDZ
    Role: ORBITAL
    Keyword: BASIS
    atoms 1-9, 20-21   entry C          line   138 file /theoryfs2/ds/metcalf/miniconda2/envs/tf2gpu/share/psi4/basis/cc-pvdz.gbs
    atoms 10           entry N          line   168 file /theoryfs2/ds/metcalf/miniconda2/envs/tf2gpu/share/psi4/basis/cc-pvdz.gbs
    atoms 11-19, 24-26 entry H          line    22 file /theoryfs2/ds/metcalf/miniconda2/envs/tf2gpu/share/psi4/basis/cc-pvdz.gbs
    atoms 22-23        entry O          line   198 file /theoryfs2/ds/metcalf/miniconda2/envs/tf2gpu/share/psi4/basis/cc-pvdz.gbs

         ---------------------------------------------------------
                                   SCF
               by Justin Turney, Rob Parrish, Andy Simmonett
                          and Daniel G. A. Smith
                              RHF Reference
                        1 Threads,    500 MiB Core
         ---------------------------------------------------------

  ==> Geometry <==

    Molecular point group: c1
    Full point group: C1

    Geometry (in Angstrom), charge = -1, multiplicity = 1:

       Center              X                  Y                   Z               Mass
    ------------   -----------------  -----------------  -----------------  -----------------
         C            0.446058794585     3.355636213758    -1.929559684544    12.000000000000
         C            1.019058794585     1.432636213758    -0.368559684544    12.000000000000
         C           -0.973941205415     0.488636213758     0.011440315456    12.000000000000
         C            0.133058794585     2.182636213758    -1.072559684544    12.000000000000
         C           -1.155941205415     1.606636213758    -0.841559684544    12.000000000000
         C           -2.046941205415    -0.299363786242     0.437440315456    12.000000000000
         C           -3.309941205415     0.020636213758    -0.029559684544    12.000000000000
         C           -2.440941205415     1.884636213758    -1.316559684544    12.000000000000
         C           -3.505941205415     1.095636213758    -0.908559684544    12.000000000000
         N            0.365058794585     0.423636213758     0.298440315456    14.003074004430
         H            0.827058794585    -0.371363786242     0.746440315456     1.007825032230
         H            2.092058794585     1.588636213758    -0.350559684544     1.007825032230
         H           -1.885941205415    -1.138363786242     1.100440315456     1.007825032230
         H           -0.082941205415     3.253636213758    -2.876559684544     1.007825032230
         H            1.514058794585     3.330636213758    -2.151559684544     1.007825032230
         H           -4.159941205415    -0.577363786242     0.273440315456     1.007825032230
         H           -2.571941205415     2.675636213758    -2.024559684544     1.007825032230
         H           -4.503941205415     1.311636213758    -1.265559684544     1.007825032230
         H            0.200858794585     4.329246213758    -1.480149684544     1.007825032230
         C            3.320058794585    -2.231363786242     2.306440315456    12.000000000000
         C            2.418058794585    -2.757363786242     1.214440315456    12.000000000000
         O            1.278058794585    -2.250363786242     1.089440315456    15.994914619570
         O            2.848058794585    -3.716363786242     0.538440315456    15.994914619570
         H            4.119058794585    -2.942363786242     2.526440315456     1.007825032230
         H            2.732058794585    -2.104363786242     3.218440315456     1.007825032230
         H            3.762958794585    -1.261833786242     2.034680315456     1.007825032230

  Running in c1 symmetry.

  Rotational constants: A =      0.03685  B =      0.01068  C =      0.00874 [cm^-1]
  Rotational constants: A =   1104.60697  B =    320.07046  C =    261.92566 [MHz]
  Nuclear repulsion =  801.494709232741684

  Charge       = -1
  Multiplicity = 1
  Electrons    = 102
  Nalpha       = 51
  Nbeta        = 51

  ==> Algorithm <==

  SCF Algorithm Type is PK.
  DIIS enabled.
  MOM disabled.
  Fractional occupation disabled.
  Guess Type is SAD.
  Energy threshold   = 1.00e-06
  Density threshold  = 1.00e-10
  Integral threshold = 0.00e+00

  ==> Primary Basis <==

  Basis Set: CC-PVDZ
    Blend: CC-PVDZ
    Number of shells: 120
    Number of basis function: 256
    Number of Cartesian functions: 270
    Spherical Harmonics?: true
    Max angular momentum: 2

  ==> Pre-Iterations <==

   -------------------------------------------------------
    Irrep   Nso     Nmo     Nalpha   Nbeta   Ndocc  Nsocc
   -------------------------------------------------------
     A        256     256       0       0       0       0
   -------------------------------------------------------
    Total     256     256      51      51      51       0
   -------------------------------------------------------

  ==> Integral Setup <==

  Using integral reordering PK algorithm.
  Sizing the integral batches needed.
  Building batch lookup table.
   Calculation information:
      Number of atoms:                  26
      Number of AO shells:             120
      Number of primitives:            368
      Number of atomic orbitals:       270
      Number of basis functions:       256

      Integral cutoff                 1.00e-12
      Number of threads:                 1

	Batch   1 pq = [       0,    9405] index = [             0,44231715] size =     44231715
	Batch   2 pq = [    9405,   13301] index = [      44231715,88464951] size =     44233236
	Batch   3 pq = [   13301,   16290] index = [      88464951,132690195] size =     44225244
	Batch   4 pq = [   16290,   18810] index = [     132690195,176917455] size =     44227260
	Batch   5 pq = [   18810,   21030] index = [     176917455,221140965] size =     44223510
	Batch   6 pq = [   21030,   23037] index = [     221140965,265363203] size =     44222238
	Batch   7 pq = [   23037,   24883] index = [     265363203,309594286] size =     44231083
	Batch   8 pq = [   24883,   26601] index = [     309594286,353819901] size =     44225615
	Batch   9 pq = [   26601,   28214] index = [     353819901,398029005] size =     44209104
	Batch  10 pq = [   28214,   29740] index = [     398029005,442248670] size =     44219665
	Batch  11 pq = [   29740,   31191] index = [     442248670,486454836] size =     44206166
	Batch  12 pq = [   31191,   32578] index = [     486454836,530679331] size =     44224495
	Batch  13 pq = [   32578,   32896] index = [     530679331,541089856] size =     10410525
  Task number: 49
  Buffer size: 11059200
  Buffer per thread: 2
  We computed 21340058 shell quartets total.
  Whereas there are 26357430 unique shell quartets.

  ==> DiskJK: Disk-Based J/K Matrices <==

    J tasked:                  Yes
    K tasked:                  Yes
    wK tasked:                  No
    Memory [MiB]:              375
    Schwarz Cutoff:          1E-12

    OpenMP threads:              1

  Minimum eigenvalue in the overlap matrix is 2.4079534878E-04.
  Using Symmetric Orthogonalization.

  SCF Guess: Superposition of Atomic Densities via on-the-fly atomic UHF.

  ==> Iterations <==

                        Total Energy        Delta E     RMS |[F,P]|

   @RHF iter SAD:  -626.61659292795935   -6.26617e+02   0.00000e+00
   @RHF iter   1:  -627.43875947411891   -8.22167e-01   3.18377e-03 DIIS
   @RHF iter   2:  -627.72813041779739   -2.89371e-01   1.70184e-03 DIIS
   @RHF iter   3:  -627.80268251628331   -7.45521e-02   3.19013e-04 DIIS
   @RHF iter   4:  -627.80694092049703   -4.25840e-03   1.21839e-04 DIIS
   @RHF iter   5:  -627.80754470571424   -6.03785e-04   2.21418e-05 DIIS
   @RHF iter   6:  -627.80757151387309   -2.68082e-05   1.16340e-05 DIIS
   @RHF iter   7:  -627.80757812631816   -6.61245e-06   2.97855e-06 DIIS
   @RHF iter   8:  -627.80757923178612   -1.10547e-06   1.24468e-06 DIIS
   @RHF iter   9:  -627.80757941739193   -1.85606e-07   5.21992e-07 DIIS
   @RHF iter  10:  -627.80757944763377   -3.02418e-08   1.85530e-07 DIIS
   @RHF iter  11:  -627.80757945312405   -5.49028e-09   8.58563e-08 DIIS
   @RHF iter  12:  -627.80757945425205   -1.12800e-09   4.37794e-08 DIIS
   @RHF iter  13:  -627.80757945463097   -3.78918e-10   1.76255e-08 DIIS
   @RHF iter  14:  -627.80757945467269   -4.17231e-11   5.42365e-09 DIIS
   @RHF iter  15:  -627.80757945467872   -6.02540e-12   2.26026e-09 DIIS
   @RHF iter  16:  -627.80757945467781    9.09495e-13   9.52328e-10 DIIS
   @RHF iter  17:  -627.80757945467622    1.59162e-12   4.10857e-10 DIIS
   @RHF iter  18:  -627.80757945467519    1.02318e-12   1.31892e-10 DIIS
   @RHF iter  19:  -627.80757945467406    1.13687e-12   6.73379e-11 DIIS
  Energy and wave function converged.

  ==> Post-Iterations <==

    Orbital Energies [Eh]
    ---------------------

    Doubly Occupied:

       1A    -20.294053     2A    -20.283813     3A    -15.469236
       4A    -11.155740     5A    -11.151703     6A    -11.142231
       7A    -11.138205     8A    -11.129878     9A    -11.127740
      10A    -11.124114    11A    -11.123625    12A    -11.113943
      13A    -11.108766    14A    -11.067266    15A     -1.177294
      16A     -1.173262    17A     -1.066738    18A     -1.024305
      19A     -0.969810    20A     -0.895697    21A     -0.883335
      22A     -0.829133    23A     -0.816504    24A     -0.733253
      25A     -0.696926    26A     -0.646438    27A     -0.604563
      28A     -0.556611    29A     -0.541893    30A     -0.527383
      31A     -0.498647    32A     -0.491492    33A     -0.482834
      34A     -0.466235    35A     -0.451347    36A     -0.440521
      37A     -0.433598    38A     -0.430719    39A     -0.427596
      40A     -0.424384    41A     -0.395768    42A     -0.369014
      43A     -0.363174    44A     -0.356971    45A     -0.328571
      46A     -0.267956    47A     -0.211744    48A     -0.199623
      49A     -0.192426    50A     -0.187056    51A     -0.170148

    Virtual:

      52A      0.230039    53A      0.271276    54A      0.272395
      55A      0.293448    56A      0.303865    57A      0.324141
      58A      0.326361    59A      0.338841    60A      0.356275
      61A      0.366189    62A      0.373379    63A      0.379580
      64A      0.387058    65A      0.404296    66A      0.447280
      67A      0.456871    68A      0.478953    69A      0.486473
      70A      0.523621    71A      0.528120    72A      0.549010
      73A      0.561934    74A      0.575492    75A      0.591003
      76A      0.612532    77A      0.620033    78A      0.677633
      79A      0.698168    80A      0.718328    81A      0.728754
      82A      0.733401    83A      0.746127    84A      0.773664
      85A      0.790848    86A      0.803219    87A      0.815514
      88A      0.820826    89A      0.825849    90A      0.829871
      91A      0.838531    92A      0.841262    93A      0.845004
      94A      0.849769    95A      0.865382    96A      0.881683
      97A      0.884355    98A      0.899637    99A      0.905749
     100A      0.932267   101A      0.943657   102A      0.952035
     103A      0.956252   104A      0.965464   105A      0.967422
     106A      0.987897   107A      0.996102   108A      0.997812
     109A      1.002107   110A      1.013452   111A      1.021424
     112A      1.022455   113A      1.035783   114A      1.054406
     115A      1.057577   116A      1.074336   117A      1.087627
     118A      1.092301   119A      1.117895   120A      1.162348
     121A      1.167567   122A      1.187218   123A      1.197308
     124A      1.212032   125A      1.230126   126A      1.239131
     127A      1.253077   128A      1.259311   129A      1.283195
     130A      1.306596   131A      1.318057   132A      1.326012
     133A      1.333395   134A      1.338468   135A      1.345545
     136A      1.353428   137A      1.377665   138A      1.384209
     139A      1.407657   140A      1.428443   141A      1.436732
     142A      1.446517   143A      1.466809   144A      1.482375
     145A      1.513626   146A      1.528964   147A      1.544918
     148A      1.550568   149A      1.557495   150A      1.607734
     151A      1.640561   152A      1.657627   153A      1.664333
     154A      1.679638   155A      1.691863   156A      1.716211
     157A      1.733976   158A      1.738947   159A      1.751060
     160A      1.769889   161A      1.780240   162A      1.815246
     163A      1.823596   164A      1.827613   165A      1.856879
     166A      1.863857   167A      1.888739   168A      1.891898
     169A      1.913748   170A      1.925446   171A      1.945482
     172A      1.989056   173A      1.996166   174A      2.010444
     175A      2.014208   176A      2.023631   177A      2.029440
     178A      2.038267   179A      2.043399   180A      2.053785
     181A      2.057898   182A      2.077642   183A      2.085557
     184A      2.097397   185A      2.122506   186A      2.125297
     187A      2.133058   188A      2.162206   189A      2.176189
     190A      2.188839   191A      2.193415   192A      2.200795
     193A      2.214958   194A      2.226941   195A      2.233809
     196A      2.245595   197A      2.259137   198A      2.269692
     199A      2.274908   200A      2.282179   201A      2.321280
     202A      2.343990   203A      2.349916   204A      2.381829
     205A      2.402400   206A      2.411586   207A      2.418809
     208A      2.425665   209A      2.446254   210A      2.462598
     211A      2.499837   212A      2.514048   213A      2.538926
     214A      2.556275   215A      2.578307   216A      2.656198
     217A      2.663536   218A      2.702263   219A      2.710283
     220A      2.725190   221A      2.744141   222A      2.750401
     223A      2.772366   224A      2.792528   225A      2.831294
     226A      2.863344   227A      2.870229   228A      2.894817
     229A      2.900969   230A      2.920571   231A      2.946947
     232A      2.950384   233A      2.973754   234A      2.976835
     235A      2.995465   236A      3.028214   237A      3.107386
     238A      3.134204   239A      3.161042   240A      3.186480
     241A      3.221297   242A      3.237583   243A      3.247199
     244A      3.272737   245A      3.313668   246A      3.333005
     247A      3.421014   248A      3.496698   249A      3.595299
     250A      3.781004   251A      3.811953   252A      3.856286
     253A      4.030437   254A      4.059062   255A      4.084647
     256A      4.160451

    Final Occupation by Irrep:
              A
    DOCC [    51 ]

  @RHF Final Energy:  -627.80757945467406

   => Energetics <=

    Nuclear Repulsion Energy =            801.4947092327416840
    One-Electron Energy =               -2460.2780083073917012
    Two-Electron Energy =                1030.9757196199759619
    Total Energy =                       -627.8075794546741690

Computation Completed

Properties will be evaluated at   0.000000,   0.000000,   0.000000 [a0]

Properties computed using the SCF density matrix

  Nuclear Dipole Moment: [e a0]
     X:     1.9344      Y:     7.5578      Z:    -0.2265

  Electronic Dipole Moment: [e a0]
     X:    -4.0703      Y:    -3.2870      Z:    -0.4277

  Dipole Moment: [e a0]
     X:    -2.1359      Y:     4.2708      Z:    -0.6542     Total:     4.8197

  Dipole Moment: [D]
     X:    -5.4289      Y:    10.8552      Z:    -1.6629     Total:    12.2504

*** tstop() called on ds3 at Sun Apr 26 20:59:34 2020
Module time:
	user time   =     210.46 seconds =       3.51 minutes
	system time =      91.12 seconds =       1.52 minutes
	total time  =        397 seconds =       6.62 minutes
Total time:
	user time   =     210.46 seconds =       3.51 minutes
	system time =      91.12 seconds =       1.52 minutes
	total time  =        397 seconds =       6.62 minutes
                                     G D M A

                                 by Anthony Stone

                           version 2.2.06, 22 June 2011

               Distributed Multipoles from Gaussian wavefunctions

Starting at 20:59:34 on 26 Apr 2020

Using SCF density matrix from file ./SSI/SSI-008TRP-252GLU-1-dimer.test.10549.fchk

                         Distributed Multipole Analysis

Standard DMA

Positions and radii in angstrom
Multipole moments in atomic units, ea_0^k for rank k

C          x =  0.446059  y =  3.355636  z = -1.929560 angstrom
           Maximum rank =  0   Radius =  0.650 angstrom
                   Q00  =  -0.201786

C          x =  1.019059  y =  1.432636  z = -0.368560 angstrom
           Maximum rank =  0   Radius =  0.650 angstrom
                   Q00  =   0.137540

C          x = -0.973941  y =  0.488636  z =  0.011440 angstrom
           Maximum rank =  0   Radius =  0.650 angstrom
                   Q00  =   0.300073

C          x =  0.133059  y =  2.182636  z = -1.072560 angstrom
           Maximum rank =  0   Radius =  0.650 angstrom
                   Q00  =  -0.163886

C          x = -1.155941  y =  1.606636  z = -0.841560 angstrom
           Maximum rank =  0   Radius =  0.650 angstrom
                   Q00  =  -0.068997

C          x = -2.046941  y = -0.299364  z =  0.437440 angstrom
           Maximum rank =  0   Radius =  0.650 angstrom
                   Q00  =  -0.104403

C          x = -3.309941  y =  0.020636  z = -0.029560 angstrom
           Maximum rank =  0   Radius =  0.650 angstrom
                   Q00  =  -0.048197

C          x = -2.440941  y =  1.884636  z = -1.316560 angstrom
           Maximum rank =  0   Radius =  0.650 angstrom
                   Q00  =  -0.108307

C          x = -3.505941  y =  1.095636  z = -0.908560 angstrom
           Maximum rank =  0   Radius =  0.650 angstrom
                   Q00  =  -0.087126

N          x =  0.365059  y =  0.423636  z =  0.298440 angstrom
           Maximum rank =  0   Radius =  0.650 angstrom
                   Q00  =  -0.514746

H          x =  0.827059  y = -0.371364  z =  0.746440 angstrom
           Maximum rank =  0   Radius =  0.325 angstrom
                   Q00  =   0.268049

H          x =  2.092059  y =  1.588636  z = -0.350560 angstrom
           Maximum rank =  0   Radius =  0.325 angstrom
                   Q00  =   0.083970

H          x = -1.885941  y = -1.138364  z =  1.100440 angstrom
           Maximum rank =  0   Radius =  0.325 angstrom
                   Q00  =   0.092239

H          x = -0.082941  y =  3.253636  z = -2.876560 angstrom
           Maximum rank =  0   Radius =  0.325 angstrom
                   Q00  =   0.086021

H          x =  1.514059  y =  3.330636  z = -2.151560 angstrom
           Maximum rank =  0   Radius =  0.325 angstrom
                   Q00  =   0.092135

H          x = -4.159941  y = -0.577364  z =  0.273440 angstrom
           Maximum rank =  0   Radius =  0.325 angstrom
                   Q00  =   0.043084

H          x = -2.571941  y =  2.675636  z = -2.024560 angstrom
           Maximum rank =  0   Radius =  0.325 angstrom
                   Q00  =   0.046065

H          x = -4.503941  y =  1.311636  z = -1.265560 angstrom
           Maximum rank =  0   Radius =  0.325 angstrom
                   Q00  =   0.033045

H          x =  0.200859  y =  4.329246  z = -1.480150 angstrom
           Maximum rank =  0   Radius =  0.325 angstrom
                   Q00  =   0.076688

C          x =  3.320059  y = -2.231364  z =  2.306440 angstrom
           Maximum rank =  0   Radius =  0.650 angstrom
                   Q00  =  -0.280923

C          x =  2.418059  y = -2.757364  z =  1.214440 angstrom
           Maximum rank =  0   Radius =  0.650 angstrom
                   Q00  =   0.957151

O          x =  1.278059  y = -2.250364  z =  1.089440 angstrom
           Maximum rank =  0   Radius =  0.650 angstrom
                   Q00  =  -0.932504

O          x =  2.848059  y = -3.716364  z =  0.538440 angstrom
           Maximum rank =  0   Radius =  0.650 angstrom
                   Q00  =  -0.901063

H          x =  4.119059  y = -2.942364  z =  2.526440 angstrom
           Maximum rank =  0   Radius =  0.325 angstrom
                   Q00  =   0.063539

H          x =  2.732059  y = -2.104364  z =  3.218440 angstrom
           Maximum rank =  0   Radius =  0.325 angstrom
                   Q00  =   0.061182

H          x =  3.762959  y = -1.261834  z =  2.034680 angstrom
           Maximum rank =  0   Radius =  0.325 angstrom
                   Q00  =   0.071157

Total multipoles referred to origin at
           x =   0.000000,  y =    0.000000,  z =    0.000000 angstrom
                   Q00  =  -1.000000

Finished at 20:59:34 on 26 Apr 2020

  DMA results are available in the Python driver through the
	  variable('DMA DISTRIBUTED MULTIPOLES')
  and
	  variable('DMA TOTAL MULTIPOLES')
  commands.

    Psi4 stopped on: Sunday, 26 April 2020 08:59PM
    Psi4 wall time for execution: 0:06:36.53

*** Psi4 exiting successfully. Buy a developer a beer!
