                               Psi4 1.3.2 release

  ==> Input File <==

--------------------------------------------------------------------------
import numpy as np
set {scf_type pk
basis cc-pvdz
d_convergence 10
gdma_switch   0
gdma_limit    0
gdma_origin   [ 0.0,  0.0,  0.0 ]
}
molecule test {
    units Angstrom
    0 1
    --
    0 1
    C               -0.871549885751231    -0.008027234351064     1.591788137298894
    C               -0.241549885751231    -0.244027234351064     2.983788137298894
    C               -2.050549885751231    -0.862027234351064     1.355788137298894
    O               -1.949549885751231    -2.078027234351064     1.366788137298894
    N               -3.194549885751232    -0.241027234351064     1.105788137298894
    H               -1.141549885751231     1.042972765648936     1.482788137298894
    H               -0.139549885751231    -0.252027234351064     0.828788137298894
    H               -0.976549885751231    -0.062027234351064     3.772788137298894
    H               -4.012549885751231    -0.802027234351064     0.916788137298894
    H               -3.240549885751231     0.766972765648936     1.084788137298894
    H                0.611550114248769     0.445162765648936     3.068868137298894
    H                0.198320114248769    -1.245707234351064     3.098478137298894
    C                3.176450114248769    -1.508027234351064    -0.402211862701106
    C                0.038450114248769     0.102972765648936    -1.912211862701106
    C                0.990450114248769    -0.870027234351064    -1.601211862701106
    C                0.207450114248769     1.412972765648936    -1.471211862701106
    C                2.095450114248769    -0.534027234351064    -0.792211862701106
    C                1.286450114248769     1.734972765648936    -0.674211862701106
    C                2.226450114248768     0.776972765648936    -0.354211862701106
    O               -0.702549885751231     2.380972765648936    -1.786211862701106
    H               -0.816549885751231    -0.157027234351064    -2.520211862701106
    H                0.845450114248769    -1.876027234351064    -1.970211862701106
    H               -1.413549885751231     2.038972765648936    -2.342211862701106
    H                1.400450114248769     2.750972765648936    -0.322211862701106
    H                3.350450114248769    -1.417027234351064     0.671788137298894
    H                4.093450114248768    -1.194027234351064    -0.899211862701106
    H                3.072450114248769     1.047972765648936     0.254788137298894
    H                2.994580114248769    -2.566748234351063    -0.638926862701106

}
e, wfn = energy('scf', return_wfn=True)
gdma(wfn)
dmavals = variable('DMA DISTRIBUTED MULTIPOLES')
charges = np.array(dmavals)
print(charges)
np.save('SSI-129ASN-132TYR-1-dimer.npy', np.array(charges))--------------------------------------------------------------------------

*** tstart() called on ds3
*** at Tue Apr 28 10:19:15 2020

   => Loading Basis Set <=

    Name: CC-PVDZ
    Role: ORBITAL
    Keyword: BASIS
    atoms 1-3, 13-19  entry C          line   138 file /theoryfs2/ds/metcalf/miniconda2/envs/tf2gpu/share/psi4/basis/cc-pvdz.gbs
    atoms 4, 20       entry O          line   198 file /theoryfs2/ds/metcalf/miniconda2/envs/tf2gpu/share/psi4/basis/cc-pvdz.gbs
    atoms 5           entry N          line   168 file /theoryfs2/ds/metcalf/miniconda2/envs/tf2gpu/share/psi4/basis/cc-pvdz.gbs
    atoms 6-12, 21-28 entry H          line    22 file /theoryfs2/ds/metcalf/miniconda2/envs/tf2gpu/share/psi4/basis/cc-pvdz.gbs

         ---------------------------------------------------------
                                   SCF
               by Justin Turney, Rob Parrish, Andy Simmonett
                          and Daniel G. A. Smith
                              RHF Reference
                        1 Threads,    500 MiB Core
         ---------------------------------------------------------

  ==> Geometry <==

    Molecular point group: c1
    Full point group: C1

    Geometry (in Angstrom), charge = 0, multiplicity = 1:

       Center              X                  Y                   Z               Mass
    ------------   -----------------  -----------------  -----------------  -----------------
         C           -0.871549885751    -0.008027234351     1.591788137299    12.000000000000
         C           -0.241549885751    -0.244027234351     2.983788137299    12.000000000000
         C           -2.050549885751    -0.862027234351     1.355788137299    12.000000000000
         O           -1.949549885751    -2.078027234351     1.366788137299    15.994914619570
         N           -3.194549885751    -0.241027234351     1.105788137299    14.003074004430
         H           -1.141549885751     1.042972765649     1.482788137299     1.007825032230
         H           -0.139549885751    -0.252027234351     0.828788137299     1.007825032230
         H           -0.976549885751    -0.062027234351     3.772788137299     1.007825032230
         H           -4.012549885751    -0.802027234351     0.916788137299     1.007825032230
         H           -3.240549885751     0.766972765649     1.084788137299     1.007825032230
         H            0.611550114249     0.445162765649     3.068868137299     1.007825032230
         H            0.198320114249    -1.245707234351     3.098478137299     1.007825032230
         C            3.176450114249    -1.508027234351    -0.402211862701    12.000000000000
         C            0.038450114249     0.102972765649    -1.912211862701    12.000000000000
         C            0.990450114249    -0.870027234351    -1.601211862701    12.000000000000
         C            0.207450114249     1.412972765649    -1.471211862701    12.000000000000
         C            2.095450114249    -0.534027234351    -0.792211862701    12.000000000000
         C            1.286450114249     1.734972765649    -0.674211862701    12.000000000000
         C            2.226450114249     0.776972765649    -0.354211862701    12.000000000000
         O           -0.702549885751     2.380972765649    -1.786211862701    15.994914619570
         H           -0.816549885751    -0.157027234351    -2.520211862701     1.007825032230
         H            0.845450114249    -1.876027234351    -1.970211862701     1.007825032230
         H           -1.413549885751     2.038972765649    -2.342211862701     1.007825032230
         H            1.400450114249     2.750972765649    -0.322211862701     1.007825032230
         H            3.350450114249    -1.417027234351     0.671788137299     1.007825032230
         H            4.093450114249    -1.194027234351    -0.899211862701     1.007825032230
         H            3.072450114249     1.047972765649     0.254788137299     1.007825032230
         H            2.994580114249    -2.566748234351    -0.638926862701     1.007825032230

  Running in c1 symmetry.

  Rotational constants: A =      0.02962  B =      0.01757  C =      0.01420 [cm^-1]
  Rotational constants: A =    888.03926  B =    526.72146  C =    425.84356 [MHz]
  Nuclear repulsion =  785.124229298469118

  Charge       = 0
  Multiplicity = 1
  Electrons    = 98
  Nalpha       = 49
  Nbeta        = 49

  ==> Algorithm <==

  SCF Algorithm Type is PK.
  DIIS enabled.
  MOM disabled.
  Fractional occupation disabled.
  Guess Type is SAD.
  Energy threshold   = 1.00e-06
  Density threshold  = 1.00e-10
  Integral threshold = 0.00e+00

  ==> Primary Basis <==

  Basis Set: CC-PVDZ
    Blend: CC-PVDZ
    Number of shells: 123
    Number of basis function: 257
    Number of Cartesian functions: 270
    Spherical Harmonics?: true
    Max angular momentum: 2

  ==> Pre-Iterations <==

   -------------------------------------------------------
    Irrep   Nso     Nmo     Nalpha   Nbeta   Ndocc  Nsocc
   -------------------------------------------------------
     A        257     257       0       0       0       0
   -------------------------------------------------------
    Total     257     257      49      49      49       0
   -------------------------------------------------------

  ==> Integral Setup <==

  Using integral reordering PK algorithm.
  Sizing the integral batches needed.
  Building batch lookup table.
   Calculation information:
      Number of atoms:                  28
      Number of AO shells:             123
      Number of primitives:            361
      Number of atomic orbitals:       270
      Number of basis functions:       257

      Integral cutoff                 1.00e-12
      Number of threads:                 1

	Batch   1 pq = [       0,    9405] index = [             0,44231715] size =     44231715
	Batch   2 pq = [    9405,   13301] index = [      44231715,88464951] size =     44233236
	Batch   3 pq = [   13301,   16290] index = [      88464951,132690195] size =     44225244
	Batch   4 pq = [   16290,   18810] index = [     132690195,176917455] size =     44227260
	Batch   5 pq = [   18810,   21030] index = [     176917455,221140965] size =     44223510
	Batch   6 pq = [   21030,   23037] index = [     221140965,265363203] size =     44222238
	Batch   7 pq = [   23037,   24883] index = [     265363203,309594286] size =     44231083
	Batch   8 pq = [   24883,   26601] index = [     309594286,353819901] size =     44225615
	Batch   9 pq = [   26601,   28214] index = [     353819901,398029005] size =     44209104
	Batch  10 pq = [   28214,   29740] index = [     398029005,442248670] size =     44219665
	Batch  11 pq = [   29740,   31191] index = [     442248670,486454836] size =     44206166
	Batch  12 pq = [   31191,   32578] index = [     486454836,530679331] size =     44224495
	Batch  13 pq = [   32578,   33153] index = [     530679331,549577281] size =     18897950
  Task number: 50
  Buffer size: 11059200
  Buffer per thread: 2
  We computed 31588386 shell quartets total.
  Whereas there are 29081751 unique shell quartets.
     8.62 percent of shell quartets recomputed by reordering.

  ==> DiskJK: Disk-Based J/K Matrices <==

    J tasked:                  Yes
    K tasked:                  Yes
    wK tasked:                  No
    Memory [MiB]:              375
    Schwarz Cutoff:          1E-12

    OpenMP threads:              1

  Minimum eigenvalue in the overlap matrix is 3.2563643401E-04.
  Using Symmetric Orthogonalization.

  SCF Guess: Superposition of Atomic Densities via on-the-fly atomic UHF.

  ==> Iterations <==

                        Total Energy        Delta E     RMS |[F,P]|

   @RHF iter SAD:  -590.39194633638851   -5.90392e+02   0.00000e+00
   @RHF iter   1:  -591.30275493123099   -9.10809e-01   3.00494e-03 DIIS
   @RHF iter   2:  -591.58217794127074   -2.79423e-01   1.53648e-03 DIIS
   @RHF iter   3:  -591.64487791565875   -6.27000e-02   3.63577e-04 DIIS
   @RHF iter   4:  -591.64994066825398   -5.06275e-03   1.50078e-04 DIIS
   @RHF iter   5:  -591.65079681062059   -8.56142e-04   2.17388e-05 DIIS
   @RHF iter   6:  -591.65083657284970   -3.97622e-05   9.24033e-06 DIIS
   @RHF iter   7:  -591.65084242847252   -5.85562e-06   3.73892e-06 DIIS
   @RHF iter   8:  -591.65084361271136   -1.18424e-06   1.42969e-06 DIIS
   @RHF iter   9:  -591.65084380181565   -1.89104e-07   5.47755e-07 DIIS
   @RHF iter  10:  -591.65084382596820   -2.41525e-08   1.73518e-07 DIIS
   @RHF iter  11:  -591.65084382929922   -3.33102e-09   6.64782e-08 DIIS
   @RHF iter  12:  -591.65084382974851   -4.49290e-10   2.87226e-08 DIIS
   @RHF iter  13:  -591.65084382986447   -1.15961e-10   1.29119e-08 DIIS
   @RHF iter  14:  -591.65084382989517   -3.06954e-11   5.48919e-09 DIIS
   @RHF iter  15:  -591.65084382990392   -8.75389e-12   2.13315e-09 DIIS
   @RHF iter  16:  -591.65084382990131    2.61480e-12   7.87429e-10 DIIS
   @RHF iter  17:  -591.65084382989869    2.61480e-12   2.71247e-10 DIIS
   @RHF iter  18:  -591.65084382989892   -2.27374e-13   9.23820e-11 DIIS
  Energy and wave function converged.

  ==> Post-Iterations <==

    Orbital Energies [Eh]
    ---------------------

    Doubly Occupied:

       1A    -20.589281     2A    -20.490931     3A    -15.580825
       4A    -11.328801     5A    -11.301827     6A    -11.244777
       7A    -11.239983     8A    -11.238578     9A    -11.237658
      10A    -11.232383    11A    -11.229116    12A    -11.223114
      13A    -11.220776    14A     -1.404181    15A     -1.362756
      16A     -1.209620    17A     -1.156930    18A     -1.042085
      19A     -1.038137    20A     -1.023559    21A     -0.929531
      22A     -0.885045    23A     -0.847978    24A     -0.806469
      25A     -0.778314    26A     -0.737186    27A     -0.715884
      28A     -0.669255    29A     -0.658419    30A     -0.645993
      31A     -0.615584    32A     -0.612550    33A     -0.591327
      34A     -0.590588    35A     -0.576031    36A     -0.571626
      37A     -0.569654    38A     -0.559420    39A     -0.532539
      40A     -0.512605    41A     -0.500332    42A     -0.496701
      43A     -0.489385    44A     -0.488864    45A     -0.460097
      46A     -0.397915    47A     -0.395938    48A     -0.344784
      49A     -0.305710

    Virtual:

      50A      0.125903    51A      0.151328    52A      0.161356
      53A      0.173384    54A      0.190620    55A      0.204691
      56A      0.209840    57A      0.220334    58A      0.229215
      59A      0.242048    60A      0.259462    61A      0.262151
      62A      0.268017    63A      0.270278    64A      0.282671
      65A      0.289416    66A      0.304633    67A      0.323453
      68A      0.368353    69A      0.372995    70A      0.390548
      71A      0.427592    72A      0.430908    73A      0.450539
      74A      0.465920    75A      0.479428    76A      0.491306
      77A      0.506741    78A      0.565832    79A      0.591302
      80A      0.611159    81A      0.620054    82A      0.633155
      83A      0.648801    84A      0.653895    85A      0.658915
      86A      0.678457    87A      0.686119    88A      0.691257
      89A      0.702788    90A      0.724710    91A      0.731789
      92A      0.735114    93A      0.760573    94A      0.773073
      95A      0.784553    96A      0.793929    97A      0.805269
      98A      0.816159    99A      0.825428   100A      0.848122
     101A      0.852439   102A      0.860367   103A      0.866930
     104A      0.875935   105A      0.879045   106A      0.888111
     107A      0.892709   108A      0.898464   109A      0.902955
     110A      0.916115   111A      0.922290   112A      0.930522
     113A      0.938787   114A      0.946804   115A      0.948044
     116A      0.957454   117A      0.973389   118A      0.975752
     119A      0.984365   120A      1.017779   121A      1.023320
     122A      1.029706   123A      1.048230   124A      1.062120
     125A      1.112740   126A      1.117518   127A      1.122741
     128A      1.143224   129A      1.155911   130A      1.174601
     131A      1.207757   132A      1.230846   133A      1.240560
     134A      1.247382   135A      1.277481   136A      1.280481
     137A      1.295134   138A      1.303406   139A      1.317759
     140A      1.320967   141A      1.346334   142A      1.348303
     143A      1.360407   144A      1.393587   145A      1.411476
     146A      1.415616   147A      1.430896   148A      1.464808
     149A      1.479698   150A      1.489031   151A      1.505114
     152A      1.524627   153A      1.535410   154A      1.556601
     155A      1.569975   156A      1.609446   157A      1.613243
     158A      1.656996   159A      1.675638   160A      1.687048
     161A      1.690652   162A      1.715962   163A      1.737257
     164A      1.762259   165A      1.784668   166A      1.802622
     167A      1.805174   168A      1.820726   169A      1.848837
     170A      1.864318   171A      1.872523   172A      1.885790
     173A      1.893767   174A      1.899427   175A      1.905401
     176A      1.914122   177A      1.922918   178A      1.931065
     179A      1.934736   180A      1.941969   181A      1.947076
     182A      1.953250   183A      1.963374   184A      1.974512
     185A      1.975128   186A      1.997749   187A      2.011121
     188A      2.026042   189A      2.033710   190A      2.055662
     191A      2.057920   192A      2.077523   193A      2.080901
     194A      2.094322   195A      2.099418   196A      2.121605
     197A      2.123987   198A      2.153985   199A      2.169890
     200A      2.176307   201A      2.202909   202A      2.220004
     203A      2.230208   204A      2.264804   205A      2.274474
     206A      2.302435   207A      2.315266   208A      2.341827
     209A      2.378052   210A      2.397675   211A      2.408720
     212A      2.429166   213A      2.452715   214A      2.468579
     215A      2.470498   216A      2.489452   217A      2.501871
     218A      2.520052   219A      2.527799   220A      2.566360
     221A      2.574842   222A      2.584547   223A      2.608335
     224A      2.621773   225A      2.640591   226A      2.659305
     227A      2.742711   228A      2.762829   229A      2.774385
     230A      2.775159   231A      2.790362   232A      2.807277
     233A      2.835950   234A      2.847482   235A      2.894997
     236A      2.915105   237A      2.923222   238A      2.972523
     239A      2.995468   240A      2.998115   241A      3.031527
     242A      3.093331   243A      3.124856   244A      3.135230
     245A      3.148904   246A      3.244447   247A      3.285806
     248A      3.313117   249A      3.340987   250A      3.543962
     251A      3.561844   252A      3.571278   253A      3.676927
     254A      3.903883   255A      3.932414   256A      3.963504
     257A      4.190857

    Final Occupation by Irrep:
              A
    DOCC [    49 ]

  @RHF Final Energy:  -591.65084382989892

   => Energetics <=

    Nuclear Repulsion Energy =            785.1242292984691176
    One-Electron Energy =               -2364.1880586822890109
    Two-Electron Energy =                 987.4129855539209757
    Total Energy =                       -591.6508438298989176

Computation Completed

Properties will be evaluated at   0.000000,   0.000000,   0.000000 [a0]

Properties computed using the SCF density matrix

  Nuclear Dipole Moment: [e a0]
     X:     4.5206      Y:    -1.3849      Z:     6.0760

  Electronic Dipole Moment: [e a0]
     X:    -4.9039      Y:     2.4107      Z:    -6.5179

  Dipole Moment: [e a0]
     X:    -0.3832      Y:     1.0258      Z:    -0.4418     Total:     1.1808

  Dipole Moment: [D]
     X:    -0.9741      Y:     2.6072      Z:    -1.1230     Total:     3.0013

*** tstop() called on ds3 at Tue Apr 28 10:28:16 2020
Module time:
	user time   =     244.63 seconds =       4.08 minutes
	system time =      81.25 seconds =       1.35 minutes
	total time  =        541 seconds =       9.02 minutes
Total time:
	user time   =     244.63 seconds =       4.08 minutes
	system time =      81.25 seconds =       1.35 minutes
	total time  =        541 seconds =       9.02 minutes
                                     G D M A

                                 by Anthony Stone

                           version 2.2.06, 22 June 2011

               Distributed Multipoles from Gaussian wavefunctions

Starting at 10:28:16 on 28 Apr 2020

Using SCF density matrix from file ./SSI/SSI-129ASN-132TYR-1-dimer.test.9299.fchk

                         Distributed Multipole Analysis

Standard DMA

Positions and radii in angstrom
Multipole moments in atomic units, ea_0^k for rank k

C          x = -0.871550  y = -0.008027  z =  1.591788 angstrom
           Maximum rank =  0   Radius =  0.650 angstrom
                   Q00  =  -0.114166

C          x = -0.241550  y = -0.244027  z =  2.983788 angstrom
           Maximum rank =  0   Radius =  0.650 angstrom
                   Q00  =  -0.231368

C          x = -2.050550  y = -0.862027  z =  1.355788 angstrom
           Maximum rank =  0   Radius =  0.650 angstrom
                   Q00  =   0.847298

O          x = -1.949550  y = -2.078027  z =  1.366788 angstrom
           Maximum rank =  0   Radius =  0.650 angstrom
                   Q00  =  -0.826667

N          x = -3.194550  y = -0.241027  z =  1.105788 angstrom
           Maximum rank =  0   Radius =  0.650 angstrom
                   Q00  =  -0.532535

H          x = -1.141550  y =  1.042973  z =  1.482788 angstrom
           Maximum rank =  0   Radius =  0.325 angstrom
                   Q00  =   0.035504

H          x = -0.139550  y = -0.252027  z =  0.828788 angstrom
           Maximum rank =  0   Radius =  0.325 angstrom
                   Q00  =   0.128515

H          x = -0.976550  y = -0.062027  z =  3.772788 angstrom
           Maximum rank =  0   Radius =  0.325 angstrom
                   Q00  =   0.079685

H          x = -4.012550  y = -0.802027  z =  0.916788 angstrom
           Maximum rank =  0   Radius =  0.325 angstrom
                   Q00  =   0.211258

H          x = -3.240550  y =  0.766973  z =  1.084788 angstrom
           Maximum rank =  0   Radius =  0.325 angstrom
                   Q00  =   0.206237

H          x =  0.611550  y =  0.445163  z =  3.068868 angstrom
           Maximum rank =  0   Radius =  0.325 angstrom
                   Q00  =   0.076840

H          x =  0.198320  y = -1.245707  z =  3.098478 angstrom
           Maximum rank =  0   Radius =  0.325 angstrom
                   Q00  =   0.107794

C          x =  3.176450  y = -1.508027  z = -0.402212 angstrom
           Maximum rank =  0   Radius =  0.650 angstrom
                   Q00  =  -0.198705

C          x =  0.038450  y =  0.102973  z = -1.912212 angstrom
           Maximum rank =  0   Radius =  0.650 angstrom
                   Q00  =  -0.196638

C          x =  0.990450  y = -0.870027  z = -1.601212 angstrom
           Maximum rank =  0   Radius =  0.650 angstrom
                   Q00  =  -0.063874

C          x =  0.207450  y =  1.412973  z = -1.471212 angstrom
           Maximum rank =  0   Radius =  0.650 angstrom
                   Q00  =   0.318828

C          x =  2.095450  y = -0.534027  z = -0.792212 angstrom
           Maximum rank =  0   Radius =  0.650 angstrom
                   Q00  =  -0.130413

C          x =  1.286450  y =  1.734973  z = -0.674212 angstrom
           Maximum rank =  0   Radius =  0.650 angstrom
                   Q00  =  -0.067209

C          x =  2.226450  y =  0.776973  z = -0.354212 angstrom
           Maximum rank =  0   Radius =  0.650 angstrom
                   Q00  =   0.027984

O          x = -0.702550  y =  2.380973  z = -1.786212 angstrom
           Maximum rank =  0   Radius =  0.650 angstrom
                   Q00  =  -0.676369

H          x = -0.816550  y = -0.157027  z = -2.520212 angstrom
           Maximum rank =  0   Radius =  0.325 angstrom
                   Q00  =   0.074830

H          x =  0.845450  y = -1.876027  z = -1.970212 angstrom
           Maximum rank =  0   Radius =  0.325 angstrom
                   Q00  =   0.080864

H          x = -1.413550  y =  2.038973  z = -2.342212 angstrom
           Maximum rank =  0   Radius =  0.325 angstrom
                   Q00  =   0.406223

H          x =  1.400450  y =  2.750973  z = -0.322212 angstrom
           Maximum rank =  0   Radius =  0.325 angstrom
                   Q00  =   0.078053

H          x =  3.350450  y = -1.417027  z =  0.671788 angstrom
           Maximum rank =  0   Radius =  0.325 angstrom
                   Q00  =   0.096370

H          x =  4.093450  y = -1.194027  z = -0.899212 angstrom
           Maximum rank =  0   Radius =  0.325 angstrom
                   Q00  =   0.095723

H          x =  3.072450  y =  1.047973  z =  0.254788 angstrom
           Maximum rank =  0   Radius =  0.325 angstrom
                   Q00  =   0.059705

H          x =  2.994580  y = -2.566748  z = -0.638927 angstrom
           Maximum rank =  0   Radius =  0.325 angstrom
                   Q00  =   0.106234

Total multipoles referred to origin at
           x =   0.000000,  y =    0.000000,  z =    0.000000 angstrom
                   Q00  =  -0.000000

Finished at 10:28:16 on 28 Apr 2020

  DMA results are available in the Python driver through the
	  variable('DMA DISTRIBUTED MULTIPOLES')
  and
	  variable('DMA TOTAL MULTIPOLES')
  commands.

    Psi4 stopped on: Tuesday, 28 April 2020 10:28AM
    Psi4 wall time for execution: 0:09:01.05

*** Psi4 exiting successfully. Buy a developer a beer!
