                               Psi4 1.3.2 release

  ==> Input File <==

--------------------------------------------------------------------------
import numpy as np
set {scf_type pk
basis cc-pvdz
d_convergence 10
gdma_switch   0
gdma_limit    0
gdma_origin   [ 0.0,  0.0,  0.0 ]
}
molecule test {
    units Angstrom
    0 1
    --
    0 1
    C                1.129955266503685    -1.594002119096199    -2.257818738095972
    C                0.247955266503685    -1.442002119096200     0.135181261904028
    C               -0.010044733496315    -1.501002119096199    -1.250818738095972
    C               -0.808044733496315    -1.370002119096199     1.071181261904028
    C               -1.338044733496315    -1.490002119096200    -1.698818738095972
    C               -2.132044733496315    -1.373002119096199     0.603181261904028
    C               -2.395044733496315    -1.431002119096199    -0.781818738095972
    H                1.274955266503685    -1.451002119096199     0.479181261904028
    H               -0.595044733496315    -1.314002119096199     2.134181261904028
    H                0.856955266503685    -2.355002119096199    -2.986818738095972
    H                2.009955266503685    -1.931002119096200    -1.714818738095972
    H               -1.546044733496315    -1.526002119096199    -2.760818738095972
    H               -2.955044733496315    -1.330002119096199     1.306181261904028
    H               -3.416044733496315    -1.428002119096199    -1.141818738095972
    H                1.374609266503685    -0.656042119096199    -2.777798738095972
    C                1.100955266503685     2.054997880903800     0.690181261904028
    C                1.956955266503685     3.250997880903800     0.169181261904028
    C                1.813955266503685     1.417997880903801     1.901181261904028
    C               -0.286044733496315     2.503997880903801     1.173181261904028
    H                0.988955266503685     1.307997880903801    -0.096818738095972
    H                2.055955266503685     3.976997880903800     0.978181261904028
    H                1.922955266503685     2.158997880903801     2.695181261904028
    H                1.231955266503685     0.573997880903801     2.275181261904028
    H                2.800955266503685     1.063997880903800     1.603181261904028
    H               -0.821044733496315     2.983997880903801     0.356181261904028
    H               -0.855044733496315     1.638997880903801     1.518181261904028
    H               -0.178044733496315     3.207997880903800     1.993181261904028
    H                1.509205266503685     3.780697880903801    -0.684598738095972
    H                2.906725266503685     2.882997880903801    -0.246168738095972

}
e, wfn = energy('scf', return_wfn=True)
gdma(wfn)
dmavals = variable('DMA DISTRIBUTED MULTIPOLES')
charges = np.array(dmavals)
print(charges)
np.save('SSI-034PHE-100VAL-2-dimer.npy', np.array(charges))--------------------------------------------------------------------------

*** tstart() called on ds3
*** at Tue Apr 28 08:26:30 2020

   => Loading Basis Set <=

    Name: CC-PVDZ
    Role: ORBITAL
    Keyword: BASIS
    atoms 1-7, 16-19  entry C          line   138 file /theoryfs2/ds/metcalf/miniconda2/envs/tf2gpu/share/psi4/basis/cc-pvdz.gbs
    atoms 8-15, 20-29 entry H          line    22 file /theoryfs2/ds/metcalf/miniconda2/envs/tf2gpu/share/psi4/basis/cc-pvdz.gbs

         ---------------------------------------------------------
                                   SCF
               by Justin Turney, Rob Parrish, Andy Simmonett
                          and Daniel G. A. Smith
                              RHF Reference
                        1 Threads,    500 MiB Core
         ---------------------------------------------------------

  ==> Geometry <==

    Molecular point group: c1
    Full point group: C1

    Geometry (in Angstrom), charge = 0, multiplicity = 1:

       Center              X                  Y                   Z               Mass
    ------------   -----------------  -----------------  -----------------  -----------------
         C            1.129955266504    -1.594002119096    -2.257818738096    12.000000000000
         C            0.247955266504    -1.442002119096     0.135181261904    12.000000000000
         C           -0.010044733496    -1.501002119096    -1.250818738096    12.000000000000
         C           -0.808044733496    -1.370002119096     1.071181261904    12.000000000000
         C           -1.338044733496    -1.490002119096    -1.698818738096    12.000000000000
         C           -2.132044733496    -1.373002119096     0.603181261904    12.000000000000
         C           -2.395044733496    -1.431002119096    -0.781818738096    12.000000000000
         H            1.274955266504    -1.451002119096     0.479181261904     1.007825032230
         H           -0.595044733496    -1.314002119096     2.134181261904     1.007825032230
         H            0.856955266504    -2.355002119096    -2.986818738096     1.007825032230
         H            2.009955266504    -1.931002119096    -1.714818738096     1.007825032230
         H           -1.546044733496    -1.526002119096    -2.760818738096     1.007825032230
         H           -2.955044733496    -1.330002119096     1.306181261904     1.007825032230
         H           -3.416044733496    -1.428002119096    -1.141818738096     1.007825032230
         H            1.374609266504    -0.656042119096    -2.777798738096     1.007825032230
         C            1.100955266504     2.054997880904     0.690181261904    12.000000000000
         C            1.956955266504     3.250997880904     0.169181261904    12.000000000000
         C            1.813955266504     1.417997880904     1.901181261904    12.000000000000
         C           -0.286044733496     2.503997880904     1.173181261904    12.000000000000
         H            0.988955266504     1.307997880904    -0.096818738096     1.007825032230
         H            2.055955266504     3.976997880904     0.978181261904     1.007825032230
         H            1.922955266504     2.158997880904     2.695181261904     1.007825032230
         H            1.231955266504     0.573997880904     2.275181261904     1.007825032230
         H            2.800955266504     1.063997880904     1.603181261904     1.007825032230
         H           -0.821044733496     2.983997880904     0.356181261904     1.007825032230
         H           -0.855044733496     1.638997880904     1.518181261904     1.007825032230
         H           -0.178044733496     3.207997880904     1.993181261904     1.007825032230
         H            1.509205266504     3.780697880904    -0.684598738096     1.007825032230
         H            2.906725266504     2.882997880904    -0.246168738096     1.007825032230

  Running in c1 symmetry.

  Rotational constants: A =      0.04677  B =      0.01885  C =      0.01641 [cm^-1]
  Rotational constants: A =   1402.00352  B =    565.18645  C =    492.05442 [MHz]
  Nuclear repulsion =  586.172209015102112

  Charge       = 0
  Multiplicity = 1
  Electrons    = 84
  Nalpha       = 42
  Nbeta        = 42

  ==> Algorithm <==

  SCF Algorithm Type is PK.
  DIIS enabled.
  MOM disabled.
  Fractional occupation disabled.
  Guess Type is SAD.
  Energy threshold   = 1.00e-06
  Density threshold  = 1.00e-10
  Integral threshold = 0.00e+00

  ==> Primary Basis <==

  Basis Set: CC-PVDZ
    Blend: CC-PVDZ
    Number of shells: 120
    Number of basis function: 244
    Number of Cartesian functions: 255
    Spherical Harmonics?: true
    Max angular momentum: 2

  ==> Pre-Iterations <==

   -------------------------------------------------------
    Irrep   Nso     Nmo     Nalpha   Nbeta   Ndocc  Nsocc
   -------------------------------------------------------
     A        244     244       0       0       0       0
   -------------------------------------------------------
    Total     244     244      42      42      42       0
   -------------------------------------------------------

  ==> Integral Setup <==

  Using integral reordering PK algorithm.
  Sizing the integral batches needed.
  Building batch lookup table.
   Calculation information:
      Number of atoms:                  29
      Number of AO shells:             120
      Number of primitives:            332
      Number of atomic orbitals:       255
      Number of basis functions:       244

      Integral cutoff                 1.00e-12
      Number of threads:                 1

	Batch   1 pq = [       0,    9405] index = [             0,44231715] size =     44231715
	Batch   2 pq = [    9405,   13301] index = [      44231715,88464951] size =     44233236
	Batch   3 pq = [   13301,   16290] index = [      88464951,132690195] size =     44225244
	Batch   4 pq = [   16290,   18810] index = [     132690195,176917455] size =     44227260
	Batch   5 pq = [   18810,   21030] index = [     176917455,221140965] size =     44223510
	Batch   6 pq = [   21030,   23037] index = [     221140965,265363203] size =     44222238
	Batch   7 pq = [   23037,   24883] index = [     265363203,309594286] size =     44231083
	Batch   8 pq = [   24883,   26601] index = [     309594286,353819901] size =     44225615
	Batch   9 pq = [   26601,   28214] index = [     353819901,398029005] size =     44209104
	Batch  10 pq = [   28214,   29740] index = [     398029005,442248670] size =     44219665
	Batch  11 pq = [   29740,   29890] index = [     442248670,446720995] size =      4472325
  Task number: 41
  Buffer size: 11059200
  Buffer per thread: 2
  We computed 27638627 shell quartets total.
  Whereas there are 26357430 unique shell quartets.
     4.86 percent of shell quartets recomputed by reordering.

  ==> DiskJK: Disk-Based J/K Matrices <==

    J tasked:                  Yes
    K tasked:                  Yes
    wK tasked:                  No
    Memory [MiB]:              375
    Schwarz Cutoff:          1E-12

    OpenMP threads:              1

  Minimum eigenvalue in the overlap matrix is 3.3615083519E-04.
  Using Symmetric Orthogonalization.

  SCF Guess: Superposition of Atomic Densities via on-the-fly atomic UHF.

  ==> Iterations <==

                        Total Energy        Delta E     RMS |[F,P]|

   @RHF iter SAD:  -425.68568072999318   -4.25686e+02   0.00000e+00
   @RHF iter   1:  -426.77621053498785   -1.09053e+00   2.60450e-03 DIIS
   @RHF iter   2:  -427.01915799162765   -2.42947e-01   1.09573e-03 DIIS
   @RHF iter   3:  -427.05804034265776   -3.88824e-02   2.43976e-04 DIIS
   @RHF iter   4:  -427.06129984944158   -3.25951e-03   5.86902e-05 DIIS
   @RHF iter   5:  -427.06143100406371   -1.31155e-04   1.46558e-05 DIIS
   @RHF iter   6:  -427.06143962326382   -8.61920e-06   4.83078e-06 DIIS
   @RHF iter   7:  -427.06144060152405   -9.78260e-07   1.23395e-06 DIIS
   @RHF iter   8:  -427.06144068932002   -8.77960e-08   3.31930e-07 DIIS
   @RHF iter   9:  -427.06144070399671   -1.46767e-08   1.54565e-07 DIIS
   @RHF iter  10:  -427.06144070782068   -3.82397e-09   7.14780e-08 DIIS
   @RHF iter  11:  -427.06144070889070   -1.07002e-09   2.79797e-08 DIIS
   @RHF iter  12:  -427.06144070903298   -1.42279e-10   9.98844e-09 DIIS
   @RHF iter  13:  -427.06144070904031   -7.33280e-12   4.03462e-09 DIIS
   @RHF iter  14:  -427.06144070903952    7.95808e-13   1.16912e-09 DIIS
   @RHF iter  15:  -427.06144070904094   -1.42109e-12   5.19909e-10 DIIS
   @RHF iter  16:  -427.06144070903736    3.58114e-12   2.44579e-10 DIIS
   @RHF iter  17:  -427.06144070904082   -3.46745e-12   1.03225e-10 DIIS
   @RHF iter  18:  -427.06144070904031    5.11591e-13   3.65116e-11 DIIS
  Energy and wave function converged.

  ==> Post-Iterations <==

    Orbital Energies [Eh]
    ---------------------

    Doubly Occupied:

       1A    -11.246567     2A    -11.243021     3A    -11.241149
       4A    -11.238348     5A    -11.237662     6A    -11.235222
       7A    -11.232535     8A    -11.220655     9A    -11.214499
      10A    -11.210456    11A    -11.205322    12A     -1.145604
      13A     -1.070181    14A     -1.040167    15A     -1.008799
      16A     -0.930360    17A     -0.920103    18A     -0.916759
      19A     -0.824273    20A     -0.794824    21A     -0.759280
      22A     -0.688626    23A     -0.633543    24A     -0.628197
      25A     -0.627111    26A     -0.586710    27A     -0.581044
      28A     -0.577162    29A     -0.571771    30A     -0.559365
      31A     -0.538426    32A     -0.535771    33A     -0.526691
      34A     -0.499486    35A     -0.486665    36A     -0.484117
      37A     -0.480979    38A     -0.460464    39A     -0.450616
      40A     -0.442384    41A     -0.331034    42A     -0.321114

    Virtual:

      43A      0.129153    44A      0.135280    45A      0.169303
      46A      0.192196    47A      0.197387    48A      0.213180
      49A      0.224648    50A      0.235700    51A      0.239672
      52A      0.251012    53A      0.255755    54A      0.258708
      55A      0.272158    56A      0.275043    57A      0.289483
      58A      0.301104    59A      0.309177    60A      0.318475
      61A      0.322649    62A      0.341619    63A      0.361072
      64A      0.367584    65A      0.381545    66A      0.402546
      67A      0.409452    68A      0.445137    69A      0.457863
      70A      0.472382    71A      0.501121    72A      0.560115
      73A      0.566673    74A      0.579393    75A      0.595665
      76A      0.615725    77A      0.618772    78A      0.629423
      79A      0.650880    80A      0.670077    81A      0.692522
      82A      0.703684    83A      0.720497    84A      0.730192
      85A      0.740177    86A      0.741635    87A      0.752976
      88A      0.757447    89A      0.774599    90A      0.777226
      91A      0.794799    92A      0.806246    93A      0.819594
      94A      0.831933    95A      0.834822    96A      0.850908
      97A      0.860011    98A      0.870498    99A      0.876159
     100A      0.881795   101A      0.884693   102A      0.892332
     103A      0.894236   104A      0.901755   105A      0.904900
     106A      0.913643   107A      0.915689   108A      0.920211
     109A      0.937156   110A      0.939730   111A      0.952669
     112A      0.959991   113A      0.971767   114A      0.981307
     115A      0.988917   116A      1.000907   117A      1.008574
     118A      1.038888   119A      1.051165   120A      1.081483
     121A      1.120870   122A      1.127450   123A      1.133754
     124A      1.143646   125A      1.154035   126A      1.159815
     127A      1.188652   128A      1.205480   129A      1.233935
     130A      1.240214   131A      1.250386   132A      1.257471
     133A      1.290755   134A      1.296912   135A      1.313334
     136A      1.318054   137A      1.370068   138A      1.409453
     139A      1.411103   140A      1.416319   141A      1.500992
     142A      1.508188   143A      1.537834   144A      1.559774
     145A      1.582099   146A      1.598272   147A      1.659328
     148A      1.669880   149A      1.680189   150A      1.686382
     151A      1.694541   152A      1.703857   153A      1.706028
     154A      1.707735   155A      1.729721   156A      1.737552
     157A      1.746688   158A      1.752483   159A      1.794603
     160A      1.798509   161A      1.836784   162A      1.848259
     163A      1.850585   164A      1.865116   165A      1.878434
     166A      1.890073   167A      1.898906   168A      1.911769
     169A      1.925166   170A      1.935075   171A      1.940735
     172A      1.944912   173A      1.948790   174A      1.950440
     175A      1.959676   176A      1.964896   177A      1.977655
     178A      1.984857   179A      1.988723   180A      2.000820
     181A      2.010642   182A      2.027506   183A      2.035104
     184A      2.040867   185A      2.063070   186A      2.067562
     187A      2.088072   188A      2.099503   189A      2.110414
     190A      2.116551   191A      2.130381   192A      2.136725
     193A      2.154101   194A      2.154485   195A      2.165290
     196A      2.186301   197A      2.235904   198A      2.252049
     199A      2.263901   200A      2.271767   201A      2.285713
     202A      2.298902   203A      2.300330   204A      2.314711
     205A      2.315681   206A      2.332804   207A      2.346549
     208A      2.374618   209A      2.383517   210A      2.447295
     211A      2.465672   212A      2.482674   213A      2.498573
     214A      2.529194   215A      2.574191   216A      2.598530
     217A      2.609139   218A      2.628183   219A      2.690320
     220A      2.715871   221A      2.728273   222A      2.740102
     223A      2.763334   224A      2.770342   225A      2.772663
     226A      2.791008   227A      2.794884   228A      2.806537
     229A      2.810637   230A      2.841649   231A      2.849608
     232A      2.857675   233A      2.867074   234A      2.869964
     235A      2.949990   236A      2.977632   237A      3.005786
     238A      3.016225   239A      3.036898   240A      3.122331
     241A      3.143574   242A      3.165793   243A      3.264191
     244A      3.909800

    Final Occupation by Irrep:
              A
    DOCC [    42 ]

  @RHF Final Energy:  -427.06144070904031

   => Energetics <=

    Nuclear Repulsion Energy =            586.1722090151021121
    One-Electron Energy =               -1738.5731774551695707
    Two-Electron Energy =                 725.3395277310272604
    Total Energy =                       -427.0614407090403120

Computation Completed

Properties will be evaluated at   0.000000,   0.000000,   0.000000 [a0]

Properties computed using the SCF density matrix

  Nuclear Dipole Moment: [e a0]
     X:     8.0312      Y:    10.8612      Z:     2.7460

  Electronic Dipole Moment: [e a0]
     X:    -8.0239      Y:   -10.9773      Z:    -2.9278

  Dipole Moment: [e a0]
     X:     0.0073      Y:    -0.1162      Z:    -0.1818     Total:     0.2159

  Dipole Moment: [D]
     X:     0.0186      Y:    -0.2953      Z:    -0.4621     Total:     0.5487

*** tstop() called on ds3 at Tue Apr 28 08:31:54 2020
Module time:
	user time   =     187.45 seconds =       3.12 minutes
	system time =      65.21 seconds =       1.09 minutes
	total time  =        324 seconds =       5.40 minutes
Total time:
	user time   =     187.45 seconds =       3.12 minutes
	system time =      65.21 seconds =       1.09 minutes
	total time  =        324 seconds =       5.40 minutes
                                     G D M A

                                 by Anthony Stone

                           version 2.2.06, 22 June 2011

               Distributed Multipoles from Gaussian wavefunctions

Starting at 8:31:54 on 28 Apr 2020

Using SCF density matrix from file ./SSI/SSI-034PHE-100VAL-2-dimer.test.13685.fchk

                         Distributed Multipole Analysis

Standard DMA

Positions and radii in angstrom
Multipole moments in atomic units, ea_0^k for rank k

C          x =  1.129955  y = -1.594002  z = -2.257819 angstrom
           Maximum rank =  0   Radius =  0.650 angstrom
                   Q00  =  -0.194580

C          x =  0.247955  y = -1.442002  z =  0.135181 angstrom
           Maximum rank =  0   Radius =  0.650 angstrom
                   Q00  =  -0.008919

C          x = -0.010045  y = -1.501002  z = -1.250819 angstrom
           Maximum rank =  0   Radius =  0.650 angstrom
                   Q00  =  -0.110192

C          x = -0.808045  y = -1.370002  z =  1.071181 angstrom
           Maximum rank =  0   Radius =  0.650 angstrom
                   Q00  =  -0.077271

C          x = -1.338045  y = -1.490002  z = -1.698819 angstrom
           Maximum rank =  0   Radius =  0.650 angstrom
                   Q00  =  -0.081719

C          x = -2.132045  y = -1.373002  z =  0.603181 angstrom
           Maximum rank =  0   Radius =  0.650 angstrom
                   Q00  =  -0.097012

C          x = -2.395045  y = -1.431002  z = -0.781819 angstrom
           Maximum rank =  0   Radius =  0.650 angstrom
                   Q00  =  -0.063071

H          x =  1.274955  y = -1.451002  z =  0.479181 angstrom
           Maximum rank =  0   Radius =  0.325 angstrom
                   Q00  =   0.064762

H          x = -0.595045  y = -1.314002  z =  2.134181 angstrom
           Maximum rank =  0   Radius =  0.325 angstrom
                   Q00  =   0.071483

H          x =  0.856955  y = -2.355002  z = -2.986819 angstrom
           Maximum rank =  0   Radius =  0.325 angstrom
                   Q00  =   0.100651

H          x =  2.009955  y = -1.931002  z = -1.714819 angstrom
           Maximum rank =  0   Radius =  0.325 angstrom
                   Q00  =   0.098104

H          x = -1.546045  y = -1.526002  z = -2.760819 angstrom
           Maximum rank =  0   Radius =  0.325 angstrom
                   Q00  =   0.059563

H          x = -2.955045  y = -1.330002  z =  1.306181 angstrom
           Maximum rank =  0   Radius =  0.325 angstrom
                   Q00  =   0.066398

H          x = -3.416045  y = -1.428002  z = -1.141819 angstrom
           Maximum rank =  0   Radius =  0.325 angstrom
                   Q00  =   0.068596

H          x =  1.374609  y = -0.656042  z = -2.777799 angstrom
           Maximum rank =  0   Radius =  0.325 angstrom
                   Q00  =   0.104941

C          x =  1.100955  y =  2.054998  z =  0.690181 angstrom
           Maximum rank =  0   Radius =  0.650 angstrom
                   Q00  =  -0.004086

C          x =  1.956955  y =  3.250998  z =  0.169181 angstrom
           Maximum rank =  0   Radius =  0.650 angstrom
                   Q00  =  -0.225246

C          x =  1.813955  y =  1.417998  z =  1.901181 angstrom
           Maximum rank =  0   Radius =  0.650 angstrom
                   Q00  =  -0.248336

C          x = -0.286045  y =  2.503998  z =  1.173181 angstrom
           Maximum rank =  0   Radius =  0.650 angstrom
                   Q00  =  -0.239255

H          x =  0.988955  y =  1.307998  z = -0.096819 angstrom
           Maximum rank =  0   Radius =  0.325 angstrom
                   Q00  =   0.034134

H          x =  2.055955  y =  3.976998  z =  0.978181 angstrom
           Maximum rank =  0   Radius =  0.325 angstrom
                   Q00  =   0.066532

H          x =  1.922955  y =  2.158998  z =  2.695181 angstrom
           Maximum rank =  0   Radius =  0.325 angstrom
                   Q00  =   0.076136

H          x =  1.231955  y =  0.573998  z =  2.275181 angstrom
           Maximum rank =  0   Radius =  0.325 angstrom
                   Q00  =   0.077352

H          x =  2.800955  y =  1.063998  z =  1.603181 angstrom
           Maximum rank =  0   Radius =  0.325 angstrom
                   Q00  =   0.075238

H          x = -0.821045  y =  2.983998  z =  0.356181 angstrom
           Maximum rank =  0   Radius =  0.325 angstrom
                   Q00  =   0.079570

H          x = -0.855045  y =  1.638998  z =  1.518181 angstrom
           Maximum rank =  0   Radius =  0.325 angstrom
                   Q00  =   0.088981

H          x = -0.178045  y =  3.207998  z =  1.993181 angstrom
           Maximum rank =  0   Radius =  0.325 angstrom
                   Q00  =   0.069237

H          x =  1.509205  y =  3.780698  z = -0.684599 angstrom
           Maximum rank =  0   Radius =  0.325 angstrom
                   Q00  =   0.079513

H          x =  2.906725  y =  2.882998  z = -0.246169 angstrom
           Maximum rank =  0   Radius =  0.325 angstrom
                   Q00  =   0.068495

Total multipoles referred to origin at
           x =   0.000000,  y =    0.000000,  z =    0.000000 angstrom
                   Q00  =  -0.000000

Finished at 8:31:54 on 28 Apr 2020

  DMA results are available in the Python driver through the
	  variable('DMA DISTRIBUTED MULTIPOLES')
  and
	  variable('DMA TOTAL MULTIPOLES')
  commands.

    Psi4 stopped on: Tuesday, 28 April 2020 08:31AM
    Psi4 wall time for execution: 0:05:23.94

*** Psi4 exiting successfully. Buy a developer a beer!
