                               Psi4 1.3.2 release

  ==> Input File <==

--------------------------------------------------------------------------
import numpy as np
set {scf_type pk
basis cc-pvdz
d_convergence 10
gdma_switch   0
gdma_limit    0
gdma_origin   [ 0.0,  0.0,  0.0 ]
}
molecule test {
    units Angstrom
    0 1
    --
    0 1
    C                1.612573953044689     0.070769948709817    -2.279219858441559
    C               -0.489426046955311    -1.834230051290183     0.305780141558441
    C               -0.054426046955311    -1.285230051290183    -0.907219858441559
    C                0.316573953044689    -1.702230051290183     1.425780141558441
    C                1.147573953044689    -0.553230051290183    -0.974219858441559
    C                1.528573953044689    -1.034230051290183     1.351780141558441
    C                1.946573953044689    -0.462230051290183     0.165780141558441
    H               -1.434426046955311    -2.355230051290182     0.370780141558441
    H               -0.673426046955311    -1.380230051290183    -1.787219858441559
    H               -0.001426046955311    -2.126230051290183     2.368780141558441
    H                2.147573953044689    -0.950230051290183     2.234780141558441
    H                2.365573953044689     0.828769948709817    -2.062219858441559
    H                0.765573953044689     0.575769948709817    -2.737219858441559
    H                2.889573953044689     0.065769948709817     0.131780141558441
    H                2.028551953044690    -0.663814051290183    -2.984448858441559
    C               -1.728426046955311     1.563769948709817     0.696780141558441
    C               -2.801426046955311     1.505769948709817    -0.390219858441559
    C               -0.930426046955311     2.868769948709817     0.759780141558442
    H               -2.186426046955311     1.419769948709817     1.673780141558441
    H               -1.029426046955311     0.749769948709817     0.541780141558441
    H               -2.298426046955310     1.506769948709817    -1.361219858441559
    H               -1.611426046955311     3.680769948709817     1.004780141558441
    H               -3.465275046955311     2.377644948709817    -0.294619858441559
    H               -3.409148046955311     0.592372248709817    -0.310351858441559
    H               -0.173805046955311     2.823258948709817     1.556933941558442
    H               -0.435478046955311     3.122332948709817    -0.189288858441559

}
e, wfn = energy('scf', return_wfn=True)
gdma(wfn)
dmavals = variable('DMA DISTRIBUTED MULTIPOLES')
charges = np.array(dmavals)
print(charges)
np.save('SSI-032PHE-095LEU-1-dimer.npy', np.array(charges))--------------------------------------------------------------------------

*** tstart() called on ds3
*** at Tue Apr 28 14:39:39 2020

   => Loading Basis Set <=

    Name: CC-PVDZ
    Role: ORBITAL
    Keyword: BASIS
    atoms 1-7, 16-18  entry C          line   138 file /theoryfs2/ds/metcalf/miniconda2/envs/tf2gpu/share/psi4/basis/cc-pvdz.gbs
    atoms 8-15, 19-26 entry H          line    22 file /theoryfs2/ds/metcalf/miniconda2/envs/tf2gpu/share/psi4/basis/cc-pvdz.gbs

         ---------------------------------------------------------
                                   SCF
               by Justin Turney, Rob Parrish, Andy Simmonett
                          and Daniel G. A. Smith
                              RHF Reference
                        1 Threads,    500 MiB Core
         ---------------------------------------------------------

  ==> Geometry <==

    Molecular point group: c1
    Full point group: C1

    Geometry (in Angstrom), charge = 0, multiplicity = 1:

       Center              X                  Y                   Z               Mass
    ------------   -----------------  -----------------  -----------------  -----------------
         C            1.612573953045     0.070769948710    -2.279219858442    12.000000000000
         C           -0.489426046955    -1.834230051290     0.305780141558    12.000000000000
         C           -0.054426046955    -1.285230051290    -0.907219858442    12.000000000000
         C            0.316573953045    -1.702230051290     1.425780141558    12.000000000000
         C            1.147573953045    -0.553230051290    -0.974219858442    12.000000000000
         C            1.528573953045    -1.034230051290     1.351780141558    12.000000000000
         C            1.946573953045    -0.462230051290     0.165780141558    12.000000000000
         H           -1.434426046955    -2.355230051290     0.370780141558     1.007825032230
         H           -0.673426046955    -1.380230051290    -1.787219858442     1.007825032230
         H           -0.001426046955    -2.126230051290     2.368780141558     1.007825032230
         H            2.147573953045    -0.950230051290     2.234780141558     1.007825032230
         H            2.365573953045     0.828769948710    -2.062219858442     1.007825032230
         H            0.765573953045     0.575769948710    -2.737219858442     1.007825032230
         H            2.889573953045     0.065769948710     0.131780141558     1.007825032230
         H            2.028551953045    -0.663814051290    -2.984448858442     1.007825032230
         C           -1.728426046955     1.563769948710     0.696780141558    12.000000000000
         C           -2.801426046955     1.505769948710    -0.390219858442    12.000000000000
         C           -0.930426046955     2.868769948710     0.759780141558    12.000000000000
         H           -2.186426046955     1.419769948710     1.673780141558     1.007825032230
         H           -1.029426046955     0.749769948710     0.541780141558     1.007825032230
         H           -2.298426046955     1.506769948710    -1.361219858442     1.007825032230
         H           -1.611426046955     3.680769948710     1.004780141558     1.007825032230
         H           -3.465275046955     2.377644948710    -0.294619858442     1.007825032230
         H           -3.409148046955     0.592372248710    -0.310351858442     1.007825032230
         H           -0.173805046955     2.823258948710     1.556933941558     1.007825032230
         H           -0.435478046955     3.122332948710    -0.189288858442     1.007825032230

  Running in c1 symmetry.

  Rotational constants: A =      0.04866  B =      0.02646  C =      0.02388 [cm^-1]
  Rotational constants: A =   1458.77320  B =    793.18042  C =    716.05173 [MHz]
  Nuclear repulsion =  504.737649748504566

  Charge       = 0
  Multiplicity = 1
  Electrons    = 76
  Nalpha       = 38
  Nbeta        = 38

  ==> Algorithm <==

  SCF Algorithm Type is PK.
  DIIS enabled.
  MOM disabled.
  Fractional occupation disabled.
  Guess Type is SAD.
  Energy threshold   = 1.00e-06
  Density threshold  = 1.00e-10
  Integral threshold = 0.00e+00

  ==> Primary Basis <==

  Basis Set: CC-PVDZ
    Blend: CC-PVDZ
    Number of shells: 108
    Number of basis function: 220
    Number of Cartesian functions: 230
    Spherical Harmonics?: true
    Max angular momentum: 2

  ==> Pre-Iterations <==

   -------------------------------------------------------
    Irrep   Nso     Nmo     Nalpha   Nbeta   Ndocc  Nsocc
   -------------------------------------------------------
     A        220     220       0       0       0       0
   -------------------------------------------------------
    Total     220     220      38      38      38       0
   -------------------------------------------------------

  ==> Integral Setup <==

  Using integral reordering PK algorithm.
  Sizing the integral batches needed.
  Building batch lookup table.
   Calculation information:
      Number of atoms:                  26
      Number of AO shells:             108
      Number of primitives:            300
      Number of atomic orbitals:       230
      Number of basis functions:       220

      Integral cutoff                 1.00e-12
      Number of threads:                 1

	Batch   1 pq = [       0,    9405] index = [             0,44231715] size =     44231715
	Batch   2 pq = [    9405,   13301] index = [      44231715,88464951] size =     44233236
	Batch   3 pq = [   13301,   16290] index = [      88464951,132690195] size =     44225244
	Batch   4 pq = [   16290,   18810] index = [     132690195,176917455] size =     44227260
	Batch   5 pq = [   18810,   21030] index = [     176917455,221140965] size =     44223510
	Batch   6 pq = [   21030,   23037] index = [     221140965,265363203] size =     44222238
	Batch   7 pq = [   23037,   24310] index = [     265363203,295500205] size =     30137002
  Task number: 27
  Buffer size: 11059200
  Buffer per thread: 2
  We computed 17753713 shell quartets total.
  Whereas there are 17325441 unique shell quartets.
     2.47 percent of shell quartets recomputed by reordering.

  ==> DiskJK: Disk-Based J/K Matrices <==

    J tasked:                  Yes
    K tasked:                  Yes
    wK tasked:                  No
    Memory [MiB]:              375
    Schwarz Cutoff:          1E-12

    OpenMP threads:              1

  Minimum eigenvalue in the overlap matrix is 3.1680009138E-04.
  Using Symmetric Orthogonalization.

  SCF Guess: Superposition of Atomic Densities via on-the-fly atomic UHF.

  ==> Iterations <==

                        Total Energy        Delta E     RMS |[F,P]|

   @RHF iter SAD:  -386.85566559653387   -3.86856e+02   0.00000e+00
   @RHF iter   1:  -387.77179078321552   -9.16125e-01   2.74567e-03 DIIS
   @RHF iter   2:  -387.98976545662350   -2.17975e-01   1.15707e-03 DIIS
   @RHF iter   3:  -388.02492444641319   -3.51590e-02   2.49394e-04 DIIS
   @RHF iter   4:  -388.02779513624006   -2.87069e-03   5.12142e-05 DIIS
   @RHF iter   5:  -388.02788248125546   -8.73450e-05   1.56488e-05 DIIS
   @RHF iter   6:  -388.02789032551198   -7.84426e-06   4.69522e-06 DIIS
   @RHF iter   7:  -388.02789108625836   -7.60746e-07   1.22610e-06 DIIS
   @RHF iter   8:  -388.02789114574801   -5.94897e-08   2.84562e-07 DIIS
   @RHF iter   9:  -388.02789115181127   -6.06326e-09   1.18714e-07 DIIS
   @RHF iter  10:  -388.02789115292012   -1.10884e-09   5.56683e-08 DIIS
   @RHF iter  11:  -388.02789115328551   -3.65389e-10   2.44221e-08 DIIS
   @RHF iter  12:  -388.02789115337208   -8.65725e-11   1.15584e-08 DIIS
   @RHF iter  13:  -388.02789115338493   -1.28466e-11   4.25118e-09 DIIS
   @RHF iter  14:  -388.02789115338817   -3.24007e-12   1.07979e-09 DIIS
   @RHF iter  15:  -388.02789115338942   -1.25056e-12   3.61062e-10 DIIS
   @RHF iter  16:  -388.02789115338885    5.68434e-13   1.22539e-10 DIIS
   @RHF iter  17:  -388.02789115338874    1.13687e-13   5.01859e-11 DIIS
  Energy and wave function converged.

  ==> Post-Iterations <==

    Orbital Energies [Eh]
    ---------------------

    Doubly Occupied:

       1A    -11.245137     2A    -11.237787     3A    -11.235041
       4A    -11.234524     5A    -11.231967     6A    -11.231660
       7A    -11.231239     8A    -11.212260     9A    -11.209233
      10A    -11.205524    11A     -1.153941    12A     -1.043823
      13A     -1.042458    14A     -1.014125    15A     -0.932113
      16A     -0.917521    17A     -0.825858    18A     -0.796645
      19A     -0.787066    20A     -0.692422    21A     -0.632473
      22A     -0.630689    23A     -0.617957    24A     -0.586047
      25A     -0.585222    26A     -0.577235    27A     -0.560500
      28A     -0.538735    29A     -0.537685    30A     -0.526001
      31A     -0.494041    32A     -0.486618    33A     -0.481088
      34A     -0.467695    35A     -0.458234    36A     -0.449873
      37A     -0.334298    38A     -0.323439

    Virtual:

      39A      0.132040    40A      0.139136    41A      0.165366
      42A      0.191393    43A      0.201082    44A      0.210480
      45A      0.235521    46A      0.238902    47A      0.250137
      48A      0.254801    49A      0.258767    50A      0.261483
      51A      0.277749    52A      0.288851    53A      0.297786
      54A      0.305924    55A      0.318991    56A      0.331908
      57A      0.364045    58A      0.372918    59A      0.380704
      60A      0.435619    61A      0.451367    62A      0.460133
      63A      0.476873    64A      0.490928    65A      0.559914
      66A      0.573365    67A      0.587832    68A      0.592383
      69A      0.603233    70A      0.624488    71A      0.631444
      72A      0.654705    73A      0.676262    74A      0.692797
      75A      0.693169    76A      0.734662    77A      0.737199
      78A      0.745335    79A      0.755903    80A      0.764034
      81A      0.774323    82A      0.791995    83A      0.794127
      84A      0.804026    85A      0.835546    86A      0.841883
      87A      0.858043    88A      0.859861    89A      0.870819
      90A      0.879102    91A      0.887440    92A      0.891000
      93A      0.893695    94A      0.900315    95A      0.904778
      96A      0.913421    97A      0.918953    98A      0.920509
      99A      0.930416   100A      0.937445   101A      0.941332
     102A      0.959052   103A      0.975841   104A      0.986776
     105A      0.992766   106A      0.998981   107A      1.033074
     108A      1.118015   109A      1.124889   110A      1.127922
     111A      1.143118   112A      1.146565   113A      1.158419
     114A      1.169029   115A      1.195008   116A      1.228518
     117A      1.243336   118A      1.253755   119A      1.257440
     120A      1.292666   121A      1.304033   122A      1.318465
     123A      1.323987   124A      1.348436   125A      1.383573
     126A      1.442591   127A      1.482614   128A      1.489827
     129A      1.516231   130A      1.524358   131A      1.540023
     132A      1.563703   133A      1.599911   134A      1.649441
     135A      1.673421   136A      1.679125   137A      1.694436
     138A      1.696320   139A      1.701310   140A      1.739934
     141A      1.746899   142A      1.763410   143A      1.787869
     144A      1.839253   145A      1.850325   146A      1.862728
     147A      1.878216   148A      1.881850   149A      1.889124
     150A      1.902771   151A      1.907997   152A      1.916318
     153A      1.923530   154A      1.935299   155A      1.937443
     156A      1.943243   157A      1.953525   158A      1.961856
     159A      1.970305   160A      1.975536   161A      1.984598
     162A      1.988002   163A      1.999151   164A      2.002941
     165A      2.022466   166A      2.027342   167A      2.041624
     168A      2.048369   169A      2.058418   170A      2.084441
     171A      2.114156   172A      2.126334   173A      2.141915
     174A      2.158554   175A      2.160613   176A      2.170215
     177A      2.180766   178A      2.191926   179A      2.247639
     180A      2.273500   181A      2.285660   182A      2.296830
     183A      2.302855   184A      2.309407   185A      2.318571
     186A      2.327436   187A      2.341288   188A      2.351952
     189A      2.454345   190A      2.472323   191A      2.496995
     192A      2.519549   193A      2.536756   194A      2.552367
     195A      2.598728   196A      2.620555   197A      2.622851
     198A      2.642605   199A      2.742164   200A      2.753025
     201A      2.754644   202A      2.766335   203A      2.778444
     204A      2.786829   205A      2.797837   206A      2.804872
     207A      2.815944   208A      2.845458   209A      2.878527
     210A      2.950183   211A      2.971271   212A      2.982701
     213A      2.990461   214A      3.013015   215A      3.023989
     216A      3.127641   217A      3.146894   218A      3.195065
     219A      3.295929   220A      3.962326

    Final Occupation by Irrep:
              A
    DOCC [    38 ]

  @RHF Final Energy:  -388.02789115338874

   => Energetics <=

    Nuclear Repulsion Energy =            504.7376497485045661
    One-Electron Energy =               -1523.9947325069410908
    Two-Electron Energy =                 631.2291916050478449
    Total Energy =                       -388.0278911533887367

Computation Completed

Properties will be evaluated at   0.000000,   0.000000,   0.000000 [a0]

Properties computed using the SCF density matrix

  Nuclear Dipole Moment: [e a0]
     X:    -6.1140      Y:     9.6252      Z:    -1.7279

  Electronic Dipole Moment: [e a0]
     X:     6.2387      Y:    -9.6896      Z:     1.6602

  Dipole Moment: [e a0]
     X:     0.1247      Y:    -0.0644      Z:    -0.0677     Total:     0.1558

  Dipole Moment: [D]
     X:     0.3169      Y:    -0.1637      Z:    -0.1720     Total:     0.3960

*** tstop() called on ds3 at Tue Apr 28 14:43:49 2020
Module time:
	user time   =     125.34 seconds =       2.09 minutes
	system time =      42.19 seconds =       0.70 minutes
	total time  =        250 seconds =       4.17 minutes
Total time:
	user time   =     125.34 seconds =       2.09 minutes
	system time =      42.19 seconds =       0.70 minutes
	total time  =        250 seconds =       4.17 minutes
                                     G D M A

                                 by Anthony Stone

                           version 2.2.06, 22 June 2011

               Distributed Multipoles from Gaussian wavefunctions

Starting at 14:43:49 on 28 Apr 2020

Using SCF density matrix from file ./SSI/SSI-032PHE-095LEU-1-dimer.test.7127.fchk

                         Distributed Multipole Analysis

Standard DMA

Positions and radii in angstrom
Multipole moments in atomic units, ea_0^k for rank k

C          x =  1.612574  y =  0.070770  z = -2.279220 angstrom
           Maximum rank =  0   Radius =  0.650 angstrom
                   Q00  =  -0.202889

C          x = -0.489426  y = -1.834230  z =  0.305780 angstrom
           Maximum rank =  0   Radius =  0.650 angstrom
                   Q00  =  -0.074456

C          x = -0.054426  y = -1.285230  z = -0.907220 angstrom
           Maximum rank =  0   Radius =  0.650 angstrom
                   Q00  =  -0.080466

C          x =  0.316574  y = -1.702230  z =  1.425780 angstrom
           Maximum rank =  0   Radius =  0.650 angstrom
                   Q00  =  -0.052710

C          x =  1.147574  y = -0.553230  z = -0.974220 angstrom
           Maximum rank =  0   Radius =  0.650 angstrom
                   Q00  =  -0.106789

C          x =  1.528574  y = -1.034230  z =  1.351780 angstrom
           Maximum rank =  0   Radius =  0.650 angstrom
                   Q00  =   0.003361

C          x =  1.946574  y = -0.462230  z =  0.165780 angstrom
           Maximum rank =  0   Radius =  0.650 angstrom
                   Q00  =  -0.091387

H          x = -1.434426  y = -2.355230  z =  0.370780 angstrom
           Maximum rank =  0   Radius =  0.325 angstrom
                   Q00  =   0.067867

H          x = -0.673426  y = -1.380230  z = -1.787220 angstrom
           Maximum rank =  0   Radius =  0.325 angstrom
                   Q00  =   0.058651

H          x = -0.001426  y = -2.126230  z =  2.368780 angstrom
           Maximum rank =  0   Radius =  0.325 angstrom
                   Q00  =   0.059927

H          x =  2.147574  y = -0.950230  z =  2.234780 angstrom
           Maximum rank =  0   Radius =  0.325 angstrom
                   Q00  =   0.063228

H          x =  2.365574  y =  0.828770  z = -2.062220 angstrom
           Maximum rank =  0   Radius =  0.325 angstrom
                   Q00  =   0.098512

H          x =  0.765574  y =  0.575770  z = -2.737220 angstrom
           Maximum rank =  0   Radius =  0.325 angstrom
                   Q00  =   0.100396

H          x =  2.889574  y =  0.065770  z =  0.131780 angstrom
           Maximum rank =  0   Radius =  0.325 angstrom
                   Q00  =   0.058921

H          x =  2.028552  y = -0.663814  z = -2.984449 angstrom
           Maximum rank =  0   Radius =  0.325 angstrom
                   Q00  =   0.105958

C          x = -1.728426  y =  1.563770  z =  0.696780 angstrom
           Maximum rank =  0   Radius =  0.650 angstrom
                   Q00  =  -0.066049

C          x = -2.801426  y =  1.505770  z = -0.390220 angstrom
           Maximum rank =  0   Radius =  0.650 angstrom
                   Q00  =  -0.242073

C          x = -0.930426  y =  2.868770  z =  0.759780 angstrom
           Maximum rank =  0   Radius =  0.650 angstrom
                   Q00  =  -0.259172

H          x = -2.186426  y =  1.419770  z =  1.673780 angstrom
           Maximum rank =  0   Radius =  0.325 angstrom
                   Q00  =   0.038113

H          x = -1.029426  y =  0.749770  z =  0.541780 angstrom
           Maximum rank =  0   Radius =  0.325 angstrom
                   Q00  =   0.068033

H          x = -2.298426  y =  1.506770  z = -1.361220 angstrom
           Maximum rank =  0   Radius =  0.325 angstrom
                   Q00  =   0.072310

H          x = -1.611426  y =  3.680770  z =  1.004780 angstrom
           Maximum rank =  0   Radius =  0.325 angstrom
                   Q00  =   0.069423

H          x = -3.465275  y =  2.377645  z = -0.294620 angstrom
           Maximum rank =  0   Radius =  0.325 angstrom
                   Q00  =   0.073064

H          x = -3.409148  y =  0.592372  z = -0.310352 angstrom
           Maximum rank =  0   Radius =  0.325 angstrom
                   Q00  =   0.081482

H          x = -0.173805  y =  2.823259  z =  1.556934 angstrom
           Maximum rank =  0   Radius =  0.325 angstrom
                   Q00  =   0.084027

H          x = -0.435478  y =  3.122333  z = -0.189289 angstrom
           Maximum rank =  0   Radius =  0.325 angstrom
                   Q00  =   0.072716

Total multipoles referred to origin at
           x =   0.000000,  y =    0.000000,  z =    0.000000 angstrom
                   Q00  =  -0.000000

Finished at 14:43:50 on 28 Apr 2020

  DMA results are available in the Python driver through the
	  variable('DMA DISTRIBUTED MULTIPOLES')
  and
	  variable('DMA TOTAL MULTIPOLES')
  commands.

    Psi4 stopped on: Tuesday, 28 April 2020 02:43PM
    Psi4 wall time for execution: 0:04:10.54

*** Psi4 exiting successfully. Buy a developer a beer!
