                               Psi4 1.3.2 release

  ==> Input File <==

--------------------------------------------------------------------------
import numpy as np
set {scf_type pk
basis cc-pvdz
d_convergence 10
gdma_switch   0
gdma_limit    0
gdma_origin   [ 0.0,  0.0,  0.0 ]
}
molecule test {
    units Angstrom
    -1 1
    --
    -1 1
    C                0.542317690679713     0.203967053020768    -0.685218034330525
    C                1.656317690679713    -0.604032946979232    -1.308218034330525
    C                2.408317690679713     1.695967053020768    -1.109218034330525
    C               -0.805682309320287     2.401967053020767     0.887781965669475
    C                0.589317690679713     2.525967053020768     0.310781965669475
    O                1.210317690679713     3.579967053020768     0.518781965669475
    N                1.105317690679713     1.536967053020768    -0.451218034330525
    H               -0.292682309320287     0.270967053020768    -1.383218034330525
    H                0.223317690679713    -0.256032946979232     0.247781965669475
    H                1.275317690679713    -1.349032946979233    -2.008218034330525
    H                2.248317690679714    -1.077032946979232    -0.524218034330525
    H                3.197317690679713     1.659967053020768    -0.356218034330525
    H               -0.933682309320287     1.373967053020768     1.225781965669475
    H                2.259797690679713     0.164300053020768    -1.813658034330526
    H                2.465007690679713     0.804724053020768    -1.751458034330525
    H                2.455027690679713     2.637406053020768    -1.676238034330525
    H               -0.935392309320287     3.096021053020768     1.731261965669475
    H               -1.535192309320287     2.616952053020768     0.093051965669475
    C               -3.089682309320287    -2.856032946979232     0.492781965669475
    C               -1.589682309320287    -2.766032946979232     0.440781965669475
    O               -0.937682309320287    -3.274032946979232    -0.499218034330525
    O               -1.024682309320287    -2.189032946979232     1.391781965669475
    H               -3.470682309320287    -1.837032946979232     0.531781965669475
    H               -3.365682309320287    -3.330032946979232     1.434781965669474
    H               -3.574522309320287    -3.409317946979233    -0.325028034330525

}
e, wfn = energy('scf', return_wfn=True)
gdma(wfn)
dmavals = variable('DMA DISTRIBUTED MULTIPOLES')
charges = np.array(dmavals)
print(charges)
np.save('SSI-008PRO-183ASP-1-dimer.npy', np.array(charges))--------------------------------------------------------------------------

*** tstart() called on ds3
*** at Mon Apr 27 19:04:07 2020

   => Loading Basis Set <=

    Name: CC-PVDZ
    Role: ORBITAL
    Keyword: BASIS
    atoms 1-5, 19-20  entry C          line   138 file /theoryfs2/ds/metcalf/miniconda2/envs/tf2gpu/share/psi4/basis/cc-pvdz.gbs
    atoms 6, 21-22    entry O          line   198 file /theoryfs2/ds/metcalf/miniconda2/envs/tf2gpu/share/psi4/basis/cc-pvdz.gbs
    atoms 7           entry N          line   168 file /theoryfs2/ds/metcalf/miniconda2/envs/tf2gpu/share/psi4/basis/cc-pvdz.gbs
    atoms 8-18, 23-25 entry H          line    22 file /theoryfs2/ds/metcalf/miniconda2/envs/tf2gpu/share/psi4/basis/cc-pvdz.gbs

         ---------------------------------------------------------
                                   SCF
               by Justin Turney, Rob Parrish, Andy Simmonett
                          and Daniel G. A. Smith
                              RHF Reference
                        1 Threads,    500 MiB Core
         ---------------------------------------------------------

  ==> Geometry <==

    Molecular point group: c1
    Full point group: C1

    Geometry (in Angstrom), charge = -1, multiplicity = 1:

       Center              X                  Y                   Z               Mass
    ------------   -----------------  -----------------  -----------------  -----------------
         C            0.542317690680     0.203967053021    -0.685218034331    12.000000000000
         C            1.656317690680    -0.604032946979    -1.308218034331    12.000000000000
         C            2.408317690680     1.695967053021    -1.109218034331    12.000000000000
         C           -0.805682309320     2.401967053021     0.887781965669    12.000000000000
         C            0.589317690680     2.525967053021     0.310781965669    12.000000000000
         O            1.210317690680     3.579967053021     0.518781965669    15.994914619570
         N            1.105317690680     1.536967053021    -0.451218034331    14.003074004430
         H           -0.292682309320     0.270967053021    -1.383218034331     1.007825032230
         H            0.223317690680    -0.256032946979     0.247781965669     1.007825032230
         H            1.275317690680    -1.349032946979    -2.008218034331     1.007825032230
         H            2.248317690680    -1.077032946979    -0.524218034331     1.007825032230
         H            3.197317690680     1.659967053021    -0.356218034331     1.007825032230
         H           -0.933682309320     1.373967053021     1.225781965669     1.007825032230
         H            2.259797690680     0.164300053021    -1.813658034331     1.007825032230
         H            2.465007690680     0.804724053021    -1.751458034331     1.007825032230
         H            2.455027690680     2.637406053021    -1.676238034331     1.007825032230
         H           -0.935392309320     3.096021053021     1.731261965669     1.007825032230
         H           -1.535192309320     2.616952053021     0.093051965669     1.007825032230
         C           -3.089682309320    -2.856032946979     0.492781965669    12.000000000000
         C           -1.589682309320    -2.766032946979     0.440781965669    12.000000000000
         O           -0.937682309320    -3.274032946979    -0.499218034331    15.994914619570
         O           -1.024682309320    -2.189032946979     1.391781965669    15.994914619570
         H           -3.470682309320    -1.837032946979     0.531781965669     1.007825032230
         H           -3.365682309320    -3.330032946979     1.434781965669     1.007825032230
         H           -3.574522309320    -3.409317946979    -0.325028034331     1.007825032230

  Running in c1 symmetry.

  Rotational constants: A =      0.05535  B =      0.01425  C =      0.01193 [cm^-1]
  Rotational constants: A =   1659.48369  B =    427.23948  C =    357.55808 [MHz]
  Nuclear repulsion =  614.493666951609157

  Charge       = -1
  Multiplicity = 1
  Electrons    = 88
  Nalpha       = 44
  Nbeta        = 44

  ==> Algorithm <==

  SCF Algorithm Type is PK.
  DIIS enabled.
  MOM disabled.
  Fractional occupation disabled.
  Guess Type is SAD.
  Energy threshold   = 1.00e-06
  Density threshold  = 1.00e-10
  Integral threshold = 0.00e+00

  ==> Primary Basis <==

  Basis Set: CC-PVDZ
    Blend: CC-PVDZ
    Number of shells: 108
    Number of basis function: 224
    Number of Cartesian functions: 235
    Spherical Harmonics?: true
    Max angular momentum: 2

  ==> Pre-Iterations <==

   -------------------------------------------------------
    Irrep   Nso     Nmo     Nalpha   Nbeta   Ndocc  Nsocc
   -------------------------------------------------------
     A        224     224       0       0       0       0
   -------------------------------------------------------
    Total     224     224      44      44      44       0
   -------------------------------------------------------

  ==> Integral Setup <==

  Using integral reordering PK algorithm.
  Sizing the integral batches needed.
  Building batch lookup table.
   Calculation information:
      Number of atoms:                  25
      Number of AO shells:             108
      Number of primitives:            312
      Number of atomic orbitals:       235
      Number of basis functions:       224

      Integral cutoff                 1.00e-12
      Number of threads:                 1

	Batch   1 pq = [       0,    9405] index = [             0,44231715] size =     44231715
	Batch   2 pq = [    9405,   13301] index = [      44231715,88464951] size =     44233236
	Batch   3 pq = [   13301,   16290] index = [      88464951,132690195] size =     44225244
	Batch   4 pq = [   16290,   18810] index = [     132690195,176917455] size =     44227260
	Batch   5 pq = [   18810,   21030] index = [     176917455,221140965] size =     44223510
	Batch   6 pq = [   21030,   23037] index = [     221140965,265363203] size =     44222238
	Batch   7 pq = [   23037,   24883] index = [     265363203,309594286] size =     44231083
	Batch   8 pq = [   24883,   25200] index = [     309594286,317532600] size =      7938314
  Task number: 29
  Buffer size: 11059200
  Buffer per thread: 2
  We computed 14742240 shell quartets total.
  Whereas there are 17325441 unique shell quartets.

  ==> DiskJK: Disk-Based J/K Matrices <==

    J tasked:                  Yes
    K tasked:                  Yes
    wK tasked:                  No
    Memory [MiB]:              375
    Schwarz Cutoff:          1E-12

    OpenMP threads:              1

  Minimum eigenvalue in the overlap matrix is 1.4955412573E-03.
  Using Symmetric Orthogonalization.

  SCF Guess: Superposition of Atomic Densities via on-the-fly atomic UHF.

  ==> Iterations <==

                        Total Energy        Delta E     RMS |[F,P]|

   @RHF iter SAD:  -550.85817541781284   -5.50858e+02   0.00000e+00
   @RHF iter   1:  -551.75916915489756   -9.00994e-01   3.95073e-03 DIIS
   @RHF iter   2:  -552.05068919986797   -2.91520e-01   2.33003e-03 DIIS
   @RHF iter   3:  -552.14831534407926   -9.76261e-02   4.03502e-04 DIIS
   @RHF iter   4:  -552.15351972203030   -5.20438e-03   1.65694e-04 DIIS
   @RHF iter   5:  -552.15440113902719   -8.81417e-04   3.73343e-05 DIIS
   @RHF iter   6:  -552.15446171883707   -6.05798e-05   1.81944e-05 DIIS
   @RHF iter   7:  -552.15447636095951   -1.46421e-05   5.33270e-06 DIIS
   @RHF iter   8:  -552.15447873369180   -2.37273e-06   2.25213e-06 DIIS
   @RHF iter   9:  -552.15447910397529   -3.70283e-07   7.62976e-07 DIIS
   @RHF iter  10:  -552.15447914041954   -3.64442e-08   2.13596e-07 DIIS
   @RHF iter  11:  -552.15447914277593   -2.35639e-09   5.98462e-08 DIIS
   @RHF iter  12:  -552.15447914298602   -2.10093e-10   2.63054e-08 DIIS
   @RHF iter  13:  -552.15447914301296   -2.69438e-11   6.84357e-09 DIIS
   @RHF iter  14:  -552.15447914301853   -5.57066e-12   2.39684e-09 DIIS
   @RHF iter  15:  -552.15447914301501    3.52429e-12   9.77677e-10 DIIS
   @RHF iter  16:  -552.15447914301876   -3.75167e-12   2.83143e-10 DIIS
   @RHF iter  17:  -552.15447914301797    7.95808e-13   1.13555e-10 DIIS
   @RHF iter  18:  -552.15447914301501    2.95586e-12   4.97724e-11 DIIS
  Energy and wave function converged.

  ==> Post-Iterations <==

    Orbital Energies [Eh]
    ---------------------

    Doubly Occupied:

       1A    -20.393349     2A    -20.270441     3A    -20.269910
       4A    -15.471425     5A    -11.236454     6A    -11.141961
       7A    -11.141323     8A    -11.132586     9A    -11.126512
      10A    -11.098464    11A    -11.061649    12A     -1.252275
      13A     -1.163557    14A     -1.138166    15A     -1.045909
      16A     -0.950765    17A     -0.892193    18A     -0.859772
      19A     -0.812614    20A     -0.735662    21A     -0.637317
      22A     -0.610475    23A     -0.554710    24A     -0.544218
      25A     -0.515057    26A     -0.503090    27A     -0.484129
      28A     -0.469750    29A     -0.447585    30A     -0.425780
      31A     -0.422016    32A     -0.419240    33A     -0.415670
      34A     -0.405292    35A     -0.404696    36A     -0.375232
      37A     -0.352906    38A     -0.313567    39A     -0.296646
      40A     -0.286666    41A     -0.247659    42A     -0.198452
      43A     -0.181481    44A     -0.172071

    Virtual:

      45A      0.283572    46A      0.297314    47A      0.301700
      48A      0.337522    49A      0.344318    50A      0.347449
      51A      0.357142    52A      0.366830    53A      0.377438
      54A      0.383405    55A      0.399682    56A      0.401447
      57A      0.409878    58A      0.435024    59A      0.459662
      60A      0.474749    61A      0.486564    62A      0.514768
      63A      0.526541    64A      0.555227    65A      0.566590
      66A      0.603063    67A      0.636177    68A      0.648520
      69A      0.686890    70A      0.698527    71A      0.711123
      72A      0.728886    73A      0.750410    74A      0.768734
      75A      0.783004    76A      0.802591    77A      0.808859
      78A      0.843470    79A      0.846877    80A      0.859233
      81A      0.870677    82A      0.906605    83A      0.924748
      84A      0.957006    85A      0.959271    86A      0.960902
      87A      0.972950    88A      0.981444    89A      0.988602
      90A      1.001210    91A      1.005165    92A      1.015757
      93A      1.021271    94A      1.025697    95A      1.037413
      96A      1.041796    97A      1.055900    98A      1.060284
      99A      1.081286   100A      1.087233   101A      1.116538
     102A      1.125316   103A      1.147138   104A      1.158097
     105A      1.178765   106A      1.192142   107A      1.220082
     108A      1.231439   109A      1.288298   110A      1.301419
     111A      1.332419   112A      1.338730   113A      1.354868
     114A      1.362333   115A      1.411132   116A      1.450346
     117A      1.474720   118A      1.493735   119A      1.531129
     120A      1.540729   121A      1.549625   122A      1.554309
     123A      1.570149   124A      1.576757   125A      1.596105
     126A      1.608050   127A      1.643300   128A      1.666373
     129A      1.676586   130A      1.695191   131A      1.709288
     132A      1.716120   133A      1.737748   134A      1.748005
     135A      1.765737   136A      1.789975   137A      1.809320
     138A      1.834852   139A      1.859298   140A      1.874727
     141A      1.888820   142A      1.936896   143A      1.949250
     144A      1.970898   145A      1.992830   146A      1.998583
     147A      2.015947   148A      2.021782   149A      2.030393
     150A      2.044129   151A      2.063623   152A      2.072152
     153A      2.079268   154A      2.095481   155A      2.104856
     156A      2.128647   157A      2.138467   158A      2.149682
     159A      2.157163   160A      2.178535   161A      2.201913
     162A      2.211633   163A      2.219891   164A      2.250485
     165A      2.259337   166A      2.268120   167A      2.276476
     168A      2.305138   169A      2.328653   170A      2.330075
     171A      2.347533   172A      2.368201   173A      2.402705
     174A      2.432469   175A      2.433334   176A      2.469903
     177A      2.497112   178A      2.547997   179A      2.550759
     180A      2.598673   181A      2.612136   182A      2.625230
     183A      2.636327   184A      2.645808   185A      2.669130
     186A      2.695606   187A      2.715935   188A      2.760425
     189A      2.784114   190A      2.817917   191A      2.843774
     192A      2.872476   193A      2.897704   194A      2.902764
     195A      2.904649   196A      2.911267   197A      2.920124
     198A      2.945550   199A      2.958296   200A      2.975611
     201A      2.992651   202A      3.047693   203A      3.101658
     204A      3.141309   205A      3.194065   206A      3.224083
     207A      3.234269   208A      3.270136   209A      3.276271
     210A      3.294782   211A      3.328357   212A      3.354393
     213A      3.427089   214A      3.461281   215A      3.609100
     216A      3.635467   217A      3.779214   218A      3.813946
     219A      3.919992   220A      3.991623   221A      4.063065
     222A      4.080552   223A      4.195640   224A      5.088984

    Final Occupation by Irrep:
              A
    DOCC [    44 ]

  @RHF Final Energy:  -552.15447914301501

   => Energetics <=

    Nuclear Repulsion Energy =            614.4936669516091570
    One-Electron Energy =               -1987.5389090635628691
    Two-Electron Energy =                 820.8907629689387022
    Total Energy =                       -552.1544791430150099

Computation Completed

Properties will be evaluated at   0.000000,   0.000000,   0.000000 [a0]

Properties computed using the SCF density matrix

  Nuclear Dipole Moment: [e a0]
     X:     0.0084      Y:     1.2669      Z:    -4.2797

  Electronic Dipole Moment: [e a0]
     X:     0.7226      Y:     1.4087      Z:     3.0366

  Dipole Moment: [e a0]
     X:     0.7310      Y:     2.6756      Z:    -1.2431     Total:     3.0395

  Dipole Moment: [D]
     X:     1.8580      Y:     6.8007      Z:    -3.1597     Total:     7.7256

*** tstop() called on ds3 at Mon Apr 27 19:07:54 2020
Module time:
	user time   =     109.17 seconds =       1.82 minutes
	system time =      47.48 seconds =       0.79 minutes
	total time  =        227 seconds =       3.78 minutes
Total time:
	user time   =     109.17 seconds =       1.82 minutes
	system time =      47.48 seconds =       0.79 minutes
	total time  =        227 seconds =       3.78 minutes
                                     G D M A

                                 by Anthony Stone

                           version 2.2.06, 22 June 2011

               Distributed Multipoles from Gaussian wavefunctions

Starting at 19:7:54 on 27 Apr 2020

Using SCF density matrix from file ./SSI/SSI-008PRO-183ASP-1-dimer.test.3018.fchk

                         Distributed Multipole Analysis

Standard DMA

Positions and radii in angstrom
Multipole moments in atomic units, ea_0^k for rank k

C          x =  0.542318  y =  0.203967  z = -0.685218 angstrom
           Maximum rank =  0   Radius =  0.650 angstrom
                   Q00  =   0.017531

C          x =  1.656318  y = -0.604033  z = -1.308218 angstrom
           Maximum rank =  0   Radius =  0.650 angstrom
                   Q00  =  -0.218229

C          x =  2.408318  y =  1.695967  z = -1.109218 angstrom
           Maximum rank =  0   Radius =  0.650 angstrom
                   Q00  =  -0.083328

C          x = -0.805682  y =  2.401967  z =  0.887782 angstrom
           Maximum rank =  0   Radius =  0.650 angstrom
                   Q00  =  -0.249086

C          x =  0.589318  y =  2.525967  z =  0.310782 angstrom
           Maximum rank =  0   Radius =  0.650 angstrom
                   Q00  =   0.750677

O          x =  1.210318  y =  3.579967  z =  0.518782 angstrom
           Maximum rank =  0   Radius =  0.650 angstrom
                   Q00  =  -0.820789

N          x =  1.105318  y =  1.536967  z = -0.451218 angstrom
           Maximum rank =  0   Radius =  0.650 angstrom
                   Q00  =  -0.474643

H          x = -0.292682  y =  0.270967  z = -1.383218 angstrom
           Maximum rank =  0   Radius =  0.325 angstrom
                   Q00  =   0.047831

H          x =  0.223318  y = -0.256033  z =  0.247782 angstrom
           Maximum rank =  0   Radius =  0.325 angstrom
                   Q00  =   0.116084

H          x =  1.275318  y = -1.349033  z = -2.008218 angstrom
           Maximum rank =  0   Radius =  0.325 angstrom
                   Q00  =   0.113145

H          x =  2.248318  y = -1.077033  z = -0.524218 angstrom
           Maximum rank =  0   Radius =  0.325 angstrom
                   Q00  =   0.115023

H          x =  3.197318  y =  1.659967  z = -0.356218 angstrom
           Maximum rank =  0   Radius =  0.325 angstrom
                   Q00  =   0.086922

H          x = -0.933682  y =  1.373967  z =  1.225782 angstrom
           Maximum rank =  0   Radius =  0.325 angstrom
                   Q00  =   0.122228

H          x =  2.259798  y =  0.164300  z = -1.813658 angstrom
           Maximum rank =  0   Radius =  0.325 angstrom
                   Q00  =   0.008531

H          x =  2.465008  y =  0.804724  z = -1.751458 angstrom
           Maximum rank =  0   Radius =  0.325 angstrom
                   Q00  =   0.150970

H          x =  2.455028  y =  2.637406  z = -1.676238 angstrom
           Maximum rank =  0   Radius =  0.325 angstrom
                   Q00  =   0.085160

H          x = -0.935392  y =  3.096021  z =  1.731262 angstrom
           Maximum rank =  0   Radius =  0.325 angstrom
                   Q00  =   0.109778

H          x = -1.535192  y =  2.616952  z =  0.093052 angstrom
           Maximum rank =  0   Radius =  0.325 angstrom
                   Q00  =   0.109476

C          x = -3.089682  y = -2.856033  z =  0.492782 angstrom
           Maximum rank =  0   Radius =  0.650 angstrom
                   Q00  =  -0.270230

C          x = -1.589682  y = -2.766033  z =  0.440782 angstrom
           Maximum rank =  0   Radius =  0.650 angstrom
                   Q00  =   0.959837

O          x = -0.937682  y = -3.274033  z = -0.499218 angstrom
           Maximum rank =  0   Radius =  0.650 angstrom
                   Q00  =  -0.928244

O          x = -1.024682  y = -2.189033  z =  1.391782 angstrom
           Maximum rank =  0   Radius =  0.650 angstrom
                   Q00  =  -0.941972

H          x = -3.470682  y = -1.837033  z =  0.531782 angstrom
           Maximum rank =  0   Radius =  0.325 angstrom
                   Q00  =   0.069474

H          x = -3.365682  y = -3.330033  z =  1.434782 angstrom
           Maximum rank =  0   Radius =  0.325 angstrom
                   Q00  =   0.074584

H          x = -3.574522  y = -3.409318  z = -0.325028 angstrom
           Maximum rank =  0   Radius =  0.325 angstrom
                   Q00  =   0.049270

Total multipoles referred to origin at
           x =   0.000000,  y =    0.000000,  z =    0.000000 angstrom
                   Q00  =  -1.000000

Finished at 19:7:54 on 27 Apr 2020

  DMA results are available in the Python driver through the
	  variable('DMA DISTRIBUTED MULTIPOLES')
  and
	  variable('DMA TOTAL MULTIPOLES')
  commands.

    Psi4 stopped on: Monday, 27 April 2020 07:07PM
    Psi4 wall time for execution: 0:03:47.32

*** Psi4 exiting successfully. Buy a developer a beer!
