                               Psi4 1.3.2 release

  ==> Input File <==

--------------------------------------------------------------------------
import numpy as np
set {scf_type pk
basis cc-pvdz
d_convergence 10
gdma_switch   0
gdma_limit    0
gdma_origin   [ 0.0,  0.0,  0.0 ]
}
molecule test {
    units Angstrom
    0 1
    --
    0 1
    C               -2.310673600341900    -2.214581655633767    -1.121960230591275
    C               -3.369673600341899    -3.318581655633767    -0.982960230591275
    H               -2.769673600341899    -1.285581655633767    -1.462960230591275
    H               -1.821673600341899    -2.043581655633767    -0.163960230591275
    H               -1.527673600341899    -2.508581655633767    -1.817960230591275
    H               -2.887673600341900    -4.230581655633768    -0.627960230591275
    H               -3.852129300341899    -3.520261655633767    -1.950722230591275
    H               -4.125438700341900    -3.004511655633767    -0.247989230591275
    C               -0.728673600341899     1.945418344366233    -1.120960230591275
    C                0.507326399658101    -0.067581655633767    -0.270960230591275
    C                0.310326399658101     1.311418344366233    -0.239960230591275
    C                1.425326399658101    -0.674581655633767     0.586039769408725
    C                2.161326399658100     0.106418344366233     1.475039769408725
    C                1.053326399658101     2.083418344366233     0.648039769408725
    C                1.977326399658101     1.487418344366233     1.498039769408725
    H               -0.052673600341899    -0.677581655633767    -0.963960230591275
    H                1.555326399658101    -1.745581655633767     0.571039769408725
    H               -0.896673600341899     2.981418344366233    -0.821960230591275
    H               -1.663673600341899     1.406418344366233    -0.958960230591275
    H                2.862326399658100    -0.359581655633767     2.152039769408725
    H                0.906326399658101     3.153418344366233     0.688039769408725
    H                2.539326399658100     2.083418344366233     2.197039769408725
    H               -0.481685600341899     1.907368344366233    -2.192197230591275

}
e, wfn = energy('scf', return_wfn=True)
gdma(wfn)
dmavals = variable('DMA DISTRIBUTED MULTIPOLES')
charges = np.array(dmavals)
print(charges)
np.save('SSI-042ILE-049PHE-1-dimer.npy', np.array(charges))--------------------------------------------------------------------------

*** tstart() called on ds3
*** at Mon Apr 27 16:31:52 2020

   => Loading Basis Set <=

    Name: CC-PVDZ
    Role: ORBITAL
    Keyword: BASIS
    atoms 1-2, 9-15  entry C          line   138 file /theoryfs2/ds/metcalf/miniconda2/envs/tf2gpu/share/psi4/basis/cc-pvdz.gbs
    atoms 3-8, 16-23 entry H          line    22 file /theoryfs2/ds/metcalf/miniconda2/envs/tf2gpu/share/psi4/basis/cc-pvdz.gbs

         ---------------------------------------------------------
                                   SCF
               by Justin Turney, Rob Parrish, Andy Simmonett
                          and Daniel G. A. Smith
                              RHF Reference
                        1 Threads,    500 MiB Core
         ---------------------------------------------------------

  ==> Geometry <==

    Molecular point group: c1
    Full point group: C1

    Geometry (in Angstrom), charge = 0, multiplicity = 1:

       Center              X                  Y                   Z               Mass
    ------------   -----------------  -----------------  -----------------  -----------------
         C           -2.310673600342    -2.214581655634    -1.121960230591    12.000000000000
         C           -3.369673600342    -3.318581655634    -0.982960230591    12.000000000000
         H           -2.769673600342    -1.285581655634    -1.462960230591     1.007825032230
         H           -1.821673600342    -2.043581655634    -0.163960230591     1.007825032230
         H           -1.527673600342    -2.508581655634    -1.817960230591     1.007825032230
         H           -2.887673600342    -4.230581655634    -0.627960230591     1.007825032230
         H           -3.852129300342    -3.520261655634    -1.950722230591     1.007825032230
         H           -4.125438700342    -3.004511655634    -0.247989230591     1.007825032230
         C           -0.728673600342     1.945418344366    -1.120960230591    12.000000000000
         C            0.507326399658    -0.067581655634    -0.270960230591    12.000000000000
         C            0.310326399658     1.311418344366    -0.239960230591    12.000000000000
         C            1.425326399658    -0.674581655634     0.586039769409    12.000000000000
         C            2.161326399658     0.106418344366     1.475039769409    12.000000000000
         C            1.053326399658     2.083418344366     0.648039769409    12.000000000000
         C            1.977326399658     1.487418344366     1.498039769409    12.000000000000
         H           -0.052673600342    -0.677581655634    -0.963960230591     1.007825032230
         H            1.555326399658    -1.745581655634     0.571039769409     1.007825032230
         H           -0.896673600342     2.981418344366    -0.821960230591     1.007825032230
         H           -1.663673600342     1.406418344366    -0.958960230591     1.007825032230
         H            2.862326399658    -0.359581655634     2.152039769409     1.007825032230
         H            0.906326399658     3.153418344366     0.688039769409     1.007825032230
         H            2.539326399658     2.083418344366     2.197039769409     1.007825032230
         H           -0.481685600342     1.907368344366    -2.192197230591     1.007825032230

  Running in c1 symmetry.

  Rotational constants: A =      0.08196  B =      0.02107  C =      0.01743 [cm^-1]
  Rotational constants: A =   2457.24497  B =    631.68550  C =    522.62301 [MHz]
  Nuclear repulsion =  400.565563061505486

  Charge       = 0
  Multiplicity = 1
  Electrons    = 68
  Nalpha       = 34
  Nbeta        = 34

  ==> Algorithm <==

  SCF Algorithm Type is PK.
  DIIS enabled.
  MOM disabled.
  Fractional occupation disabled.
  Guess Type is SAD.
  Energy threshold   = 1.00e-06
  Density threshold  = 1.00e-10
  Integral threshold = 0.00e+00

  ==> Primary Basis <==

  Basis Set: CC-PVDZ
    Blend: CC-PVDZ
    Number of shells: 96
    Number of basis function: 196
    Number of Cartesian functions: 205
    Spherical Harmonics?: true
    Max angular momentum: 2

  ==> Pre-Iterations <==

   -------------------------------------------------------
    Irrep   Nso     Nmo     Nalpha   Nbeta   Ndocc  Nsocc
   -------------------------------------------------------
     A        196     196       0       0       0       0
   -------------------------------------------------------
    Total     196     196      34      34      34       0
   -------------------------------------------------------

  ==> Integral Setup <==

  Using integral reordering PK algorithm.
  Sizing the integral batches needed.
  Building batch lookup table.
   Calculation information:
      Number of atoms:                  23
      Number of AO shells:              96
      Number of primitives:            268
      Number of atomic orbitals:       205
      Number of basis functions:       196

      Integral cutoff                 1.00e-12
      Number of threads:                 1

	Batch   1 pq = [       0,    9405] index = [             0,44231715] size =     44231715
	Batch   2 pq = [    9405,   13301] index = [      44231715,88464951] size =     44233236
	Batch   3 pq = [   13301,   16290] index = [      88464951,132690195] size =     44225244
	Batch   4 pq = [   16290,   18810] index = [     132690195,176917455] size =     44227260
	Batch   5 pq = [   18810,   19306] index = [     176917455,186370471] size =      9453016
  Task number: 17
  Buffer size: 11059200
  Buffer per thread: 2
  We computed 8718299 shell quartets total.
  Whereas there are 10841496 unique shell quartets.

  ==> DiskJK: Disk-Based J/K Matrices <==

    J tasked:                  Yes
    K tasked:                  Yes
    wK tasked:                  No
    Memory [MiB]:              375
    Schwarz Cutoff:          1E-12

    OpenMP threads:              1

  Minimum eigenvalue in the overlap matrix is 3.0078091840E-04.
  Using Symmetric Orthogonalization.

  SCF Guess: Superposition of Atomic Densities via on-the-fly atomic UHF.

  ==> Iterations <==

                        Total Energy        Delta E     RMS |[F,P]|

   @RHF iter SAD:  -347.87075188052711   -3.47871e+02   0.00000e+00
   @RHF iter   1:  -348.76867133439310   -8.97919e-01   2.88466e-03 DIIS
   @RHF iter   2:  -348.96062563924170   -1.91954e-01   1.19268e-03 DIIS
   @RHF iter   3:  -348.99047613730784   -2.98505e-02   2.59531e-04 DIIS
   @RHF iter   4:  -348.99296430242714   -2.48817e-03   5.48328e-05 DIIS
   @RHF iter   5:  -348.99304230934774   -7.80069e-05   1.85626e-05 DIIS
   @RHF iter   6:  -348.99305075760077   -8.44825e-06   4.92964e-06 DIIS
   @RHF iter   7:  -348.99305146048789   -7.02887e-07   1.26602e-06 DIIS
   @RHF iter   8:  -348.99305151767817   -5.71903e-08   3.38595e-07 DIIS
   @RHF iter   9:  -348.99305152594167   -8.26350e-09   1.55843e-07 DIIS
   @RHF iter  10:  -348.99305152797086   -2.02920e-09   7.47411e-08 DIIS
   @RHF iter  11:  -348.99305152869528   -7.24413e-10   2.82979e-08 DIIS
   @RHF iter  12:  -348.99305152878412   -8.88463e-11   1.33823e-08 DIIS
   @RHF iter  13:  -348.99305152879617   -1.20508e-11   4.12839e-09 DIIS
   @RHF iter  14:  -348.99305152879731   -1.13687e-12   1.21258e-09 DIIS
   @RHF iter  15:  -348.99305152879725    5.68434e-14   4.92407e-10 DIIS
   @RHF iter  16:  -348.99305152879896   -1.70530e-12   2.08176e-10 DIIS
   @RHF iter  17:  -348.99305152879936   -3.97904e-13   7.75566e-11 DIIS
  Energy and wave function converged.

  ==> Post-Iterations <==

    Orbital Energies [Eh]
    ---------------------

    Doubly Occupied:

       1A    -11.238684     2A    -11.234623     3A    -11.233407
       4A    -11.230008     5A    -11.228848     6A    -11.228159
       7A    -11.227875     8A    -11.222031     9A    -11.219558
      10A     -1.151375    11A     -1.043262    12A     -1.018666
      13A     -1.010283    14A     -0.929753    15A     -0.841403
      16A     -0.823532    17A     -0.794165    18A     -0.689758
      19A     -0.630612    20A     -0.629174    21A     -0.600960
      22A     -0.596754    23A     -0.581850    24A     -0.575593
      25A     -0.561450    26A     -0.534262    27A     -0.503380
      28A     -0.490664    29A     -0.487818    30A     -0.484175
      31A     -0.482824    32A     -0.479036    33A     -0.330921
      34A     -0.320125

    Virtual:

      35A      0.135028    36A      0.143528    37A      0.174948
      38A      0.192813    39A      0.199139    40A      0.214770
      41A      0.234982    42A      0.244036    43A      0.250531
      44A      0.258047    45A      0.270191    46A      0.274949
      47A      0.288688    48A      0.294836    49A      0.313596
      50A      0.322140    51A      0.369772    52A      0.380793
      53A      0.412008    54A      0.454998    55A      0.466649
      56A      0.478129    57A      0.502308    58A      0.567272
      59A      0.592417    60A      0.597844    61A      0.598437
      62A      0.621302    63A      0.664062    64A      0.671492
      65A      0.689912    66A      0.691179    67A      0.695981
      68A      0.704520    69A      0.725306    70A      0.740163
      71A      0.745541    72A      0.748879    73A      0.758189
      74A      0.765880    75A      0.786208    76A      0.792613
      77A      0.823710    78A      0.849745    79A      0.863038
      80A      0.866604    81A      0.881412    82A      0.889569
      83A      0.891120    84A      0.895795    85A      0.900553
      86A      0.906708    87A      0.912773    88A      0.920819
      89A      0.922620    90A      0.944022    91A      0.960458
      92A      0.982582    93A      0.995964    94A      1.008945
      95A      1.048722    96A      1.069115    97A      1.118401
      98A      1.125046    99A      1.129637   100A      1.142980
     101A      1.157018   102A      1.165642   103A      1.195702
     104A      1.223237   105A      1.236950   106A      1.243151
     107A      1.260578   108A      1.264389   109A      1.308832
     110A      1.311109   111A      1.324359   112A      1.330146
     113A      1.421437   114A      1.467291   115A      1.473339
     116A      1.509851   117A      1.541956   118A      1.557008
     119A      1.580345   120A      1.610255   121A      1.678347
     122A      1.682947   123A      1.688026   124A      1.693713
     125A      1.734951   126A      1.745799   127A      1.760343
     128A      1.790576   129A      1.816536   130A      1.854307
     131A      1.864085   132A      1.872451   133A      1.891565
     134A      1.892721   135A      1.905076   136A      1.909906
     137A      1.917986   138A      1.924697   139A      1.935302
     140A      1.943372   141A      1.948178   142A      1.949889
     143A      1.952306   144A      1.957219   145A      1.968795
     146A      1.990880   147A      2.025700   148A      2.026054
     149A      2.044306   150A      2.063552   151A      2.081882
     152A      2.094878   153A      2.103965   154A      2.116461
     155A      2.138486   156A      2.157180   157A      2.164393
     158A      2.174905   159A      2.199600   160A      2.246209
     161A      2.270502   162A      2.288648   163A      2.299466
     164A      2.312314   165A      2.320098   166A      2.351475
     167A      2.382639   168A      2.447326   169A      2.455511
     170A      2.463175   171A      2.489359   172A      2.520182
     173A      2.540379   174A      2.557440   175A      2.564562
     176A      2.640843   177A      2.733624   178A      2.752229
     179A      2.760938   180A      2.773298   181A      2.784565
     182A      2.790412   183A      2.827040   184A      2.848238
     185A      2.854155   186A      2.865478   187A      2.867377
     188A      2.947586   189A      2.955455   190A      2.985159
     191A      3.011996   192A      3.036612   193A      3.165229
     194A      3.206326   195A      3.308568   196A      3.971518

    Final Occupation by Irrep:
              A
    DOCC [    34 ]

  @RHF Final Energy:  -348.99305152879936

   => Energetics <=

    Nuclear Repulsion Energy =            400.5655630615054861
    One-Electron Energy =               -1263.8072551252716949
    Two-Electron Energy =                 514.2486405349668530
    Total Energy =                       -348.9930515287993558

Computation Completed

Properties will be evaluated at   0.000000,   0.000000,   0.000000 [a0]

Properties computed using the SCF density matrix

  Nuclear Dipole Moment: [e a0]
     X:   -11.4518      Y:    -7.3533      Z:    -5.2503

  Electronic Dipole Moment: [e a0]
     X:    11.3319      Y:     7.3734      Z:     5.2005

  Dipole Moment: [e a0]
     X:    -0.1199      Y:     0.0200      Z:    -0.0497     Total:     0.1313

  Dipole Moment: [D]
     X:    -0.3047      Y:     0.0509      Z:    -0.1264     Total:     0.3338

*** tstop() called on ds3 at Mon Apr 27 16:33:33 2020
Module time:
	user time   =      69.74 seconds =       1.16 minutes
	system time =      34.77 seconds =       0.58 minutes
	total time  =        101 seconds =       1.68 minutes
Total time:
	user time   =      69.74 seconds =       1.16 minutes
	system time =      34.77 seconds =       0.58 minutes
	total time  =        101 seconds =       1.68 minutes
                                     G D M A

                                 by Anthony Stone

                           version 2.2.06, 22 June 2011

               Distributed Multipoles from Gaussian wavefunctions

Starting at 16:33:33 on 27 Apr 2020

Using SCF density matrix from file ./SSI/SSI-042ILE-049PHE-1-dimer.test.27105.fchk

                         Distributed Multipole Analysis

Standard DMA

Positions and radii in angstrom
Multipole moments in atomic units, ea_0^k for rank k

C          x = -2.310674  y = -2.214582  z = -1.121960 angstrom
           Maximum rank =  0   Radius =  0.650 angstrom
                   Q00  =  -0.247944

C          x = -3.369674  y = -3.318582  z = -0.982960 angstrom
           Maximum rank =  0   Radius =  0.650 angstrom
                   Q00  =  -0.234363

H          x = -2.769674  y = -1.285582  z = -1.462960 angstrom
           Maximum rank =  0   Radius =  0.325 angstrom
                   Q00  =   0.081319

H          x = -1.821674  y = -2.043582  z = -0.163960 angstrom
           Maximum rank =  0   Radius =  0.325 angstrom
                   Q00  =   0.083508

H          x = -1.527674  y = -2.508582  z = -1.817960 angstrom
           Maximum rank =  0   Radius =  0.325 angstrom
                   Q00  =   0.075701

H          x = -2.887674  y = -4.230582  z = -0.627960 angstrom
           Maximum rank =  0   Radius =  0.325 angstrom
                   Q00  =   0.081641

H          x = -3.852129  y = -3.520262  z = -1.950722 angstrom
           Maximum rank =  0   Radius =  0.325 angstrom
                   Q00  =   0.081319

H          x = -4.125439  y = -3.004512  z = -0.247989 angstrom
           Maximum rank =  0   Radius =  0.325 angstrom
                   Q00  =   0.082040

C          x = -0.728674  y =  1.945418  z = -1.120960 angstrom
           Maximum rank =  0   Radius =  0.650 angstrom
                   Q00  =  -0.199643

C          x =  0.507326  y = -0.067582  z = -0.270960 angstrom
           Maximum rank =  0   Radius =  0.650 angstrom
                   Q00  =  -0.018911

C          x =  0.310326  y =  1.311418  z = -0.239960 angstrom
           Maximum rank =  0   Radius =  0.650 angstrom
                   Q00  =  -0.101017

C          x =  1.425326  y = -0.674582  z =  0.586040 angstrom
           Maximum rank =  0   Radius =  0.650 angstrom
                   Q00  =  -0.070394

C          x =  2.161326  y =  0.106418  z =  1.475040 angstrom
           Maximum rank =  0   Radius =  0.650 angstrom
                   Q00  =  -0.089707

C          x =  1.053326  y =  2.083418  z =  0.648040 angstrom
           Maximum rank =  0   Radius =  0.650 angstrom
                   Q00  =  -0.051378

C          x =  1.977326  y =  1.487418  z =  1.498040 angstrom
           Maximum rank =  0   Radius =  0.650 angstrom
                   Q00  =  -0.076774

H          x = -0.052674  y = -0.677582  z = -0.963960 angstrom
           Maximum rank =  0   Radius =  0.325 angstrom
                   Q00  =   0.057713

H          x =  1.555326  y = -1.745582  z =  0.571040 angstrom
           Maximum rank =  0   Radius =  0.325 angstrom
                   Q00  =   0.062907

H          x = -0.896674  y =  2.981418  z = -0.821960 angstrom
           Maximum rank =  0   Radius =  0.325 angstrom
                   Q00  =   0.098325

H          x = -1.663674  y =  1.406418  z = -0.958960 angstrom
           Maximum rank =  0   Radius =  0.325 angstrom
                   Q00  =   0.099613

H          x =  2.862326  y = -0.359582  z =  2.152040 angstrom
           Maximum rank =  0   Radius =  0.325 angstrom
                   Q00  =   0.060894

H          x =  0.906326  y =  3.153418  z =  0.688040 angstrom
           Maximum rank =  0   Radius =  0.325 angstrom
                   Q00  =   0.057354

H          x =  2.539326  y =  2.083418  z =  2.197040 angstrom
           Maximum rank =  0   Radius =  0.325 angstrom
                   Q00  =   0.064169

H          x = -0.481686  y =  1.907368  z = -2.192197 angstrom
           Maximum rank =  0   Radius =  0.325 angstrom
                   Q00  =   0.103625

Total multipoles referred to origin at
           x =   0.000000,  y =    0.000000,  z =    0.000000 angstrom
                   Q00  =  -0.000000

Finished at 16:33:33 on 27 Apr 2020

  DMA results are available in the Python driver through the
	  variable('DMA DISTRIBUTED MULTIPOLES')
  and
	  variable('DMA TOTAL MULTIPOLES')
  commands.

    Psi4 stopped on: Monday, 27 April 2020 04:33PM
    Psi4 wall time for execution: 0:01:40.38

*** Psi4 exiting successfully. Buy a developer a beer!
