                               Psi4 1.3.2 release

  ==> Input File <==

--------------------------------------------------------------------------
import numpy as np
set {scf_type pk
basis cc-pvdz
d_convergence 10
gdma_switch   0
gdma_limit    0
gdma_origin   [ 0.0,  0.0,  0.0 ]
}
molecule test {
    units Angstrom
    0 1
    --
    0 1
    C               -1.708322124604686    -2.300366648908222    -0.547259866592834
    C               -0.853322124604686    -2.536366648908222    -1.791259866592834
    C               -2.003322124604686    -3.611366648908222     0.171740133407166
    H               -1.166322124604686    -1.646366648908222     0.134740133407166
    H               -2.649322124604686    -1.812366648908222    -0.800259866592834
    H               -1.290322124604686    -3.307366648908222    -2.423259866592833
    H                0.129677875395314    -2.886366648908222    -1.471259866592834
    H               -1.072322124604686    -4.179366648908222     0.284740133407166
    H               -2.375322124604686    -3.374366648908222     1.175740133407166
    H               -0.719351424604686    -1.614417648908222    -2.376119866592834
    H               -2.760638124604686    -4.203920048908222    -0.362439866592834
    C                2.498677875395313     0.521633351091778    -1.122259866592834
    C                0.794677875395314     0.187633351091778     0.701740133407166
    C                1.410677875395314     1.037633351091778    -0.216259866592834
    C               -0.210322124604686     0.656633351091778     1.538740133407166
    C               -0.615322124604686     1.980633351091778     1.460740133407166
    C                0.993677875395314     2.362633351091778    -0.292259866592834
    C               -0.013322124604686     2.835633351091778     0.544740133407166
    H                1.081677875395314    -0.852366648908222     0.766740133407166
    H               -0.681322124604686    -0.009366648908222     2.246740133407166
    H                2.946677875395314     1.344633351091778    -1.681259866592834
    H                2.036677875395314    -0.152366648908222    -1.844259866592834
    H               -1.397322124604686     2.318633351091778     2.118740133407166
    H                1.456677875395314     3.031633351091778    -1.003259866592834
    H               -0.327322124604686     3.867633351091778     0.489740133407166
    H                3.290203875395314    -0.030210648908222    -0.594099866592834

}
e, wfn = energy('scf', return_wfn=True)
gdma(wfn)
dmavals = variable('DMA DISTRIBUTED MULTIPOLES')
charges = np.array(dmavals)
print(charges)
np.save('SSI-004LYS-323PHE-1-dimer.npy', np.array(charges))--------------------------------------------------------------------------

*** tstart() called on ds3
*** at Mon Apr 27 23:16:40 2020

   => Loading Basis Set <=

    Name: CC-PVDZ
    Role: ORBITAL
    Keyword: BASIS
    atoms 1-3, 12-18  entry C          line   138 file /theoryfs2/ds/metcalf/miniconda2/envs/tf2gpu/share/psi4/basis/cc-pvdz.gbs
    atoms 4-11, 19-26 entry H          line    22 file /theoryfs2/ds/metcalf/miniconda2/envs/tf2gpu/share/psi4/basis/cc-pvdz.gbs

         ---------------------------------------------------------
                                   SCF
               by Justin Turney, Rob Parrish, Andy Simmonett
                          and Daniel G. A. Smith
                              RHF Reference
                        1 Threads,    500 MiB Core
         ---------------------------------------------------------

  ==> Geometry <==

    Molecular point group: c1
    Full point group: C1

    Geometry (in Angstrom), charge = 0, multiplicity = 1:

       Center              X                  Y                   Z               Mass
    ------------   -----------------  -----------------  -----------------  -----------------
         C           -1.708322124605    -2.300366648908    -0.547259866593    12.000000000000
         C           -0.853322124605    -2.536366648908    -1.791259866593    12.000000000000
         C           -2.003322124605    -3.611366648908     0.171740133407    12.000000000000
         H           -1.166322124605    -1.646366648908     0.134740133407     1.007825032230
         H           -2.649322124605    -1.812366648908    -0.800259866593     1.007825032230
         H           -1.290322124605    -3.307366648908    -2.423259866593     1.007825032230
         H            0.129677875395    -2.886366648908    -1.471259866593     1.007825032230
         H           -1.072322124605    -4.179366648908     0.284740133407     1.007825032230
         H           -2.375322124605    -3.374366648908     1.175740133407     1.007825032230
         H           -0.719351424605    -1.614417648908    -2.376119866593     1.007825032230
         H           -2.760638124605    -4.203920048908    -0.362439866593     1.007825032230
         C            2.498677875395     0.521633351092    -1.122259866593    12.000000000000
         C            0.794677875395     0.187633351092     0.701740133407    12.000000000000
         C            1.410677875395     1.037633351092    -0.216259866593    12.000000000000
         C           -0.210322124605     0.656633351092     1.538740133407    12.000000000000
         C           -0.615322124605     1.980633351092     1.460740133407    12.000000000000
         C            0.993677875395     2.362633351092    -0.292259866593    12.000000000000
         C           -0.013322124605     2.835633351092     0.544740133407    12.000000000000
         H            1.081677875395    -0.852366648908     0.766740133407     1.007825032230
         H           -0.681322124605    -0.009366648908     2.246740133407     1.007825032230
         H            2.946677875395     1.344633351092    -1.681259866593     1.007825032230
         H            2.036677875395    -0.152366648908    -1.844259866593     1.007825032230
         H           -1.397322124605     2.318633351092     2.118740133407     1.007825032230
         H            1.456677875395     3.031633351092    -1.003259866593     1.007825032230
         H           -0.327322124605     3.867633351092     0.489740133407     1.007825032230
         H            3.290203875395    -0.030210648908    -0.594099866593     1.007825032230

  Running in c1 symmetry.

  Rotational constants: A =      0.05841  B =      0.02024  C =      0.01676 [cm^-1]
  Rotational constants: A =   1751.03368  B =    606.86086  C =    502.30927 [MHz]
  Nuclear repulsion =  488.050952149862212

  Charge       = 0
  Multiplicity = 1
  Electrons    = 76
  Nalpha       = 38
  Nbeta        = 38

  ==> Algorithm <==

  SCF Algorithm Type is PK.
  DIIS enabled.
  MOM disabled.
  Fractional occupation disabled.
  Guess Type is SAD.
  Energy threshold   = 1.00e-06
  Density threshold  = 1.00e-10
  Integral threshold = 0.00e+00

  ==> Primary Basis <==

  Basis Set: CC-PVDZ
    Blend: CC-PVDZ
    Number of shells: 108
    Number of basis function: 220
    Number of Cartesian functions: 230
    Spherical Harmonics?: true
    Max angular momentum: 2

  ==> Pre-Iterations <==

   -------------------------------------------------------
    Irrep   Nso     Nmo     Nalpha   Nbeta   Ndocc  Nsocc
   -------------------------------------------------------
     A        220     220       0       0       0       0
   -------------------------------------------------------
    Total     220     220      38      38      38       0
   -------------------------------------------------------

  ==> Integral Setup <==

  Using integral reordering PK algorithm.
  Sizing the integral batches needed.
  Building batch lookup table.
   Calculation information:
      Number of atoms:                  26
      Number of AO shells:             108
      Number of primitives:            300
      Number of atomic orbitals:       230
      Number of basis functions:       220

      Integral cutoff                 1.00e-12
      Number of threads:                 1

	Batch   1 pq = [       0,    9405] index = [             0,44231715] size =     44231715
	Batch   2 pq = [    9405,   13301] index = [      44231715,88464951] size =     44233236
	Batch   3 pq = [   13301,   16290] index = [      88464951,132690195] size =     44225244
	Batch   4 pq = [   16290,   18810] index = [     132690195,176917455] size =     44227260
	Batch   5 pq = [   18810,   21030] index = [     176917455,221140965] size =     44223510
	Batch   6 pq = [   21030,   23037] index = [     221140965,265363203] size =     44222238
	Batch   7 pq = [   23037,   24310] index = [     265363203,295500205] size =     30137002
  Task number: 27
  Buffer size: 11059200
  Buffer per thread: 2
  We computed 15628534 shell quartets total.
  Whereas there are 17325441 unique shell quartets.

  ==> DiskJK: Disk-Based J/K Matrices <==

    J tasked:                  Yes
    K tasked:                  Yes
    wK tasked:                  No
    Memory [MiB]:              375
    Schwarz Cutoff:          1E-12

    OpenMP threads:              1

  Minimum eigenvalue in the overlap matrix is 3.0573429539E-04.
  Using Symmetric Orthogonalization.

  SCF Guess: Superposition of Atomic Densities via on-the-fly atomic UHF.

  ==> Iterations <==

                        Total Energy        Delta E     RMS |[F,P]|

   @RHF iter SAD:  -386.91531694238887   -3.86915e+02   0.00000e+00
   @RHF iter   1:  -387.77017951313252   -8.54863e-01   2.76239e-03 DIIS
   @RHF iter   2:  -387.99016131911958   -2.19982e-01   1.16625e-03 DIIS
   @RHF iter   3:  -388.02586475084001   -3.57034e-02   2.50218e-04 DIIS
   @RHF iter   4:  -388.02875483929301   -2.89009e-03   5.11550e-05 DIIS
   @RHF iter   5:  -388.02884123978868   -8.64005e-05   1.62378e-05 DIIS
   @RHF iter   6:  -388.02884947470608   -8.23492e-06   4.77988e-06 DIIS
   @RHF iter   7:  -388.02885027494517   -8.00239e-07   1.19250e-06 DIIS
   @RHF iter   8:  -388.02885033088751   -5.59423e-08   2.62773e-07 DIIS
   @RHF iter   9:  -388.02885033586790   -4.98039e-09   1.00102e-07 DIIS
   @RHF iter  10:  -388.02885033667246   -8.04562e-10   4.53450e-08 DIIS
   @RHF iter  11:  -388.02885033692451   -2.52044e-10   1.87482e-08 DIIS
   @RHF iter  12:  -388.02885033698146   -5.69571e-11   7.94270e-09 DIIS
   @RHF iter  13:  -388.02885033698789   -6.42331e-12   3.00924e-09 DIIS
   @RHF iter  14:  -388.02885033699022   -2.33058e-12   8.94046e-10 DIIS
   @RHF iter  15:  -388.02885033698766    2.55795e-12   3.43973e-10 DIIS
   @RHF iter  16:  -388.02885033699084   -3.18323e-12   1.28422e-10 DIIS
   @RHF iter  17:  -388.02885033699016    6.82121e-13   5.61617e-11 DIIS
  Energy and wave function converged.

  ==> Post-Iterations <==

    Orbital Energies [Eh]
    ---------------------

    Doubly Occupied:

       1A    -11.241414     2A    -11.235694     3A    -11.234499
       4A    -11.230838     5A    -11.230168     6A    -11.229848
       7A    -11.229814     8A    -11.215129     9A    -11.214004
      10A    -11.213349    11A     -1.154201    12A     -1.052131
      13A     -1.045077    14A     -1.012791    15A     -0.931997
      16A     -0.920423    17A     -0.825630    18A     -0.797770
      19A     -0.792939    20A     -0.692517    21A     -0.632791
      22A     -0.630584    23A     -0.624311    24A     -0.593627
      25A     -0.582940    26A     -0.575144    27A     -0.563557
      28A     -0.544847    29A     -0.537015    30A     -0.529805
      31A     -0.489806    32A     -0.485724    33A     -0.481861
      34A     -0.469926    35A     -0.466048    36A     -0.462903
      37A     -0.332427    38A     -0.322274

    Virtual:

      39A      0.133586    40A      0.142192    41A      0.165877
      42A      0.191697    43A      0.196961    44A      0.221621
      45A      0.224176    46A      0.228991    47A      0.246521
      48A      0.250482    49A      0.257335    50A      0.267694
      51A      0.284965    52A      0.289199    53A      0.297447
      54A      0.310784    55A      0.320002    56A      0.334245
      57A      0.369661    58A      0.371843    59A      0.389675
      60A      0.425216    61A      0.454298    62A      0.464187
      63A      0.477610    64A      0.504670    65A      0.563585
      66A      0.588696    67A      0.599453    68A      0.609812
      69A      0.614852    70A      0.618458    71A      0.629278
      72A      0.642818    73A      0.685330    74A      0.695904
      75A      0.700454    76A      0.720714    77A      0.739524
      78A      0.743470    79A      0.748533    80A      0.758024
      81A      0.773586    82A      0.788035    83A      0.790643
      84A      0.806224    85A      0.816239    86A      0.838005
      87A      0.849530    88A      0.858936    89A      0.866884
      90A      0.878125    91A      0.884438    92A      0.886687
      93A      0.894290    94A      0.900554    95A      0.905135
      96A      0.909162    97A      0.912224    98A      0.916475
      99A      0.925534   100A      0.935293   101A      0.943669
     102A      0.950342   103A      0.972101   104A      0.993100
     105A      0.999879   106A      1.005042   107A      1.037243
     108A      1.081604   109A      1.118959   110A      1.123791
     111A      1.130532   112A      1.147254   113A      1.155270
     114A      1.168150   115A      1.201461   116A      1.224590
     117A      1.238727   118A      1.244835   119A      1.257265
     120A      1.295614   121A      1.306144   122A      1.309988
     123A      1.325672   124A      1.334296   125A      1.384432
     126A      1.415646   127A      1.463516   128A      1.477574
     129A      1.509890   130A      1.513779   131A      1.551903
     132A      1.566029   133A      1.604675   134A      1.643322
     135A      1.670755   136A      1.676706   137A      1.689165
     138A      1.692583   139A      1.719907   140A      1.736289
     141A      1.745797   142A      1.764039   143A      1.792987
     144A      1.816084   145A      1.854595   146A      1.861017
     147A      1.871958   148A      1.875721   149A      1.892214
     150A      1.895851   151A      1.904573   152A      1.909063
     153A      1.921620   154A      1.928515   155A      1.937416
     156A      1.945591   157A      1.956161   158A      1.962167
     159A      1.965076   160A      1.977392   161A      1.979334
     162A      1.987331   163A      1.990245   164A      2.002838
     165A      2.016267   166A      2.029779   167A      2.041334
     168A      2.053642   169A      2.063343   170A      2.078263
     171A      2.113716   172A      2.136620   173A      2.150217
     174A      2.151860   175A      2.157867   176A      2.168482
     177A      2.187643   178A      2.205058   179A      2.256416
     180A      2.265442   181A      2.285057   182A      2.291453
     183A      2.301724   184A      2.308180   185A      2.321258
     186A      2.329975   187A      2.350599   188A      2.365630
     189A      2.447157   190A      2.478196   191A      2.489987
     192A      2.504671   193A      2.538698   194A      2.549107
     195A      2.572188   196A      2.616118   197A      2.637149
     198A      2.640001   199A      2.729585   200A      2.746691
     201A      2.762265   202A      2.765946   203A      2.771226
     204A      2.791526   205A      2.799246   206A      2.814531
     207A      2.834302   208A      2.852351   209A      2.860926
     210A      2.917969   211A      2.964464   212A      2.977897
     213A      2.990924   214A      3.023406   215A      3.033099
     216A      3.089294   217A      3.168931   218A      3.209240
     219A      3.306763   220A      3.976202

    Final Occupation by Irrep:
              A
    DOCC [    38 ]

  @RHF Final Energy:  -388.02885033699016

   => Energetics <=

    Nuclear Repulsion Energy =            488.0509521498622121
    One-Electron Energy =               -1490.5079640774849850
    Two-Electron Energy =                 614.4281615906326124
    Total Energy =                       -388.0288503369901036

Computation Completed

Properties will be evaluated at   0.000000,   0.000000,   0.000000 [a0]

Properties computed using the SCF density matrix

  Nuclear Dipole Moment: [e a0]
     X:    -3.2792      Y:   -12.6618      Z:    -5.0052

  Electronic Dipole Moment: [e a0]
     X:     3.3592      Y:    12.6991      Z:     4.9437

  Dipole Moment: [e a0]
     X:     0.0800      Y:     0.0374      Z:    -0.0615     Total:     0.1076

  Dipole Moment: [D]
     X:     0.2033      Y:     0.0949      Z:    -0.1563     Total:     0.2735

*** tstop() called on ds3 at Mon Apr 27 23:19:47 2020
Module time:
	user time   =     112.96 seconds =       1.88 minutes
	system time =      54.21 seconds =       0.90 minutes
	total time  =        187 seconds =       3.12 minutes
Total time:
	user time   =     112.96 seconds =       1.88 minutes
	system time =      54.21 seconds =       0.90 minutes
	total time  =        187 seconds =       3.12 minutes
                                     G D M A

                                 by Anthony Stone

                           version 2.2.06, 22 June 2011

               Distributed Multipoles from Gaussian wavefunctions

Starting at 23:19:47 on 27 Apr 2020

Using SCF density matrix from file ./SSI/SSI-004LYS-323PHE-1-dimer.test.2047.fchk

                         Distributed Multipole Analysis

Standard DMA

Positions and radii in angstrom
Multipole moments in atomic units, ea_0^k for rank k

C          x = -1.708322  y = -2.300367  z = -0.547260 angstrom
           Maximum rank =  0   Radius =  0.650 angstrom
                   Q00  =  -0.064403

C          x = -0.853322  y = -2.536367  z = -1.791260 angstrom
           Maximum rank =  0   Radius =  0.650 angstrom
                   Q00  =  -0.250490

C          x = -2.003322  y = -3.611367  z =  0.171740 angstrom
           Maximum rank =  0   Radius =  0.650 angstrom
                   Q00  =  -0.255360

H          x = -1.166322  y = -1.646367  z =  0.134740 angstrom
           Maximum rank =  0   Radius =  0.325 angstrom
                   Q00  =   0.060070

H          x = -2.649322  y = -1.812367  z = -0.800260 angstrom
           Maximum rank =  0   Radius =  0.325 angstrom
                   Q00  =   0.050938

H          x = -1.290322  y = -3.307367  z = -2.423260 angstrom
           Maximum rank =  0   Radius =  0.325 angstrom
                   Q00  =   0.075858

H          x =  0.129678  y = -2.886367  z = -1.471260 angstrom
           Maximum rank =  0   Radius =  0.325 angstrom
                   Q00  =   0.070245

H          x = -1.072322  y = -4.179367  z =  0.284740 angstrom
           Maximum rank =  0   Radius =  0.325 angstrom
                   Q00  =   0.070828

H          x = -2.375322  y = -3.374367  z =  1.175740 angstrom
           Maximum rank =  0   Radius =  0.325 angstrom
                   Q00  =   0.076501

H          x = -0.719351  y = -1.614418  z = -2.376120 angstrom
           Maximum rank =  0   Radius =  0.325 angstrom
                   Q00  =   0.085882

H          x = -2.760638  y = -4.203920  z = -0.362440 angstrom
           Maximum rank =  0   Radius =  0.325 angstrom
                   Q00  =   0.080946

C          x =  2.498678  y =  0.521633  z = -1.122260 angstrom
           Maximum rank =  0   Radius =  0.650 angstrom
                   Q00  =  -0.203636

C          x =  0.794678  y =  0.187633  z =  0.701740 angstrom
           Maximum rank =  0   Radius =  0.650 angstrom
                   Q00  =  -0.004016

C          x =  1.410678  y =  1.037633  z = -0.216260 angstrom
           Maximum rank =  0   Radius =  0.650 angstrom
                   Q00  =  -0.096493

C          x = -0.210322  y =  0.656633  z =  1.538740 angstrom
           Maximum rank =  0   Radius =  0.650 angstrom
                   Q00  =  -0.070472

C          x = -0.615322  y =  1.980633  z =  1.460740 angstrom
           Maximum rank =  0   Radius =  0.650 angstrom
                   Q00  =  -0.087252

C          x =  0.993678  y =  2.362633  z = -0.292260 angstrom
           Maximum rank =  0   Radius =  0.650 angstrom
                   Q00  =  -0.087721

C          x = -0.013322  y =  2.835633  z =  0.544740 angstrom
           Maximum rank =  0   Radius =  0.650 angstrom
                   Q00  =  -0.057129

H          x =  1.081678  y = -0.852367  z =  0.766740 angstrom
           Maximum rank =  0   Radius =  0.325 angstrom
                   Q00  =   0.054142

H          x = -0.681322  y = -0.009367  z =  2.246740 angstrom
           Maximum rank =  0   Radius =  0.325 angstrom
                   Q00  =   0.063709

H          x =  2.946678  y =  1.344633  z = -1.681260 angstrom
           Maximum rank =  0   Radius =  0.325 angstrom
                   Q00  =   0.098272

H          x =  2.036678  y = -0.152367  z = -1.844260 angstrom
           Maximum rank =  0   Radius =  0.325 angstrom
                   Q00  =   0.102876

H          x = -1.397322  y =  2.318633  z =  2.118740 angstrom
           Maximum rank =  0   Radius =  0.325 angstrom
                   Q00  =   0.060529

H          x =  1.456678  y =  3.031633  z = -1.003260 angstrom
           Maximum rank =  0   Radius =  0.325 angstrom
                   Q00  =   0.058743

H          x = -0.327322  y =  3.867633  z =  0.489740 angstrom
           Maximum rank =  0   Radius =  0.325 angstrom
                   Q00  =   0.065038

H          x =  3.290204  y = -0.030211  z = -0.594100 angstrom
           Maximum rank =  0   Radius =  0.325 angstrom
                   Q00  =   0.102396

Total multipoles referred to origin at
           x =   0.000000,  y =    0.000000,  z =    0.000000 angstrom
                   Q00  =  -0.000000

Finished at 23:19:47 on 27 Apr 2020

  DMA results are available in the Python driver through the
	  variable('DMA DISTRIBUTED MULTIPOLES')
  and
	  variable('DMA TOTAL MULTIPOLES')
  commands.

    Psi4 stopped on: Monday, 27 April 2020 11:19PM
    Psi4 wall time for execution: 0:03:07.76

*** Psi4 exiting successfully. Buy a developer a beer!
