                               Psi4 1.3.2 release

  ==> Input File <==

--------------------------------------------------------------------------
import numpy as np
set {scf_type pk
basis cc-pvdz
d_convergence 10
gdma_switch   0
gdma_limit    0
gdma_origin   [ 0.0,  0.0,  0.0 ]
}
molecule test {
    units Angstrom
    0 1
    --
    0 1
    C                0.900888411326780    -1.616505556239288     0.273663796583723
    C                0.713888411326780    -1.789505556239288    -1.240336203416277
    C                1.755888411326779    -0.406505556239288     0.648663796583723
    H               -0.083111588673220    -1.528505556239288     0.735663796583723
    H                1.378888411326780    -2.510505556239288     0.678663796583723
    H                0.143888411326780    -0.933505556239288    -1.610336203416277
    H                2.796888411326779    -0.606505556239288     0.388663796583723
    H                1.419888411326780     0.469494443760712     0.096663796583723
    H                0.178008411326780    -2.727483556239288    -1.447776203416277
    H                1.686718411326780    -1.777163556239288    -1.753616203416277
    H                1.697368411326780    -0.195531556239288     1.726653796583723
    C               -1.321111588673220     1.384494443760712     0.656663796583723
    C               -1.995111588673220     2.315494443760712    -0.325336203416277
    H               -0.971111588673221     0.506494443760712     0.118663796583723
    H               -0.479111588673220     1.895494443760712     1.123663796583723
    H               -2.029111588673220     1.075494443760712     1.428663796583723
    H               -1.199111588673220     2.685494443760712    -0.955336203416277
    H               -2.791651588673221     1.773014243760712    -0.855646203416277
    H               -2.396671588673220     3.213563443760712     0.166823796583723

}
e, wfn = energy('scf', return_wfn=True)
gdma(wfn)
dmavals = variable('DMA DISTRIBUTED MULTIPOLES')
charges = np.array(dmavals)
print(charges)
np.save('SSI-033ARG-191LEU-1-dimer.npy', np.array(charges))--------------------------------------------------------------------------

*** tstart() called on ds3
*** at Mon Apr 27 15:52:49 2020

   => Loading Basis Set <=

    Name: CC-PVDZ
    Role: ORBITAL
    Keyword: BASIS
    atoms 1-3, 12-13  entry C          line   138 file /theoryfs2/ds/metcalf/miniconda2/envs/tf2gpu/share/psi4/basis/cc-pvdz.gbs
    atoms 4-11, 14-19 entry H          line    22 file /theoryfs2/ds/metcalf/miniconda2/envs/tf2gpu/share/psi4/basis/cc-pvdz.gbs

         ---------------------------------------------------------
                                   SCF
               by Justin Turney, Rob Parrish, Andy Simmonett
                          and Daniel G. A. Smith
                              RHF Reference
                        1 Threads,    500 MiB Core
         ---------------------------------------------------------

  ==> Geometry <==

    Molecular point group: c1
    Full point group: C1

    Geometry (in Angstrom), charge = 0, multiplicity = 1:

       Center              X                  Y                   Z               Mass
    ------------   -----------------  -----------------  -----------------  -----------------
         C            0.900888411327    -1.616505556239     0.273663796584    12.000000000000
         C            0.713888411327    -1.789505556239    -1.240336203416    12.000000000000
         C            1.755888411327    -0.406505556239     0.648663796584    12.000000000000
         H           -0.083111588673    -1.528505556239     0.735663796584     1.007825032230
         H            1.378888411327    -2.510505556239     0.678663796584     1.007825032230
         H            0.143888411327    -0.933505556239    -1.610336203416     1.007825032230
         H            2.796888411327    -0.606505556239     0.388663796584     1.007825032230
         H            1.419888411327     0.469494443761     0.096663796584     1.007825032230
         H            0.178008411327    -2.727483556239    -1.447776203416     1.007825032230
         H            1.686718411327    -1.777163556239    -1.753616203416     1.007825032230
         H            1.697368411327    -0.195531556239     1.726653796584     1.007825032230
         C           -1.321111588673     1.384494443761     0.656663796584    12.000000000000
         C           -1.995111588673     2.315494443761    -0.325336203416    12.000000000000
         H           -0.971111588673     0.506494443761     0.118663796584     1.007825032230
         H           -0.479111588673     1.895494443761     1.123663796584     1.007825032230
         H           -2.029111588673     1.075494443761     1.428663796584     1.007825032230
         H           -1.199111588673     2.685494443761    -0.955336203416     1.007825032230
         H           -2.791651588673     1.773014243761    -0.855646203416     1.007825032230
         H           -2.396671588673     3.213563443761     0.166823796584     1.007825032230

  Running in c1 symmetry.

  Rotational constants: A =      0.20772  B =      0.04791  C =      0.04281 [cm^-1]
  Rotational constants: A =   6227.41241  B =   1436.19672  C =   1283.29671 [MHz]
  Nuclear repulsion =  182.635600218572506

  Charge       = 0
  Multiplicity = 1
  Electrons    = 44
  Nalpha       = 22
  Nbeta        = 22

  ==> Algorithm <==

  SCF Algorithm Type is PK.
  DIIS enabled.
  MOM disabled.
  Fractional occupation disabled.
  Guess Type is SAD.
  Energy threshold   = 1.00e-06
  Density threshold  = 1.00e-10
  Integral threshold = 0.00e+00

  ==> Primary Basis <==

  Basis Set: CC-PVDZ
    Blend: CC-PVDZ
    Number of shells: 72
    Number of basis function: 140
    Number of Cartesian functions: 145
    Spherical Harmonics?: true
    Max angular momentum: 2

  ==> Pre-Iterations <==

   -------------------------------------------------------
    Irrep   Nso     Nmo     Nalpha   Nbeta   Ndocc  Nsocc
   -------------------------------------------------------
     A        140     140       0       0       0       0
   -------------------------------------------------------
    Total     140     140      22      22      22       0
   -------------------------------------------------------

  ==> Integral Setup <==

  Using integral reordering PK algorithm.
  Sizing the integral batches needed.
  Building batch lookup table.
   Calculation information:
      Number of atoms:                  19
      Number of AO shells:              72
      Number of primitives:            180
      Number of atomic orbitals:       145
      Number of basis functions:       140

      Integral cutoff                 1.00e-12
      Number of threads:                 1

	Batch   1 pq = [       0,    9405] index = [             0,44231715] size =     44231715
	Batch   2 pq = [    9405,    9870] index = [      44231715,48713385] size =      4481670
  Task number: 5
  Buffer size: 11059200
  Buffer per thread: 2
  We computed 3060314 shell quartets total.
  Whereas there are 3454506 unique shell quartets.

  ==> DiskJK: Disk-Based J/K Matrices <==

    J tasked:                  Yes
    K tasked:                  Yes
    wK tasked:                  No
    Memory [MiB]:              375
    Schwarz Cutoff:          1E-12

    OpenMP threads:              1

  Minimum eigenvalue in the overlap matrix is 5.5116999333E-03.
  Using Symmetric Orthogonalization.

  SCF Guess: Superposition of Atomic Densities via on-the-fly atomic UHF.

  ==> Iterations <==

                        Total Energy        Delta E     RMS |[F,P]|

   @RHF iter SAD:  -196.41661105251930   -1.96417e+02   0.00000e+00
   @RHF iter   1:  -197.30685163768510   -8.90241e-01   3.81071e-03 DIIS
   @RHF iter   2:  -197.46807090106407   -1.61219e-01   1.63441e-03 DIIS
   @RHF iter   3:  -197.49632652882465   -2.82556e-02   3.27786e-04 DIIS
   @RHF iter   4:  -197.49857315487597   -2.24663e-03   4.99584e-05 DIIS
   @RHF iter   5:  -197.49861378886797   -4.06340e-05   1.52136e-05 DIIS
   @RHF iter   6:  -197.49861733322928   -3.54436e-06   2.47288e-06 DIIS
   @RHF iter   7:  -197.49861744421543   -1.10986e-07   4.66151e-07 DIIS
   @RHF iter   8:  -197.49861744857415   -4.35872e-09   1.17511e-07 DIIS
   @RHF iter   9:  -197.49861744883430   -2.60144e-10   3.59687e-08 DIIS
   @RHF iter  10:  -197.49861744886275   -2.84501e-11   7.66000e-09 DIIS
   @RHF iter  11:  -197.49861744886442   -1.67688e-12   1.50433e-09 DIIS
   @RHF iter  12:  -197.49861744886465   -2.27374e-13   3.15900e-10 DIIS
   @RHF iter  13:  -197.49861744886459    5.68434e-14   6.98114e-11 DIIS
  Energy and wave function converged.

  ==> Post-Iterations <==

    Orbital Energies [Eh]
    ---------------------

    Doubly Occupied:

       1A    -11.219678     2A    -11.219024     3A    -11.216829
       4A    -11.215208     5A    -11.214423     6A     -1.052412
       7A     -1.024415     8A     -0.923799     9A     -0.834034
      10A     -0.796111    11A     -0.628673    12A     -0.609257
      13A     -0.596217    14A     -0.593292    15A     -0.549262
      16A     -0.531674    17A     -0.499876    18A     -0.491019
      19A     -0.477989    20A     -0.472524    21A     -0.467109
      22A     -0.466021

    Virtual:

      23A      0.169922    24A      0.196307    25A      0.216923
      26A      0.224294    27A      0.243418    28A      0.251421
      29A      0.256170    30A      0.265814    31A      0.275704
      32A      0.279702    33A      0.291895    34A      0.301475
      35A      0.317934    36A      0.367200    37A      0.376441
      38A      0.399227    39A      0.429452    40A      0.559245
      41A      0.587356    42A      0.599140    43A      0.613407
      44A      0.621113    45A      0.621994    46A      0.649365
      47A      0.655914    48A      0.694093    49A      0.778593
      50A      0.800493    51A      0.818023    52A      0.850349
      53A      0.859380    54A      0.871364    55A      0.876384
      56A      0.892525    57A      0.895099    58A      0.898800
      59A      0.905663    60A      0.909773    61A      0.916884
      62A      0.922264    63A      0.943416    64A      0.959785
      65A      0.970439    66A      0.974029    67A      0.980541
      68A      1.058876    69A      1.120434    70A      1.121940
      71A      1.138068    72A      1.164457    73A      1.205826
      74A      1.276747    75A      1.370215    76A      1.462781
      77A      1.477906    78A      1.492660    79A      1.498469
      80A      1.525334    81A      1.609475    82A      1.628500
      83A      1.669226    84A      1.671370    85A      1.687226
      86A      1.695069    87A      1.711439    88A      1.843981
      89A      1.853769    90A      1.861171    91A      1.879169
      92A      1.894637    93A      1.910016    94A      1.914933
      95A      1.929006    96A      1.937341    97A      1.945165
      98A      1.956468    99A      1.965978   100A      1.969608
     101A      1.981428   102A      1.988086   103A      1.997524
     104A      2.010352   105A      2.017460   106A      2.047618
     107A      2.087214   108A      2.108324   109A      2.138504
     110A      2.145688   111A      2.175673   112A      2.278412
     113A      2.299552   114A      2.305732   115A      2.315381
     116A      2.317753   117A      2.338906   118A      2.459141
     119A      2.474145   120A      2.494160   121A      2.526643
     122A      2.571521   123A      2.581315   124A      2.593862
     125A      2.622547   126A      2.626290   127A      2.750007
     128A      2.765008   129A      2.781588   130A      2.796986
     131A      2.801558   132A      2.817586   133A      2.844835
     134A      2.863496   135A      2.915374   136A      2.942746
     137A      2.963894   138A      2.972465   139A      3.020623
     140A      3.069477

    Final Occupation by Irrep:
              A
    DOCC [    22 ]

  @RHF Final Energy:  -197.49861744886459

   => Energetics <=

    Nuclear Repulsion Energy =            182.6356002185725060
    One-Electron Energy =                -626.0707428194129989
    Two-Electron Energy =                 245.9365251519758999
    Total Energy =                       -197.4986174488645929

Computation Completed

Properties will be evaluated at   0.000000,   0.000000,   0.000000 [a0]

Properties computed using the SCF density matrix

  Nuclear Dipole Moment: [e a0]
     X:    -0.6077      Y:     1.2561      Z:    -0.1487

  Electronic Dipole Moment: [e a0]
     X:     0.6126      Y:    -1.2674      Z:     0.1785

  Dipole Moment: [e a0]
     X:     0.0050      Y:    -0.0113      Z:     0.0299     Total:     0.0323

  Dipole Moment: [D]
     X:     0.0126      Y:    -0.0288      Z:     0.0759     Total:     0.0821

*** tstop() called on ds3 at Mon Apr 27 15:53:10 2020
Module time:
	user time   =      14.87 seconds =       0.25 minutes
	system time =       5.71 seconds =       0.10 minutes
	total time  =         21 seconds =       0.35 minutes
Total time:
	user time   =      14.87 seconds =       0.25 minutes
	system time =       5.71 seconds =       0.10 minutes
	total time  =         21 seconds =       0.35 minutes
                                     G D M A

                                 by Anthony Stone

                           version 2.2.06, 22 June 2011

               Distributed Multipoles from Gaussian wavefunctions

Starting at 15:53:10 on 27 Apr 2020

Using SCF density matrix from file ./SSI/SSI-033ARG-191LEU-1-dimer.test.20353.fchk

                         Distributed Multipole Analysis

Standard DMA

Positions and radii in angstrom
Multipole moments in atomic units, ea_0^k for rank k

C          x =  0.900888  y = -1.616506  z =  0.273664 angstrom
           Maximum rank =  0   Radius =  0.650 angstrom
                   Q00  =  -0.098139

C          x =  0.713888  y = -1.789506  z = -1.240336 angstrom
           Maximum rank =  0   Radius =  0.650 angstrom
                   Q00  =  -0.241503

C          x =  1.755888  y = -0.406506  z =  0.648664 angstrom
           Maximum rank =  0   Radius =  0.650 angstrom
                   Q00  =  -0.228039

H          x = -0.083112  y = -1.528506  z =  0.735664 angstrom
           Maximum rank =  0   Radius =  0.325 angstrom
                   Q00  =   0.047062

H          x =  1.378888  y = -2.510506  z =  0.678664 angstrom
           Maximum rank =  0   Radius =  0.325 angstrom
                   Q00  =   0.047138

H          x =  0.143888  y = -0.933506  z = -1.610336 angstrom
           Maximum rank =  0   Radius =  0.325 angstrom
                   Q00  =   0.074089

H          x =  2.796888  y = -0.606506  z =  0.388664 angstrom
           Maximum rank =  0   Radius =  0.325 angstrom
                   Q00  =   0.076646

H          x =  1.419888  y =  0.469494  z =  0.096664 angstrom
           Maximum rank =  0   Radius =  0.325 angstrom
                   Q00  =   0.076130

H          x =  0.178008  y = -2.727484  z = -1.447776 angstrom
           Maximum rank =  0   Radius =  0.325 angstrom
                   Q00  =   0.087022

H          x =  1.686718  y = -1.777164  z = -1.753616 angstrom
           Maximum rank =  0   Radius =  0.325 angstrom
                   Q00  =   0.077020

H          x =  1.697368  y = -0.195532  z =  1.726654 angstrom
           Maximum rank =  0   Radius =  0.325 angstrom
                   Q00  =   0.084977

C          x = -1.321112  y =  1.384494  z =  0.656664 angstrom
           Maximum rank =  0   Radius =  0.650 angstrom
                   Q00  =  -0.228183

C          x = -1.995112  y =  2.315494  z = -0.325336 angstrom
           Maximum rank =  0   Radius =  0.650 angstrom
                   Q00  =  -0.218322

H          x = -0.971112  y =  0.506494  z =  0.118664 angstrom
           Maximum rank =  0   Radius =  0.325 angstrom
                   Q00  =   0.075387

H          x = -0.479112  y =  1.895494  z =  1.123664 angstrom
           Maximum rank =  0   Radius =  0.325 angstrom
                   Q00  =   0.077372

H          x = -2.029112  y =  1.075494  z =  1.428664 angstrom
           Maximum rank =  0   Radius =  0.325 angstrom
                   Q00  =   0.074886

H          x = -1.199112  y =  2.685494  z = -0.955336 angstrom
           Maximum rank =  0   Radius =  0.325 angstrom
                   Q00  =   0.060453

H          x = -2.791652  y =  1.773014  z = -0.855646 angstrom
           Maximum rank =  0   Radius =  0.325 angstrom
                   Q00  =   0.079299

H          x = -2.396672  y =  3.213563  z =  0.166824 angstrom
           Maximum rank =  0   Radius =  0.325 angstrom
                   Q00  =   0.076705

Total multipoles referred to origin at
           x =   0.000000,  y =    0.000000,  z =    0.000000 angstrom
                   Q00  =  -0.000000

Finished at 15:53:10 on 27 Apr 2020

  DMA results are available in the Python driver through the
	  variable('DMA DISTRIBUTED MULTIPOLES')
  and
	  variable('DMA TOTAL MULTIPOLES')
  commands.

    Psi4 stopped on: Monday, 27 April 2020 03:53PM
    Psi4 wall time for execution: 0:00:20.53

*** Psi4 exiting successfully. Buy a developer a beer!
