                               Psi4 1.3.2 release

  ==> Input File <==

--------------------------------------------------------------------------
import numpy as np
set {scf_type pk
basis cc-pvdz
d_convergence 10
gdma_switch   0
gdma_limit    0
gdma_origin   [ 0.0,  0.0,  0.0 ]
}
molecule test {
    units Angstrom
    0 1
    --
    0 1
    C               -0.644894201949740     1.951067319294222     0.493848834510022
    C               -0.406894201949740     3.436067319294221     0.747848834510022
    H               -0.996894201949740     1.458067319294222     1.399848834510022
    H               -1.402894201949740     1.824067319294222    -0.280151165489978
    H                0.286105798050260     1.492067319294222     0.165848834510022
    H               -1.332894201949740     3.859067319294222     1.134848834510022
    H                0.389553798050260     3.565221319294221     1.495508834510022
    H               -0.146872201949740     3.956110319294222    -0.185931165489978
    C                0.255105798050260    -1.279932680705778    -0.386151165489978
    C               -0.624894201949740    -2.224932680705779    -1.213151165489978
    C                1.444105798050260    -1.967932680705778     0.322848834510022
    H                0.632105798050260    -0.492932680705778    -1.037151165489978
    H               -0.368894201949740    -0.825932680705778     0.384848834510022
    H               -0.073894201949740    -2.550932680705778    -2.093151165489978
    H                1.076105798050260    -2.785932680705778     0.938848834510022
    H               -1.557761201949740    -1.721332680705778    -1.506663165489978
    H               -0.892665201949740    -3.097372680705778    -0.599021165489978
    H                2.155710798050260    -2.383092680705778    -0.406021165489978
    H                1.964938798050260    -1.277092680705778     1.002168834510022

}
e, wfn = energy('scf', return_wfn=True)
gdma(wfn)
dmavals = variable('DMA DISTRIBUTED MULTIPOLES')
charges = np.array(dmavals)
print(charges)
np.save('SSI-008VAL-066LEU-1-dimer.npy', np.array(charges))--------------------------------------------------------------------------

*** tstart() called on ds3
*** at Mon Apr 27 18:18:32 2020

   => Loading Basis Set <=

    Name: CC-PVDZ
    Role: ORBITAL
    Keyword: BASIS
    atoms 1-2, 9-11  entry C          line   138 file /theoryfs2/ds/metcalf/miniconda2/envs/tf2gpu/share/psi4/basis/cc-pvdz.gbs
    atoms 3-8, 12-19 entry H          line    22 file /theoryfs2/ds/metcalf/miniconda2/envs/tf2gpu/share/psi4/basis/cc-pvdz.gbs

         ---------------------------------------------------------
                                   SCF
               by Justin Turney, Rob Parrish, Andy Simmonett
                          and Daniel G. A. Smith
                              RHF Reference
                        1 Threads,    500 MiB Core
         ---------------------------------------------------------

  ==> Geometry <==

    Molecular point group: c1
    Full point group: C1

    Geometry (in Angstrom), charge = 0, multiplicity = 1:

       Center              X                  Y                   Z               Mass
    ------------   -----------------  -----------------  -----------------  -----------------
         C           -0.644894201950     1.951067319294     0.493848834510    12.000000000000
         C           -0.406894201950     3.436067319294     0.747848834510    12.000000000000
         H           -0.996894201950     1.458067319294     1.399848834510     1.007825032230
         H           -1.402894201950     1.824067319294    -0.280151165490     1.007825032230
         H            0.286105798050     1.492067319294     0.165848834510     1.007825032230
         H           -1.332894201950     3.859067319294     1.134848834510     1.007825032230
         H            0.389553798050     3.565221319294     1.495508834510     1.007825032230
         H           -0.146872201950     3.956110319294    -0.185931165490     1.007825032230
         C            0.255105798050    -1.279932680706    -0.386151165490    12.000000000000
         C           -0.624894201950    -2.224932680706    -1.213151165490    12.000000000000
         C            1.444105798050    -1.967932680706     0.322848834510    12.000000000000
         H            0.632105798050    -0.492932680706    -1.037151165490     1.007825032230
         H           -0.368894201950    -0.825932680706     0.384848834510     1.007825032230
         H           -0.073894201950    -2.550932680706    -2.093151165490     1.007825032230
         H            1.076105798050    -2.785932680706     0.938848834510     1.007825032230
         H           -1.557761201950    -1.721332680706    -1.506663165490     1.007825032230
         H           -0.892665201950    -3.097372680706    -0.599021165490     1.007825032230
         H            2.155710798050    -2.383092680706    -0.406021165490     1.007825032230
         H            1.964938798050    -1.277092680706     1.002168834510     1.007825032230

  Running in c1 symmetry.

  Rotational constants: A =      0.24103  B =      0.03822  C =      0.03420 [cm^-1]
  Rotational constants: A =   7226.01331  B =   1145.76417  C =   1025.27468 [MHz]
  Nuclear repulsion =  177.106794452586740

  Charge       = 0
  Multiplicity = 1
  Electrons    = 44
  Nalpha       = 22
  Nbeta        = 22

  ==> Algorithm <==

  SCF Algorithm Type is PK.
  DIIS enabled.
  MOM disabled.
  Fractional occupation disabled.
  Guess Type is SAD.
  Energy threshold   = 1.00e-06
  Density threshold  = 1.00e-10
  Integral threshold = 0.00e+00

  ==> Primary Basis <==

  Basis Set: CC-PVDZ
    Blend: CC-PVDZ
    Number of shells: 72
    Number of basis function: 140
    Number of Cartesian functions: 145
    Spherical Harmonics?: true
    Max angular momentum: 2

  ==> Pre-Iterations <==

   -------------------------------------------------------
    Irrep   Nso     Nmo     Nalpha   Nbeta   Ndocc  Nsocc
   -------------------------------------------------------
     A        140     140       0       0       0       0
   -------------------------------------------------------
    Total     140     140      22      22      22       0
   -------------------------------------------------------

  ==> Integral Setup <==

  Using integral reordering PK algorithm.
  Sizing the integral batches needed.
  Building batch lookup table.
   Calculation information:
      Number of atoms:                  19
      Number of AO shells:              72
      Number of primitives:            180
      Number of atomic orbitals:       145
      Number of basis functions:       140

      Integral cutoff                 1.00e-12
      Number of threads:                 1

	Batch   1 pq = [       0,    9405] index = [             0,44231715] size =     44231715
	Batch   2 pq = [    9405,    9870] index = [      44231715,48713385] size =      4481670
  Task number: 5
  Buffer size: 11059200
  Buffer per thread: 2
  We computed 2830738 shell quartets total.
  Whereas there are 3454506 unique shell quartets.

  ==> DiskJK: Disk-Based J/K Matrices <==

    J tasked:                  Yes
    K tasked:                  Yes
    wK tasked:                  No
    Memory [MiB]:              375
    Schwarz Cutoff:          1E-12

    OpenMP threads:              1

  Minimum eigenvalue in the overlap matrix is 5.4318808079E-03.
  Using Symmetric Orthogonalization.

  SCF Guess: Superposition of Atomic Densities via on-the-fly atomic UHF.

  ==> Iterations <==

                        Total Energy        Delta E     RMS |[F,P]|

   @RHF iter SAD:  -196.33955547657649   -1.96340e+02   0.00000e+00
   @RHF iter   1:  -197.31210485236795   -9.72549e-01   3.77645e-03 DIIS
   @RHF iter   2:  -197.47137302565375   -1.59268e-01   1.61118e-03 DIIS
   @RHF iter   3:  -197.49891261380608   -2.75396e-02   3.25049e-04 DIIS
   @RHF iter   4:  -197.50113941690788   -2.22680e-03   4.78434e-05 DIIS
   @RHF iter   5:  -197.50117807089541   -3.86540e-05   1.46326e-05 DIIS
   @RHF iter   6:  -197.50118137631699   -3.30542e-06   2.56620e-06 DIIS
   @RHF iter   7:  -197.50118149425222   -1.17935e-07   4.91130e-07 DIIS
   @RHF iter   8:  -197.50118149972997   -5.47774e-09   1.29388e-07 DIIS
   @RHF iter   9:  -197.50118150008882   -3.58853e-10   4.18568e-08 DIIS
   @RHF iter  10:  -197.50118150012969   -4.08704e-11   8.76971e-09 DIIS
   @RHF iter  11:  -197.50118150013211   -2.41585e-12   1.58777e-09 DIIS
   @RHF iter  12:  -197.50118150013236   -2.55795e-13   2.96534e-10 DIIS
   @RHF iter  13:  -197.50118150013151    8.52651e-13   5.86509e-11 DIIS
  Energy and wave function converged.

  ==> Post-Iterations <==

    Orbital Energies [Eh]
    ---------------------

    Doubly Occupied:

       1A    -11.219230     2A    -11.218084     3A    -11.217793
       4A    -11.217024     5A    -11.215104     6A     -1.047932
       7A     -1.018781     8A     -0.922985     9A     -0.836310
      10A     -0.795026    11A     -0.624447    12A     -0.600520
      13A     -0.597416    14A     -0.589764    15A     -0.545608
      16A     -0.531744    17A     -0.501738    18A     -0.486974
      19A     -0.485764    20A     -0.471726    21A     -0.468284
      22A     -0.458705

    Virtual:

      23A      0.172922    24A      0.193771    25A      0.216390
      26A      0.225403    27A      0.230478    28A      0.250090
      29A      0.260767    30A      0.261956    31A      0.276350
      32A      0.284634    33A      0.296929    34A      0.304167
      35A      0.314193    36A      0.334152    37A      0.373802
      38A      0.404381    39A      0.432333    40A      0.567998
      41A      0.580997    42A      0.595017    43A      0.605155
      44A      0.610579    45A      0.617762    46A      0.624864
      47A      0.678770    48A      0.704181    49A      0.767113
      50A      0.800728    51A      0.804745    52A      0.842599
      53A      0.878656    54A      0.883071    55A      0.891041
      56A      0.893277    57A      0.898975    58A      0.899368
      59A      0.901254    60A      0.905373    61A      0.911612
      62A      0.916818    63A      0.922930    64A      0.946455
      65A      0.947903    66A      0.966206    67A      0.987019
      68A      0.998053    69A      1.117773    70A      1.119255
      71A      1.141080    72A      1.169936    73A      1.212692
      74A      1.249112    75A      1.377153    76A      1.466305
      77A      1.473502    78A      1.479729    79A      1.501645
      80A      1.535114    81A      1.583674    82A      1.632469
      83A      1.670670    84A      1.679191    85A      1.692651
      86A      1.694206    87A      1.702867    88A      1.857839
      89A      1.862499    90A      1.872393    91A      1.884599
      92A      1.889793    93A      1.907426    94A      1.917408
      95A      1.921493    96A      1.930824    97A      1.945172
      98A      1.947843    99A      1.949244   100A      1.958251
     101A      1.974024   102A      1.982063   103A      1.989008
     104A      1.994902   105A      2.027345   106A      2.041379
     107A      2.062525   108A      2.102947   109A      2.116387
     110A      2.126854   111A      2.164349   112A      2.285725
     113A      2.297077   114A      2.306795   115A      2.313613
     116A      2.334966   117A      2.355006   118A      2.457710
     119A      2.469938   120A      2.510482   121A      2.541796
     122A      2.559056   123A      2.572065   124A      2.584987
     125A      2.616989   126A      2.627532   127A      2.745426
     128A      2.757963   129A      2.765484   130A      2.786883
     131A      2.792549   132A      2.803082   133A      2.849299
     134A      2.853748   135A      2.908823   136A      2.947216
     137A      2.959610   138A      2.966950   139A      2.978187
     140A      3.073869

    Final Occupation by Irrep:
              A
    DOCC [    22 ]

  @RHF Final Energy:  -197.50118150013151

   => Energetics <=

    Nuclear Repulsion Energy =            177.1067944525867404
    One-Electron Energy =                -615.0740339285239315
    Two-Electron Energy =                 240.4660579758056542
    Total Energy =                       -197.5011815001315085

Computation Completed

Properties will be evaluated at   0.000000,   0.000000,   0.000000 [a0]

Properties computed using the SCF density matrix

  Nuclear Dipole Moment: [e a0]
     X:    -0.2515      Y:     0.9562      Z:     0.3880

  Electronic Dipole Moment: [e a0]
     X:     0.2298      Y:    -0.9335      Z:    -0.3768

  Dipole Moment: [e a0]
     X:    -0.0216      Y:     0.0227      Z:     0.0112     Total:     0.0333

  Dipole Moment: [D]
     X:    -0.0550      Y:     0.0578      Z:     0.0284     Total:     0.0847

*** tstop() called on ds3 at Mon Apr 27 18:19:22 2020
Module time:
	user time   =      14.13 seconds =       0.24 minutes
	system time =       5.50 seconds =       0.09 minutes
	total time  =         50 seconds =       0.83 minutes
Total time:
	user time   =      14.13 seconds =       0.24 minutes
	system time =       5.50 seconds =       0.09 minutes
	total time  =         50 seconds =       0.83 minutes
                                     G D M A

                                 by Anthony Stone

                           version 2.2.06, 22 June 2011

               Distributed Multipoles from Gaussian wavefunctions

Starting at 18:19:22 on 27 Apr 2020

Using SCF density matrix from file ./SSI/SSI-008VAL-066LEU-1-dimer.test.19102.fchk

                         Distributed Multipole Analysis

Standard DMA

Positions and radii in angstrom
Multipole moments in atomic units, ea_0^k for rank k

C          x = -0.644894  y =  1.951067  z =  0.493849 angstrom
           Maximum rank =  0   Radius =  0.650 angstrom
                   Q00  =  -0.233799

C          x = -0.406894  y =  3.436067  z =  0.747849 angstrom
           Maximum rank =  0   Radius =  0.650 angstrom
                   Q00  =  -0.234882

H          x = -0.996894  y =  1.458067  z =  1.399849 angstrom
           Maximum rank =  0   Radius =  0.325 angstrom
                   Q00  =   0.077273

H          x = -1.402894  y =  1.824067  z = -0.280151 angstrom
           Maximum rank =  0   Radius =  0.325 angstrom
                   Q00  =   0.077765

H          x =  0.286106  y =  1.492067  z =  0.165849 angstrom
           Maximum rank =  0   Radius =  0.325 angstrom
                   Q00  =   0.080152

H          x = -1.332894  y =  3.859067  z =  1.134849 angstrom
           Maximum rank =  0   Radius =  0.325 angstrom
                   Q00  =   0.077074

H          x =  0.389554  y =  3.565221  z =  1.495509 angstrom
           Maximum rank =  0   Radius =  0.325 angstrom
                   Q00  =   0.078624

H          x = -0.146872  y =  3.956110  z = -0.185931 angstrom
           Maximum rank =  0   Radius =  0.325 angstrom
                   Q00  =   0.080209

C          x =  0.255106  y = -1.279933  z = -0.386151 angstrom
           Maximum rank =  0   Radius =  0.650 angstrom
                   Q00  =  -0.082792

C          x = -0.624894  y = -2.224933  z = -1.213151 angstrom
           Maximum rank =  0   Radius =  0.650 angstrom
                   Q00  =  -0.238834

C          x =  1.444106  y = -1.967933  z =  0.322849 angstrom
           Maximum rank =  0   Radius =  0.650 angstrom
                   Q00  =  -0.253882

H          x =  0.632106  y = -0.492933  z = -1.037151 angstrom
           Maximum rank =  0   Radius =  0.325 angstrom
                   Q00  =   0.045616

H          x = -0.368894  y = -0.825933  z =  0.384849 angstrom
           Maximum rank =  0   Radius =  0.325 angstrom
                   Q00  =   0.048721

H          x = -0.073894  y = -2.550933  z = -2.093151 angstrom
           Maximum rank =  0   Radius =  0.325 angstrom
                   Q00  =   0.079503

H          x =  1.076106  y = -2.785933  z =  0.938849 angstrom
           Maximum rank =  0   Radius =  0.325 angstrom
                   Q00  =   0.077783

H          x = -1.557761  y = -1.721333  z = -1.506663 angstrom
           Maximum rank =  0   Radius =  0.325 angstrom
                   Q00  =   0.084489

H          x = -0.892665  y = -3.097373  z = -0.599021 angstrom
           Maximum rank =  0   Radius =  0.325 angstrom
                   Q00  =   0.074416

H          x =  2.155711  y = -2.383093  z = -0.406021 angstrom
           Maximum rank =  0   Radius =  0.325 angstrom
                   Q00  =   0.077627

H          x =  1.964939  y = -1.277093  z =  1.002169 angstrom
           Maximum rank =  0   Radius =  0.325 angstrom
                   Q00  =   0.084939

Total multipoles referred to origin at
           x =   0.000000,  y =    0.000000,  z =    0.000000 angstrom
                   Q00  =   0.000000

Finished at 18:19:22 on 27 Apr 2020

  DMA results are available in the Python driver through the
	  variable('DMA DISTRIBUTED MULTIPOLES')
  and
	  variable('DMA TOTAL MULTIPOLES')
  commands.

    Psi4 stopped on: Monday, 27 April 2020 06:19PM
    Psi4 wall time for execution: 0:00:50.11

*** Psi4 exiting successfully. Buy a developer a beer!
