                               Psi4 1.3.2 release

  ==> Input File <==

--------------------------------------------------------------------------
import numpy as np
set {scf_type pk
basis cc-pvdz
d_convergence 10
gdma_switch   0
gdma_limit    0
gdma_origin   [ 0.0,  0.0,  0.0 ]
}
molecule test {
    units Angstrom
    0 1
    --
    0 1
    C               -0.934488267556322    -0.269569009860657    -3.468032472228718
    C               -1.325488267556322     0.986430990139343    -4.255032472228719
    H               -1.427488267556322    -1.144569009860657    -3.888032472228718
    H                0.144511732443678    -0.417569009860657    -3.525032472228718
    H               -1.223488267556322    -0.158569009860657    -2.426032472228718
    H               -0.673488267556322     1.790430990139343    -3.914032472228719
    H               -2.356168267556323     1.316160990139343    -4.057622472228718
    H               -1.120386267556322     0.857610990139343    -5.328037472228718
    C               -1.880488267556322     0.530430990139343     1.969967527771282
    C               -0.088488267556322     0.340430990139343     0.224967527771282
    C               -0.496488267556322     0.135430990139343     1.538967527771282
    C                1.185511732443678    -0.036569009860657    -0.189032472228718
    C                0.389511732443678    -0.450569009860657     2.440967527771282
    C                2.072511732443678    -0.610569009860657     0.713967527771282
    C                1.673511732443678    -0.823569009860657     2.029967527771281
    H               -0.763488267556322     0.804430990139343    -0.479032472228718
    H                1.474511732443678     0.095430990139343    -1.219032472228718
    H               -2.195488267556323     1.401430990139343     1.392967527771282
    H               -1.848488267556322     0.839430990139343     3.015967527771282
    H                0.091511732443678    -0.598569009860657     3.464967527771281
    H                3.064511732443677    -0.899569009860657     0.391967527771282
    H                2.369511732443677    -1.258569009860657     2.728967527771282
    H               -2.627848267556323    -0.268519009860657     1.855320427771282

}
e, wfn = energy('scf', return_wfn=True)
gdma(wfn)
dmavals = variable('DMA DISTRIBUTED MULTIPOLES')
charges = np.array(dmavals)
print(charges)
np.save('SSI-028LEU-133PHE-1-dimer.npy', np.array(charges))--------------------------------------------------------------------------

*** tstart() called on ds3
*** at Tue Apr 28 11:55:56 2020

   => Loading Basis Set <=

    Name: CC-PVDZ
    Role: ORBITAL
    Keyword: BASIS
    atoms 1-2, 9-15  entry C          line   138 file /theoryfs2/ds/metcalf/miniconda2/envs/tf2gpu/share/psi4/basis/cc-pvdz.gbs
    atoms 3-8, 16-23 entry H          line    22 file /theoryfs2/ds/metcalf/miniconda2/envs/tf2gpu/share/psi4/basis/cc-pvdz.gbs

         ---------------------------------------------------------
                                   SCF
               by Justin Turney, Rob Parrish, Andy Simmonett
                          and Daniel G. A. Smith
                              RHF Reference
                        1 Threads,    500 MiB Core
         ---------------------------------------------------------

  ==> Geometry <==

    Molecular point group: c1
    Full point group: C1

    Geometry (in Angstrom), charge = 0, multiplicity = 1:

       Center              X                  Y                   Z               Mass
    ------------   -----------------  -----------------  -----------------  -----------------
         C           -0.934488267556    -0.269569009861    -3.468032472229    12.000000000000
         C           -1.325488267556     0.986430990139    -4.255032472229    12.000000000000
         H           -1.427488267556    -1.144569009861    -3.888032472229     1.007825032230
         H            0.144511732444    -0.417569009861    -3.525032472229     1.007825032230
         H           -1.223488267556    -0.158569009861    -2.426032472229     1.007825032230
         H           -0.673488267556     1.790430990139    -3.914032472229     1.007825032230
         H           -2.356168267556     1.316160990139    -4.057622472229     1.007825032230
         H           -1.120386267556     0.857610990139    -5.328037472229     1.007825032230
         C           -1.880488267556     0.530430990139     1.969967527771    12.000000000000
         C           -0.088488267556     0.340430990139     0.224967527771    12.000000000000
         C           -0.496488267556     0.135430990139     1.538967527771    12.000000000000
         C            1.185511732444    -0.036569009861    -0.189032472229    12.000000000000
         C            0.389511732444    -0.450569009861     2.440967527771    12.000000000000
         C            2.072511732444    -0.610569009861     0.713967527771    12.000000000000
         C            1.673511732444    -0.823569009861     2.029967527771    12.000000000000
         H           -0.763488267556     0.804430990139    -0.479032472229     1.007825032230
         H            1.474511732444     0.095430990139    -1.219032472229     1.007825032230
         H           -2.195488267556     1.401430990139     1.392967527771     1.007825032230
         H           -1.848488267556     0.839430990139     3.015967527771     1.007825032230
         H            0.091511732444    -0.598569009861     3.464967527771     1.007825032230
         H            3.064511732444    -0.899569009861     0.391967527771     1.007825032230
         H            2.369511732444    -1.258569009861     2.728967527771     1.007825032230
         H           -2.627848267556    -0.268519009861     1.855320427771     1.007825032230

  Running in c1 symmetry.

  Rotational constants: A =      0.07637  B =      0.02207  C =      0.01779 [cm^-1]
  Rotational constants: A =   2289.52659  B =    661.62105  C =    533.32608 [MHz]
  Nuclear repulsion =  400.727892983671836

  Charge       = 0
  Multiplicity = 1
  Electrons    = 68
  Nalpha       = 34
  Nbeta        = 34

  ==> Algorithm <==

  SCF Algorithm Type is PK.
  DIIS enabled.
  MOM disabled.
  Fractional occupation disabled.
  Guess Type is SAD.
  Energy threshold   = 1.00e-06
  Density threshold  = 1.00e-10
  Integral threshold = 0.00e+00

  ==> Primary Basis <==

  Basis Set: CC-PVDZ
    Blend: CC-PVDZ
    Number of shells: 96
    Number of basis function: 196
    Number of Cartesian functions: 205
    Spherical Harmonics?: true
    Max angular momentum: 2

  ==> Pre-Iterations <==

   -------------------------------------------------------
    Irrep   Nso     Nmo     Nalpha   Nbeta   Ndocc  Nsocc
   -------------------------------------------------------
     A        196     196       0       0       0       0
   -------------------------------------------------------
    Total     196     196      34      34      34       0
   -------------------------------------------------------

  ==> Integral Setup <==

  Using integral reordering PK algorithm.
  Sizing the integral batches needed.
  Building batch lookup table.
   Calculation information:
      Number of atoms:                  23
      Number of AO shells:              96
      Number of primitives:            268
      Number of atomic orbitals:       205
      Number of basis functions:       196

      Integral cutoff                 1.00e-12
      Number of threads:                 1

	Batch   1 pq = [       0,    9405] index = [             0,44231715] size =     44231715
	Batch   2 pq = [    9405,   13301] index = [      44231715,88464951] size =     44233236
	Batch   3 pq = [   13301,   16290] index = [      88464951,132690195] size =     44225244
	Batch   4 pq = [   16290,   18810] index = [     132690195,176917455] size =     44227260
	Batch   5 pq = [   18810,   19306] index = [     176917455,186370471] size =      9453016
  Task number: 17
  Buffer size: 11059200
  Buffer per thread: 2
  We computed 8764320 shell quartets total.
  Whereas there are 10841496 unique shell quartets.

  ==> DiskJK: Disk-Based J/K Matrices <==

    J tasked:                  Yes
    K tasked:                  Yes
    wK tasked:                  No
    Memory [MiB]:              375
    Schwarz Cutoff:          1E-12

    OpenMP threads:              1

  Minimum eigenvalue in the overlap matrix is 3.0541154697E-04.
  Using Symmetric Orthogonalization.

  SCF Guess: Superposition of Atomic Densities via on-the-fly atomic UHF.

  ==> Iterations <==

                        Total Energy        Delta E     RMS |[F,P]|

   @RHF iter SAD:  -347.87562044085934   -3.47876e+02   0.00000e+00
   @RHF iter   1:  -348.76686107118599   -8.91241e-01   2.88872e-03 DIIS
   @RHF iter   2:  -348.95920577693522   -1.92345e-01   1.19339e-03 DIIS
   @RHF iter   3:  -348.98906313257186   -2.98574e-02   2.58284e-04 DIIS
   @RHF iter   4:  -348.99152677399570   -2.46364e-03   5.40087e-05 DIIS
   @RHF iter   5:  -348.99160186315510   -7.50892e-05   1.83729e-05 DIIS
   @RHF iter   6:  -348.99161002529002   -8.16213e-06   4.83605e-06 DIIS
   @RHF iter   7:  -348.99161067845614   -6.53166e-07   1.18494e-06 DIIS
   @RHF iter   8:  -348.99161072103038   -4.25742e-08   2.60407e-07 DIIS
   @RHF iter   9:  -348.99161072410226   -3.07188e-09   9.61446e-08 DIIS
   @RHF iter  10:  -348.99161072450727   -4.05009e-10   3.82518e-08 DIIS
   @RHF iter  11:  -348.99161072462016   -1.12891e-10   1.46072e-08 DIIS
   @RHF iter  12:  -348.99161072464153   -2.13731e-11   7.75448e-09 DIIS
   @RHF iter  13:  -348.99161072464608   -4.54747e-12   3.46116e-09 DIIS
   @RHF iter  14:  -348.99161072464869   -2.61480e-12   9.78142e-10 DIIS
   @RHF iter  15:  -348.99161072464852    1.70530e-13   3.46300e-10 DIIS
   @RHF iter  16:  -348.99161072464733    1.19371e-12   7.45410e-11 DIIS
  Energy and wave function converged.

  ==> Post-Iterations <==

    Orbital Energies [Eh]
    ---------------------

    Doubly Occupied:

       1A    -11.239586     2A    -11.235689     3A    -11.234204
       4A    -11.230665     5A    -11.230494     6A    -11.229123
       7A    -11.229063     8A    -11.220625     9A    -11.217747
      10A     -1.152372    11A     -1.044805    12A     -1.018734
      13A     -1.010456    14A     -0.931021    15A     -0.839262
      16A     -0.825903    17A     -0.794503    18A     -0.691288
      19A     -0.631615    20A     -0.630610    21A     -0.602004
      22A     -0.596345    23A     -0.580571    24A     -0.577388
      25A     -0.562741    26A     -0.533860    27A     -0.502192
      28A     -0.493686    29A     -0.487165    30A     -0.483098
      31A     -0.481493    32A     -0.479894    33A     -0.330854
      34A     -0.322389

    Virtual:

      35A      0.135244    36A      0.140321    37A      0.167858
      38A      0.194436    39A      0.201777    40A      0.223644
      41A      0.236770    42A      0.245501    43A      0.246956
      44A      0.259122    45A      0.264366    46A      0.276124
      47A      0.283621    48A      0.287375    49A      0.315428
      50A      0.352572    51A      0.372425    52A      0.385947
      53A      0.404278    54A      0.458936    55A      0.462213
      56A      0.480005    57A      0.487527    58A      0.560831
      59A      0.590128    60A      0.595553    61A      0.603104
      62A      0.615540    63A      0.639170    64A      0.663135
      65A      0.684834    66A      0.691879    67A      0.704182
      68A      0.715049    69A      0.717792    70A      0.741399
      71A      0.744326    72A      0.747643    73A      0.762282
      74A      0.776602    75A      0.778003    76A      0.807283
      77A      0.834118    78A      0.848423    79A      0.864364
      80A      0.866561    81A      0.873535    82A      0.882389
      83A      0.888119    84A      0.889781    85A      0.891569
      86A      0.907143    87A      0.913427    88A      0.919939
      89A      0.922658    90A      0.935374    91A      0.942450
      92A      0.970313    93A      0.997811    94A      1.007319
      95A      1.023572    96A      1.052837    97A      1.111195
      98A      1.129294    99A      1.132903   100A      1.146972
     101A      1.157043   102A      1.165000   103A      1.195671
     104A      1.227833   105A      1.241776   106A      1.251209
     107A      1.261393   108A      1.271386   109A      1.301989
     110A      1.309760   111A      1.321704   112A      1.336503
     113A      1.413970   114A      1.463081   115A      1.486125
     116A      1.509180   117A      1.512228   118A      1.556385
     119A      1.577118   120A      1.613933   121A      1.678410
     122A      1.685086   123A      1.700086   124A      1.710187
     125A      1.736727   126A      1.748986   127A      1.759625
     128A      1.789113   129A      1.808475   130A      1.855168
     131A      1.866856   132A      1.876992   133A      1.881931
     134A      1.890001   135A      1.898665   136A      1.911298
     137A      1.915267   138A      1.922169   139A      1.935943
     140A      1.940837   141A      1.944735   142A      1.949556
     143A      1.951978   144A      1.970799   145A      1.981170
     146A      1.985752   147A      1.992574   148A      2.001283
     149A      2.041886   150A      2.065297   151A      2.069934
     152A      2.085613   153A      2.107604   154A      2.138472
     155A      2.151182   156A      2.156968   157A      2.169791
     158A      2.180664   159A      2.192034   160A      2.267304
     161A      2.286529   162A      2.294000   163A      2.302988
     164A      2.306214   165A      2.311795   166A      2.315466
     167A      2.327389   168A      2.443895   169A      2.467493
     170A      2.474791   171A      2.485329   172A      2.500715
     173A      2.539991   174A      2.557143   175A      2.590081
     176A      2.626767   177A      2.746404   178A      2.756200
     179A      2.757299   180A      2.766831   181A      2.783530
     182A      2.803719   183A      2.821257   184A      2.842373
     185A      2.849750   186A      2.872150   187A      2.874625
     188A      2.949561   189A      2.972521   190A      2.983994
     191A      3.011706   192A      3.032857   193A      3.156883
     194A      3.202860   195A      3.304580   196A      3.970935

    Final Occupation by Irrep:
              A
    DOCC [    34 ]

  @RHF Final Energy:  -348.99161072464733

   => Energetics <=

    Nuclear Repulsion Energy =            400.7278929836718362
    One-Electron Energy =               -1264.0961171162157370
    Two-Electron Energy =                 514.3766134078965706
    Total Energy =                       -348.9916107246473302

Computation Completed

Properties will be evaluated at   0.000000,   0.000000,   0.000000 [a0]

Properties computed using the SCF density matrix

  Nuclear Dipole Moment: [e a0]
     X:    -6.6483      Y:     2.2115      Z:   -11.2372

  Electronic Dipole Moment: [e a0]
     X:     6.5536      Y:    -2.1932      Z:    11.2899

  Dipole Moment: [e a0]
     X:    -0.0947      Y:     0.0183      Z:     0.0527     Total:     0.1099

  Dipole Moment: [D]
     X:    -0.2407      Y:     0.0466      Z:     0.1340     Total:     0.2794

*** tstop() called on ds3 at Tue Apr 28 11:57:21 2020
Module time:
	user time   =      61.52 seconds =       1.03 minutes
	system time =      28.14 seconds =       0.47 minutes
	total time  =         85 seconds =       1.42 minutes
Total time:
	user time   =      61.52 seconds =       1.03 minutes
	system time =      28.14 seconds =       0.47 minutes
	total time  =         85 seconds =       1.42 minutes
                                     G D M A

                                 by Anthony Stone

                           version 2.2.06, 22 June 2011

               Distributed Multipoles from Gaussian wavefunctions

Starting at 11:57:21 on 28 Apr 2020

Using SCF density matrix from file ./SSI/SSI-028LEU-133PHE-1-dimer.test.19943.fchk

                         Distributed Multipole Analysis

Standard DMA

Positions and radii in angstrom
Multipole moments in atomic units, ea_0^k for rank k

C          x = -0.934488  y = -0.269569  z = -3.468032 angstrom
           Maximum rank =  0   Radius =  0.650 angstrom
                   Q00  =  -0.233305

C          x = -1.325488  y =  0.986431  z = -4.255032 angstrom
           Maximum rank =  0   Radius =  0.650 angstrom
                   Q00  =  -0.244130

H          x = -1.427488  y = -1.144569  z = -3.888032 angstrom
           Maximum rank =  0   Radius =  0.325 angstrom
                   Q00  =   0.080754

H          x =  0.144512  y = -0.417569  z = -3.525032 angstrom
           Maximum rank =  0   Radius =  0.325 angstrom
                   Q00  =   0.077980

H          x = -1.223488  y = -0.158569  z = -2.426032 angstrom
           Maximum rank =  0   Radius =  0.325 angstrom
                   Q00  =   0.081701

H          x = -0.673488  y =  1.790431  z = -3.914032 angstrom
           Maximum rank =  0   Radius =  0.325 angstrom
                   Q00  =   0.071678

H          x = -2.356168  y =  1.316161  z = -4.057622 angstrom
           Maximum rank =  0   Radius =  0.325 angstrom
                   Q00  =   0.082140

H          x = -1.120386  y =  0.857611  z = -5.328037 angstrom
           Maximum rank =  0   Radius =  0.325 angstrom
                   Q00  =   0.082265

C          x = -1.880488  y =  0.530431  z =  1.969968 angstrom
           Maximum rank =  0   Radius =  0.650 angstrom
                   Q00  =  -0.199277

C          x = -0.088488  y =  0.340431  z =  0.224968 angstrom
           Maximum rank =  0   Radius =  0.650 angstrom
                   Q00  =  -0.000330

C          x = -0.496488  y =  0.135431  z =  1.538968 angstrom
           Maximum rank =  0   Radius =  0.650 angstrom
                   Q00  =  -0.102385

C          x =  1.185512  y = -0.036569  z = -0.189032 angstrom
           Maximum rank =  0   Radius =  0.650 angstrom
                   Q00  =  -0.074934

C          x =  0.389512  y = -0.450569  z =  2.440968 angstrom
           Maximum rank =  0   Radius =  0.650 angstrom
                   Q00  =  -0.089549

C          x =  2.072512  y = -0.610569  z =  0.713968 angstrom
           Maximum rank =  0   Radius =  0.650 angstrom
                   Q00  =  -0.079278

C          x =  1.673512  y = -0.823569  z =  2.029968 angstrom
           Maximum rank =  0   Radius =  0.650 angstrom
                   Q00  =  -0.058681

H          x = -0.763488  y =  0.804431  z = -0.479032 angstrom
           Maximum rank =  0   Radius =  0.325 angstrom
                   Q00  =   0.056158

H          x =  1.474512  y =  0.095431  z = -1.219032 angstrom
           Maximum rank =  0   Radius =  0.325 angstrom
                   Q00  =   0.065415

H          x = -2.195488  y =  1.401431  z =  1.392968 angstrom
           Maximum rank =  0   Radius =  0.325 angstrom
                   Q00  =   0.096858

H          x = -1.848488  y =  0.839431  z =  3.015968 angstrom
           Maximum rank =  0   Radius =  0.325 angstrom
                   Q00  =   0.097209

H          x =  0.091512  y = -0.598569  z =  3.464968 angstrom
           Maximum rank =  0   Radius =  0.325 angstrom
                   Q00  =   0.057293

H          x =  3.064512  y = -0.899569  z =  0.391968 angstrom
           Maximum rank =  0   Radius =  0.325 angstrom
                   Q00  =   0.060900

H          x =  2.369512  y = -1.258569  z =  2.728968 angstrom
           Maximum rank =  0   Radius =  0.325 angstrom
                   Q00  =   0.065257

H          x = -2.627848  y = -0.268519  z =  1.855320 angstrom
           Maximum rank =  0   Radius =  0.325 angstrom
                   Q00  =   0.106259

Total multipoles referred to origin at
           x =   0.000000,  y =    0.000000,  z =    0.000000 angstrom
                   Q00  =  -0.000000

Finished at 11:57:21 on 28 Apr 2020

  DMA results are available in the Python driver through the
	  variable('DMA DISTRIBUTED MULTIPOLES')
  and
	  variable('DMA TOTAL MULTIPOLES')
  commands.

    Psi4 stopped on: Tuesday, 28 April 2020 11:57AM
    Psi4 wall time for execution: 0:01:24.92

*** Psi4 exiting successfully. Buy a developer a beer!
