                               Psi4 1.3.2 release

  ==> Input File <==

--------------------------------------------------------------------------
import numpy as np
set {scf_type pk
basis cc-pvdz
d_convergence 10
gdma_switch   0
gdma_limit    0
gdma_origin   [ 0.0,  0.0,  0.0 ]
}
molecule test {
    units Angstrom
    -1 1
    --
    -1 1
    C                0.252538136636544     1.178299492858557    -1.649285155365783
    C               -1.026461863363456     1.015299492858557    -0.878285155365783
    O               -1.225461863363456     1.640299492858557     0.187714844634217
    O               -1.828461863363456     0.167299492858557    -1.307285155365783
    H                0.159538136636544     0.667299492858557    -2.611285155365783
    H                0.989538136636544     0.652299492858557    -1.058285155365783
    H                0.532418136636544     2.224789492858557    -1.840402155365783
    C                0.845538136636544    -1.242700507141443     1.567714844634217
    C                2.097538136636544    -0.383700507141443     1.560714844634217
    C                0.870538136636544    -2.368700507141443     0.550714844634217
    H                0.734538136636544    -1.685700507141443     2.559714844634217
    H               -0.021461863363456    -0.609700507141443     1.380714844634217
    H                2.161538136636544     0.206299492858557     0.650714844634217
    H                2.962538136636544    -1.050700507141443     1.580714844634217
    H                0.979538136636544    -1.959700507141443    -0.456285155365783
    H                1.706538136636544    -3.036700507141443     0.767714844634217
    H                2.151698136636544     0.266919492858557     2.446014844634217
    H               -0.081511863363456    -2.912830507141443     0.637464844634217

}
e, wfn = energy('scf', return_wfn=True)
gdma(wfn)
dmavals = variable('DMA DISTRIBUTED MULTIPOLES')
charges = np.array(dmavals)
print(charges)
np.save('SSI-071ASP-074LYS-1-dimer.npy', np.array(charges))--------------------------------------------------------------------------

*** tstart() called on ds3
*** at Tue Apr 28 21:48:02 2020

   => Loading Basis Set <=

    Name: CC-PVDZ
    Role: ORBITAL
    Keyword: BASIS
    atoms 1-2, 8-10  entry C          line   138 file /theoryfs2/ds/metcalf/miniconda2/envs/tf2gpu/share/psi4/basis/cc-pvdz.gbs
    atoms 3-4        entry O          line   198 file /theoryfs2/ds/metcalf/miniconda2/envs/tf2gpu/share/psi4/basis/cc-pvdz.gbs
    atoms 5-7, 11-18 entry H          line    22 file /theoryfs2/ds/metcalf/miniconda2/envs/tf2gpu/share/psi4/basis/cc-pvdz.gbs

         ---------------------------------------------------------
                                   SCF
               by Justin Turney, Rob Parrish, Andy Simmonett
                          and Daniel G. A. Smith
                              RHF Reference
                        1 Threads,    500 MiB Core
         ---------------------------------------------------------

  ==> Geometry <==

    Molecular point group: c1
    Full point group: C1

    Geometry (in Angstrom), charge = -1, multiplicity = 1:

       Center              X                  Y                   Z               Mass
    ------------   -----------------  -----------------  -----------------  -----------------
         C            0.252538136637     1.178299492859    -1.649285155366    12.000000000000
         C           -1.026461863363     1.015299492859    -0.878285155366    12.000000000000
         O           -1.225461863363     1.640299492859     0.187714844634    15.994914619570
         O           -1.828461863363     0.167299492859    -1.307285155366    15.994914619570
         H            0.159538136637     0.667299492859    -2.611285155366     1.007825032230
         H            0.989538136637     0.652299492859    -1.058285155366     1.007825032230
         H            0.532418136637     2.224789492859    -1.840402155366     1.007825032230
         C            0.845538136637    -1.242700507141     1.567714844634    12.000000000000
         C            2.097538136637    -0.383700507141     1.560714844634    12.000000000000
         C            0.870538136637    -2.368700507141     0.550714844634    12.000000000000
         H            0.734538136637    -1.685700507141     2.559714844634     1.007825032230
         H           -0.021461863363    -0.609700507141     1.380714844634     1.007825032230
         H            2.161538136637     0.206299492859     0.650714844634     1.007825032230
         H            2.962538136637    -1.050700507141     1.580714844634     1.007825032230
         H            0.979538136637    -1.959700507141    -0.456285155366     1.007825032230
         H            1.706538136637    -3.036700507141     0.767714844634     1.007825032230
         H            2.151698136637     0.266919492859     2.446014844634     1.007825032230
         H           -0.081511863363    -2.912830507141     0.637464844634     1.007825032230

  Running in c1 symmetry.

  Rotational constants: A =      0.10991  B =      0.03775  C =      0.03514 [cm^-1]
  Rotational constants: A =   3294.96744  B =   1131.70297  C =   1053.54023 [MHz]
  Nuclear repulsion =  298.211572901915019

  Charge       = -1
  Multiplicity = 1
  Electrons    = 58
  Nalpha       = 29
  Nbeta        = 29

  ==> Algorithm <==

  SCF Algorithm Type is PK.
  DIIS enabled.
  MOM disabled.
  Fractional occupation disabled.
  Guess Type is SAD.
  Energy threshold   = 1.00e-06
  Density threshold  = 1.00e-10
  Integral threshold = 0.00e+00

  ==> Primary Basis <==

  Basis Set: CC-PVDZ
    Blend: CC-PVDZ
    Number of shells: 75
    Number of basis function: 153
    Number of Cartesian functions: 160
    Spherical Harmonics?: true
    Max angular momentum: 2

  ==> Pre-Iterations <==

   -------------------------------------------------------
    Irrep   Nso     Nmo     Nalpha   Nbeta   Ndocc  Nsocc
   -------------------------------------------------------
     A        153     153       0       0       0       0
   -------------------------------------------------------
    Total     153     153      29      29      29       0
   -------------------------------------------------------

  ==> Integral Setup <==

  Using integral reordering PK algorithm.
  Sizing the integral batches needed.
  Building batch lookup table.
   Calculation information:
      Number of atoms:                  18
      Number of AO shells:              75
      Number of primitives:            209
      Number of atomic orbitals:       160
      Number of basis functions:       153

      Integral cutoff                 1.00e-12
      Number of threads:                 1

	Batch   1 pq = [       0,    9405] index = [             0,44231715] size =     44231715
	Batch   2 pq = [    9405,   11781] index = [      44231715,69401871] size =     25170156
  Task number: 7
  Buffer size: 11059200
  Buffer per thread: 2
  We computed 3905136 shell quartets total.
  Whereas there are 4062675 unique shell quartets.

  ==> DiskJK: Disk-Based J/K Matrices <==

    J tasked:                  Yes
    K tasked:                  Yes
    wK tasked:                  No
    Memory [MiB]:              375
    Schwarz Cutoff:          1E-12

    OpenMP threads:              1

  Minimum eigenvalue in the overlap matrix is 4.9413457157E-03.
  Using Symmetric Orthogonalization.

  SCF Guess: Superposition of Atomic Densities via on-the-fly atomic UHF.

  ==> Iterations <==

                        Total Energy        Delta E     RMS |[F,P]|

   @RHF iter SAD:  -343.97568708988416   -3.43976e+02   0.00000e+00
   @RHF iter   1:  -345.20767325916648   -1.23199e+00   4.98727e-03 DIIS
   @RHF iter   2:  -345.43905092795023   -2.31378e-01   2.73573e-03 DIIS
   @RHF iter   3:  -345.50494599428828   -6.58951e-02   4.21891e-04 DIIS
   @RHF iter   4:  -345.50787211684877   -2.92612e-03   1.60920e-04 DIIS
   @RHF iter   5:  -345.50827769014268   -4.05573e-04   2.40174e-05 DIIS
   @RHF iter   6:  -345.50828968863868   -1.19985e-05   6.48340e-06 DIIS
   @RHF iter   7:  -345.50829053219354   -8.43555e-07   1.68482e-06 DIIS
   @RHF iter   8:  -345.50829060490020   -7.27067e-08   5.88684e-07 DIIS
   @RHF iter   9:  -345.50829061424662   -9.34642e-09   2.33578e-07 DIIS
   @RHF iter  10:  -345.50829061600808   -1.76146e-09   1.40441e-07 DIIS
   @RHF iter  11:  -345.50829061650325   -4.95163e-10   2.94909e-08 DIIS
   @RHF iter  12:  -345.50829061654156   -3.83125e-11   8.10554e-09 DIIS
   @RHF iter  13:  -345.50829061654599   -4.43379e-12   2.43583e-09 DIIS
   @RHF iter  14:  -345.50829061654508    9.09495e-13   7.41391e-10 DIIS
   @RHF iter  15:  -345.50829061654650   -1.42109e-12   2.45989e-10 DIIS
   @RHF iter  16:  -345.50829061654429    2.21689e-12   9.67002e-11 DIIS
  Energy and wave function converged.

  ==> Post-Iterations <==

    Orbital Energies [Eh]
    ---------------------

    Doubly Occupied:

       1A    -20.251898     2A    -20.251795     3A    -11.108491
       4A    -11.101417     5A    -11.100218     6A    -11.092735
       7A    -11.047769     8A     -1.147435     9A     -1.030168
      10A     -0.938217    11A     -0.810438    12A     -0.800637
      13A     -0.675556    14A     -0.510162    15A     -0.497136
      16A     -0.480307    17A     -0.436389    18A     -0.423452
      19A     -0.415037    20A     -0.404840    21A     -0.398243
      22A     -0.355032    23A     -0.350611    24A     -0.346292
      25A     -0.335702    26A     -0.299604    27A     -0.180120
      28A     -0.164448    29A     -0.154984

    Virtual:

      30A      0.294077    31A      0.340949    32A      0.341680
      33A      0.348217    34A      0.374529    35A      0.394971
      36A      0.398274    37A      0.410457    38A      0.421126
      39A      0.440981    40A      0.469298    41A      0.491229
      42A      0.541301    43A      0.563363    44A      0.578428
      45A      0.684927    46A      0.695603    47A      0.722577
      48A      0.733287    49A      0.742222    50A      0.763865
      51A      0.779280    52A      0.853363    53A      0.872589
      54A      0.901255    55A      0.925660    56A      0.962088
      57A      0.975568    58A      0.996269    59A      1.002408
      60A      1.002517    61A      1.016112    62A      1.028517
      63A      1.033050    64A      1.039905    65A      1.044713
      66A      1.050108    67A      1.065160    68A      1.101180
      69A      1.105989    70A      1.118369    71A      1.148330
      72A      1.188775    73A      1.233133    74A      1.243208
      75A      1.303236    76A      1.330568    77A      1.351321
      78A      1.366755    79A      1.400208    80A      1.497371
      81A      1.537165    82A      1.565714    83A      1.585827
      84A      1.595302    85A      1.610811    86A      1.636879
      87A      1.659463    88A      1.676292    89A      1.704411
      90A      1.743719    91A      1.765745    92A      1.791950
      93A      1.796212    94A      1.822276    95A      1.842910
      96A      1.871224    97A      1.977341    98A      1.989936
      99A      2.005579   100A      2.032351   101A      2.038360
     102A      2.060783   103A      2.071813   104A      2.078430
     105A      2.085923   106A      2.100803   107A      2.115310
     108A      2.120570   109A      2.127529   110A      2.143728
     111A      2.159645   112A      2.212594   113A      2.224130
     114A      2.259184   115A      2.266707   116A      2.290878
     117A      2.390688   118A      2.412937   119A      2.423957
     120A      2.432723   121A      2.446337   122A      2.455419
     123A      2.474501   124A      2.584476   125A      2.643471
     126A      2.654927   127A      2.677430   128A      2.706109
     129A      2.714361   130A      2.741821   131A      2.755502
     132A      2.807695   133A      2.876018   134A      2.888231
     135A      2.907665   136A      2.926800   137A      2.935794
     138A      2.986472   139A      3.026542   140A      3.054824
     141A      3.084319   142A      3.102592   143A      3.193184
     144A      3.248633   145A      3.286445   146A      3.303406
     147A      3.373323   148A      3.654223   149A      3.779181
     150A      3.851665   151A      4.082702   152A      4.087143
     153A      4.211066

    Final Occupation by Irrep:
              A
    DOCC [    29 ]

  @RHF Final Energy:  -345.50829061654429

   => Energetics <=

    Nuclear Repulsion Energy =            298.2115729019150194
    One-Electron Energy =               -1073.2214609507602745
    Two-Electron Energy =                 429.5015974323009686
    Total Energy =                       -345.5082906165442864

Computation Completed

Properties will be evaluated at   0.000000,   0.000000,   0.000000 [a0]

Properties computed using the SCF density matrix

  Nuclear Dipole Moment: [e a0]
     X:    11.4927      Y:    -6.7765      Z:     3.7977

  Electronic Dipole Moment: [e a0]
     X:    -8.7806      Y:     5.3741      Z:    -3.0602

  Dipole Moment: [e a0]
     X:     2.7121      Y:    -1.4024      Z:     0.7375     Total:     3.1411

  Dipole Moment: [D]
     X:     6.8935      Y:    -3.5646      Z:     1.8745     Total:     7.9838

*** tstop() called on ds3 at Tue Apr 28 21:48:44 2020
Module time:
	user time   =      25.11 seconds =       0.42 minutes
	system time =       9.27 seconds =       0.15 minutes
	total time  =         42 seconds =       0.70 minutes
Total time:
	user time   =      25.11 seconds =       0.42 minutes
	system time =       9.27 seconds =       0.15 minutes
	total time  =         42 seconds =       0.70 minutes
                                     G D M A

                                 by Anthony Stone

                           version 2.2.06, 22 June 2011

               Distributed Multipoles from Gaussian wavefunctions

Starting at 21:48:45 on 28 Apr 2020

Using SCF density matrix from file ./SSI/SSI-071ASP-074LYS-1-dimer.test.32626.fchk

                         Distributed Multipole Analysis

Standard DMA

Positions and radii in angstrom
Multipole moments in atomic units, ea_0^k for rank k

C          x =  0.252538  y =  1.178299  z = -1.649285 angstrom
           Maximum rank =  0   Radius =  0.650 angstrom
                   Q00  =  -0.281223

C          x = -1.026462  y =  1.015299  z = -0.878285 angstrom
           Maximum rank =  0   Radius =  0.650 angstrom
                   Q00  =   0.982987

O          x = -1.225462  y =  1.640299  z =  0.187715 angstrom
           Maximum rank =  0   Radius =  0.650 angstrom
                   Q00  =  -0.944623

O          x = -1.828462  y =  0.167299  z = -1.307285 angstrom
           Maximum rank =  0   Radius =  0.650 angstrom
                   Q00  =  -0.938224

H          x =  0.159538  y =  0.667299  z = -2.611285 angstrom
           Maximum rank =  0   Radius =  0.325 angstrom
                   Q00  =   0.052112

H          x =  0.989538  y =  0.652299  z = -1.058285 angstrom
           Maximum rank =  0   Radius =  0.325 angstrom
                   Q00  =   0.075423

H          x =  0.532418  y =  2.224789  z = -1.840402 angstrom
           Maximum rank =  0   Radius =  0.325 angstrom
                   Q00  =   0.054969

C          x =  0.845538  y = -1.242701  z =  1.567715 angstrom
           Maximum rank =  0   Radius =  0.650 angstrom
                   Q00  =  -0.053252

C          x =  2.097538  y = -0.383701  z =  1.560715 angstrom
           Maximum rank =  0   Radius =  0.650 angstrom
                   Q00  =  -0.232290

C          x =  0.870538  y = -2.368701  z =  0.550715 angstrom
           Maximum rank =  0   Radius =  0.650 angstrom
                   Q00  =  -0.229525

H          x =  0.734538  y = -1.685701  z =  2.559715 angstrom
           Maximum rank =  0   Radius =  0.325 angstrom
                   Q00  =   0.005954

H          x = -0.021462  y = -0.609701  z =  1.380715 angstrom
           Maximum rank =  0   Radius =  0.325 angstrom
                   Q00  =   0.101291

H          x =  2.161538  y =  0.206299  z =  0.650715 angstrom
           Maximum rank =  0   Radius =  0.325 angstrom
                   Q00  =   0.096371

H          x =  2.962538  y = -1.050701  z =  1.580715 angstrom
           Maximum rank =  0   Radius =  0.325 angstrom
                   Q00  =   0.030315

H          x =  0.979538  y = -1.959701  z = -0.456285 angstrom
           Maximum rank =  0   Radius =  0.325 angstrom
                   Q00  =   0.089731

H          x =  1.706538  y = -3.036701  z =  0.767715 angstrom
           Maximum rank =  0   Radius =  0.325 angstrom
                   Q00  =   0.032527

H          x =  2.151698  y =  0.266919  z =  2.446015 angstrom
           Maximum rank =  0   Radius =  0.325 angstrom
                   Q00  =   0.073638

H          x = -0.081512  y = -2.912831  z =  0.637465 angstrom
           Maximum rank =  0   Radius =  0.325 angstrom
                   Q00  =   0.083817

Total multipoles referred to origin at
           x =   0.000000,  y =    0.000000,  z =    0.000000 angstrom
                   Q00  =  -1.000000

Finished at 21:48:45 on 28 Apr 2020

  DMA results are available in the Python driver through the
	  variable('DMA DISTRIBUTED MULTIPOLES')
  and
	  variable('DMA TOTAL MULTIPOLES')
  commands.

    Psi4 stopped on: Tuesday, 28 April 2020 09:48PM
    Psi4 wall time for execution: 0:00:42.82

*** Psi4 exiting successfully. Buy a developer a beer!
