                               Psi4 1.3.2 release

  ==> Input File <==

--------------------------------------------------------------------------
import numpy as np
set {scf_type pk
basis cc-pvdz
d_convergence 10
gdma_switch   0
gdma_limit    0
gdma_origin   [ 0.0,  0.0,  0.0 ]
}
molecule test {
    units Angstrom
    0 1
    --
    0 1
    C                2.067420065581088    -0.812480214680479     0.368575461000981
    C                3.407420065581087    -1.261480214680479     0.940575461000981
    H                1.921420065581088    -1.231480214680479    -0.627424538999019
    H                1.267420065581087    -1.158480214680479     1.022575461000981
    H                2.009420065581088     0.275519785319521     0.317575461000981
    H                3.534420065581088    -0.819480214680479     1.925575461000981
    H                4.221143065581088    -0.898870214680479     0.295305461000981
    H                3.418208065581088    -2.355390214680479     1.055645461000981
    C               -1.398579934418912     0.633519785319521    -0.121424538999019
    C               -1.701579934418912     1.917519785319521    -0.887424538999019
    C               -2.461579934418913    -0.445480214680479    -0.326424538999019
    H               -0.407579934418912     0.259519785319521    -0.376424538999019
    H               -1.390579934418912     0.885519785319521     0.938575461000981
    H               -1.037579934418912     2.697519785319521    -0.508424538999019
    H               -2.724579934418913     2.219519785319521    -0.659424538999019
    H               -2.659579934418912    -0.940480214680479     0.625575461000981
    H               -3.401579934418913     0.011519785319521    -0.640424538999019
    H               -1.580912934418913     1.857539785319521    -1.979139538999019
    H               -2.134939344418912    -1.178720214680479    -1.078527538999019

}
e, wfn = energy('scf', return_wfn=True)
gdma(wfn)
dmavals = variable('DMA DISTRIBUTED MULTIPOLES')
charges = np.array(dmavals)
print(charges)
np.save('SSI-009VAL-035ARG-1-dimer.npy', np.array(charges))--------------------------------------------------------------------------

*** tstart() called on ds3
*** at Tue Apr 28 09:44:07 2020

   => Loading Basis Set <=

    Name: CC-PVDZ
    Role: ORBITAL
    Keyword: BASIS
    atoms 1-2, 9-11  entry C          line   138 file /theoryfs2/ds/metcalf/miniconda2/envs/tf2gpu/share/psi4/basis/cc-pvdz.gbs
    atoms 3-8, 12-19 entry H          line    22 file /theoryfs2/ds/metcalf/miniconda2/envs/tf2gpu/share/psi4/basis/cc-pvdz.gbs

         ---------------------------------------------------------
                                   SCF
               by Justin Turney, Rob Parrish, Andy Simmonett
                          and Daniel G. A. Smith
                              RHF Reference
                        1 Threads,    500 MiB Core
         ---------------------------------------------------------

  ==> Geometry <==

    Molecular point group: c1
    Full point group: C1

    Geometry (in Angstrom), charge = 0, multiplicity = 1:

       Center              X                  Y                   Z               Mass
    ------------   -----------------  -----------------  -----------------  -----------------
         C            2.067420065581    -0.812480214680     0.368575461001    12.000000000000
         C            3.407420065581    -1.261480214680     0.940575461001    12.000000000000
         H            1.921420065581    -1.231480214680    -0.627424538999     1.007825032230
         H            1.267420065581    -1.158480214680     1.022575461001     1.007825032230
         H            2.009420065581     0.275519785320     0.317575461001     1.007825032230
         H            3.534420065581    -0.819480214680     1.925575461001     1.007825032230
         H            4.221143065581    -0.898870214680     0.295305461001     1.007825032230
         H            3.418208065581    -2.355390214680     1.055645461001     1.007825032230
         C           -1.398579934419     0.633519785320    -0.121424538999    12.000000000000
         C           -1.701579934419     1.917519785320    -0.887424538999    12.000000000000
         C           -2.461579934419    -0.445480214680    -0.326424538999    12.000000000000
         H           -0.407579934419     0.259519785320    -0.376424538999     1.007825032230
         H           -1.390579934419     0.885519785320     0.938575461001     1.007825032230
         H           -1.037579934419     2.697519785320    -0.508424538999     1.007825032230
         H           -2.724579934419     2.219519785320    -0.659424538999     1.007825032230
         H           -2.659579934419    -0.940480214680     0.625575461001     1.007825032230
         H           -3.401579934419     0.011519785320    -0.640424538999     1.007825032230
         H           -1.580912934419     1.857539785320    -1.979139538999     1.007825032230
         H           -2.134939344419    -1.178720214680    -1.078527538999     1.007825032230

  Running in c1 symmetry.

  Rotational constants: A =      0.24944  B =      0.03395  C =      0.03094 [cm^-1]
  Rotational constants: A =   7478.00645  B =   1017.69978  C =    927.67470 [MHz]
  Nuclear repulsion =  174.494269434676767

  Charge       = 0
  Multiplicity = 1
  Electrons    = 44
  Nalpha       = 22
  Nbeta        = 22

  ==> Algorithm <==

  SCF Algorithm Type is PK.
  DIIS enabled.
  MOM disabled.
  Fractional occupation disabled.
  Guess Type is SAD.
  Energy threshold   = 1.00e-06
  Density threshold  = 1.00e-10
  Integral threshold = 0.00e+00

  ==> Primary Basis <==

  Basis Set: CC-PVDZ
    Blend: CC-PVDZ
    Number of shells: 72
    Number of basis function: 140
    Number of Cartesian functions: 145
    Spherical Harmonics?: true
    Max angular momentum: 2

  ==> Pre-Iterations <==

   -------------------------------------------------------
    Irrep   Nso     Nmo     Nalpha   Nbeta   Ndocc  Nsocc
   -------------------------------------------------------
     A        140     140       0       0       0       0
   -------------------------------------------------------
    Total     140     140      22      22      22       0
   -------------------------------------------------------

  ==> Integral Setup <==

  Using integral reordering PK algorithm.
  Sizing the integral batches needed.
  Building batch lookup table.
   Calculation information:
      Number of atoms:                  19
      Number of AO shells:              72
      Number of primitives:            180
      Number of atomic orbitals:       145
      Number of basis functions:       140

      Integral cutoff                 1.00e-12
      Number of threads:                 1

	Batch   1 pq = [       0,    9405] index = [             0,44231715] size =     44231715
	Batch   2 pq = [    9405,    9870] index = [      44231715,48713385] size =      4481670
  Task number: 5
  Buffer size: 11059200
  Buffer per thread: 2
  We computed 2698710 shell quartets total.
  Whereas there are 3454506 unique shell quartets.

  ==> DiskJK: Disk-Based J/K Matrices <==

    J tasked:                  Yes
    K tasked:                  Yes
    wK tasked:                  No
    Memory [MiB]:              375
    Schwarz Cutoff:          1E-12

    OpenMP threads:              1

  Minimum eigenvalue in the overlap matrix is 4.9790696314E-03.
  Using Symmetric Orthogonalization.

  SCF Guess: Superposition of Atomic Densities via on-the-fly atomic UHF.

  ==> Iterations <==

                        Total Energy        Delta E     RMS |[F,P]|

   @RHF iter SAD:  -196.37775918980469   -1.96378e+02   0.00000e+00
   @RHF iter   1:  -197.30660954789639   -9.28850e-01   3.81837e-03 DIIS
   @RHF iter   2:  -197.46723394673347   -1.60624e-01   1.65121e-03 DIIS
   @RHF iter   3:  -197.49597889986265   -2.87450e-02   3.26304e-04 DIIS
   @RHF iter   4:  -197.49821826664234   -2.23937e-03   4.87045e-05 DIIS
   @RHF iter   5:  -197.49825805318619   -3.97865e-05   1.47905e-05 DIIS
   @RHF iter   6:  -197.49826143886256   -3.38568e-06   2.52981e-06 DIIS
   @RHF iter   7:  -197.49826155281184   -1.13949e-07   4.75666e-07 DIIS
   @RHF iter   8:  -197.49826155759845   -4.78661e-09   1.21209e-07 DIIS
   @RHF iter   9:  -197.49826155789876   -3.00304e-10   3.91564e-08 DIIS
   @RHF iter  10:  -197.49826155793482   -3.60671e-11   8.18794e-09 DIIS
   @RHF iter  11:  -197.49826155793542   -5.96856e-13   1.55109e-09 DIIS
   @RHF iter  12:  -197.49826155793616   -7.38964e-13   2.82955e-10 DIIS
   @RHF iter  13:  -197.49826155793576    3.97904e-13   5.06145e-11 DIIS
  Energy and wave function converged.

  ==> Post-Iterations <==

    Orbital Energies [Eh]
    ---------------------

    Doubly Occupied:

       1A    -11.219283     2A    -11.217138     3A    -11.216513
       4A    -11.214831     5A    -11.213606     6A     -1.052443
       7A     -1.020236     8A     -0.923081     9A     -0.837302
      10A     -0.795615    11A     -0.624095    12A     -0.600518
      13A     -0.598703    14A     -0.593630    15A     -0.547073
      16A     -0.532930    17A     -0.503452    18A     -0.487330
      19A     -0.485458    20A     -0.470853    21A     -0.465326
      22A     -0.460593

    Virtual:

      23A      0.173513    24A      0.192999    25A      0.217982
      26A      0.222287    27A      0.226173    28A      0.257070
      29A      0.259445    30A      0.261671    31A      0.276752
      32A      0.278897    33A      0.290389    34A      0.296233
      35A      0.309017    36A      0.331579    37A      0.384038
      38A      0.424042    39A      0.436865    40A      0.577368
      41A      0.590362    42A      0.595116    43A      0.606521
      44A      0.614518    45A      0.622312    46A      0.652255
      47A      0.683624    48A      0.688092    49A      0.733272
      50A      0.764701    51A      0.813217    52A      0.859523
      53A      0.862664    54A      0.875791    55A      0.891150
      56A      0.893621    57A      0.894226    58A      0.895590
      59A      0.901813    60A      0.908698    61A      0.909205
      62A      0.918223    63A      0.922610    64A      0.940655
      65A      0.954294    66A      0.958676    67A      0.971067
      68A      1.056812    69A      1.096409    70A      1.114641
      71A      1.123002    72A      1.129735    73A      1.212422
      74A      1.271996    75A      1.406531    76A      1.453457
      77A      1.471886    78A      1.480238    79A      1.490199
      80A      1.530406    81A      1.583415    82A      1.657419
      83A      1.669192    84A      1.676365    85A      1.692932
      86A      1.696124    87A      1.713810    88A      1.829202
      89A      1.850071    90A      1.853726    91A      1.874734
      92A      1.877970    93A      1.901665    94A      1.919678
      95A      1.928975    96A      1.941328    97A      1.946131
      98A      1.949225    99A      1.953388   100A      1.961705
     101A      1.970380   102A      1.971484   103A      1.984676
     104A      2.015694   105A      2.016819   106A      2.071247
     107A      2.074541   108A      2.097108   109A      2.114270
     110A      2.149478   111A      2.194217   112A      2.260009
     113A      2.300959   114A      2.312945   115A      2.334167
     116A      2.356584   117A      2.388051   118A      2.440702
     119A      2.449146   120A      2.466950   121A      2.526755
     122A      2.558338   123A      2.560308   124A      2.573224
     125A      2.627871   126A      2.657978   127A      2.762517
     128A      2.769629   129A      2.779652   130A      2.788100
     131A      2.791375   132A      2.833817   133A      2.847533
     134A      2.853423   135A      2.897075   136A      2.932962
     137A      2.946053   138A      2.954066   139A      2.960297
     140A      3.079360

    Final Occupation by Irrep:
              A
    DOCC [    22 ]

  @RHF Final Energy:  -197.49826155793576

   => Energetics <=

    Nuclear Repulsion Energy =            174.4942694346767667
    One-Electron Energy =                -609.8250413019011376
    Two-Electron Energy =                 237.8325103092886081
    Total Energy =                       -197.4982615579357628

Computation Completed

Properties will be evaluated at   0.000000,   0.000000,   0.000000 [a0]

Properties computed using the SCF density matrix

  Nuclear Dipole Moment: [e a0]
     X:     0.9700      Y:    -0.3527      Z:     0.2916

  Electronic Dipole Moment: [e a0]
     X:    -0.9371      Y:     0.3551      Z:    -0.2434

  Dipole Moment: [e a0]
     X:     0.0329      Y:     0.0024      Z:     0.0482     Total:     0.0584

  Dipole Moment: [D]
     X:     0.0835      Y:     0.0062      Z:     0.1225     Total:     0.1484

*** tstop() called on ds3 at Tue Apr 28 09:44:32 2020
Module time:
	user time   =      13.88 seconds =       0.23 minutes
	system time =       5.71 seconds =       0.10 minutes
	total time  =         25 seconds =       0.42 minutes
Total time:
	user time   =      13.88 seconds =       0.23 minutes
	system time =       5.71 seconds =       0.10 minutes
	total time  =         25 seconds =       0.42 minutes
                                     G D M A

                                 by Anthony Stone

                           version 2.2.06, 22 June 2011

               Distributed Multipoles from Gaussian wavefunctions

Starting at 9:44:32 on 28 Apr 2020

Using SCF density matrix from file ./SSI/SSI-009VAL-035ARG-1-dimer.test.23859.fchk

                         Distributed Multipole Analysis

Standard DMA

Positions and radii in angstrom
Multipole moments in atomic units, ea_0^k for rank k

C          x =  2.067420  y = -0.812480  z =  0.368575 angstrom
           Maximum rank =  0   Radius =  0.650 angstrom
                   Q00  =  -0.238423

C          x =  3.407420  y = -1.261480  z =  0.940575 angstrom
           Maximum rank =  0   Radius =  0.650 angstrom
                   Q00  =  -0.232774

H          x =  1.921420  y = -1.231480  z = -0.627425 angstrom
           Maximum rank =  0   Radius =  0.325 angstrom
                   Q00  =   0.077773

H          x =  1.267420  y = -1.158480  z =  1.022575 angstrom
           Maximum rank =  0   Radius =  0.325 angstrom
                   Q00  =   0.077791

H          x =  2.009420  y =  0.275520  z =  0.317575 angstrom
           Maximum rank =  0   Radius =  0.325 angstrom
                   Q00  =   0.078068

H          x =  3.534420  y = -0.819480  z =  1.925575 angstrom
           Maximum rank =  0   Radius =  0.325 angstrom
                   Q00  =   0.079890

H          x =  4.221143  y = -0.898870  z =  0.295305 angstrom
           Maximum rank =  0   Radius =  0.325 angstrom
                   Q00  =   0.079657

H          x =  3.418208  y = -2.355390  z =  1.055645 angstrom
           Maximum rank =  0   Radius =  0.325 angstrom
                   Q00  =   0.081108

C          x = -1.398580  y =  0.633520  z = -0.121425 angstrom
           Maximum rank =  0   Radius =  0.650 angstrom
                   Q00  =  -0.114911

C          x = -1.701580  y =  1.917520  z = -0.887425 angstrom
           Maximum rank =  0   Radius =  0.650 angstrom
                   Q00  =  -0.232059

C          x = -2.461580  y = -0.445480  z = -0.326425 angstrom
           Maximum rank =  0   Radius =  0.650 angstrom
                   Q00  =  -0.233313

H          x = -0.407580  y =  0.259520  z = -0.376425 angstrom
           Maximum rank =  0   Radius =  0.325 angstrom
                   Q00  =   0.057688

H          x = -1.390580  y =  0.885520  z =  0.938575 angstrom
           Maximum rank =  0   Radius =  0.325 angstrom
                   Q00  =   0.045352

H          x = -1.037580  y =  2.697520  z = -0.508425 angstrom
           Maximum rank =  0   Radius =  0.325 angstrom
                   Q00  =   0.077833

H          x = -2.724580  y =  2.219520  z = -0.659425 angstrom
           Maximum rank =  0   Radius =  0.325 angstrom
                   Q00  =   0.074356

H          x = -2.659580  y = -0.940480  z =  0.625575 angstrom
           Maximum rank =  0   Radius =  0.325 angstrom
                   Q00  =   0.084853

H          x = -3.401580  y =  0.011520  z = -0.640425 angstrom
           Maximum rank =  0   Radius =  0.325 angstrom
                   Q00  =   0.073508

H          x = -1.580913  y =  1.857540  z = -1.979140 angstrom
           Maximum rank =  0   Radius =  0.325 angstrom
                   Q00  =   0.079020

H          x = -2.134939  y = -1.178720  z = -1.078528 angstrom
           Maximum rank =  0   Radius =  0.325 angstrom
                   Q00  =   0.084582

Total multipoles referred to origin at
           x =   0.000000,  y =    0.000000,  z =    0.000000 angstrom
                   Q00  =  -0.000000

Finished at 9:44:32 on 28 Apr 2020

  DMA results are available in the Python driver through the
	  variable('DMA DISTRIBUTED MULTIPOLES')
  and
	  variable('DMA TOTAL MULTIPOLES')
  commands.

    Psi4 stopped on: Tuesday, 28 April 2020 09:44AM
    Psi4 wall time for execution: 0:00:24.78

*** Psi4 exiting successfully. Buy a developer a beer!
