                               Psi4 1.3.2 release

  ==> Input File <==

--------------------------------------------------------------------------
import numpy as np
set {scf_type pk
basis cc-pvdz
d_convergence 10
gdma_switch   0
gdma_limit    0
gdma_origin   [ 0.0,  0.0,  0.0 ]
}
molecule test {
    units Angstrom
    0 1
    --
    0 1
    C               -0.037560391785484    -0.180151424358961    -2.283236593132635
    C                1.421439608214516     0.363848575641039    -2.144236593132635
    H               -0.049560391785484    -1.267151424358961    -2.246236593132635
    H               -0.647560391785484     0.212848575641039    -1.472236593132635
    H               -0.462560391785484     0.142848575641039    -3.233236593132635
    H                1.742439608214516     0.121848575641039    -1.130236593132635
    H                2.128455608214516    -0.127455424358961    -2.828888593132635
    H                1.464774608214516     1.458788575641039    -2.240296593132635
    C               -0.346560391785484     0.081848575641039     1.545763406867365
    C               -1.037560391785484    -0.272151424358961     2.870763406867365
    H               -1.097560391785484     0.241848575641039     0.774763406867365
    H                0.211439608214516     1.005848575641039     1.651763406867365
    H                0.323439608214516    -0.723151424358961     1.245763406867365
    H               -1.718560391785484     0.539848575641039     3.115763406867365
    H               -1.610931391785484    -1.209806424358961     2.825497306867365
    H               -0.280939391785484    -0.317662424358961     3.667917206867365

}
e, wfn = energy('scf', return_wfn=True)
gdma(wfn)
dmavals = variable('DMA DISTRIBUTED MULTIPOLES')
charges = np.array(dmavals)
print(charges)
np.save('SSI-048VAL-095LEU-1-dimer.npy', np.array(charges))--------------------------------------------------------------------------

*** tstart() called on ds3
*** at Sun Apr 26 22:23:32 2020

   => Loading Basis Set <=

    Name: CC-PVDZ
    Role: ORBITAL
    Keyword: BASIS
    atoms 1-2, 9-10  entry C          line   138 file /theoryfs2/ds/metcalf/miniconda2/envs/tf2gpu/share/psi4/basis/cc-pvdz.gbs
    atoms 3-8, 11-16 entry H          line    22 file /theoryfs2/ds/metcalf/miniconda2/envs/tf2gpu/share/psi4/basis/cc-pvdz.gbs

         ---------------------------------------------------------
                                   SCF
               by Justin Turney, Rob Parrish, Andy Simmonett
                          and Daniel G. A. Smith
                              RHF Reference
                        1 Threads,    500 MiB Core
         ---------------------------------------------------------

  ==> Geometry <==

    Molecular point group: c1
    Full point group: C1

    Geometry (in Angstrom), charge = 0, multiplicity = 1:

       Center              X                  Y                   Z               Mass
    ------------   -----------------  -----------------  -----------------  -----------------
         C           -0.037560391785    -0.180151424359    -2.283236593133    12.000000000000
         C            1.421439608215     0.363848575641    -2.144236593133    12.000000000000
         H           -0.049560391785    -1.267151424359    -2.246236593133     1.007825032230
         H           -0.647560391785     0.212848575641    -1.472236593133     1.007825032230
         H           -0.462560391785     0.142848575641    -3.233236593133     1.007825032230
         H            1.742439608215     0.121848575641    -1.130236593133     1.007825032230
         H            2.128455608215    -0.127455424359    -2.828888593133     1.007825032230
         H            1.464774608215     1.458788575641    -2.240296593133     1.007825032230
         C           -0.346560391785     0.081848575641     1.545763406867    12.000000000000
         C           -1.037560391785    -0.272151424359     2.870763406867    12.000000000000
         H           -1.097560391785     0.241848575641     0.774763406867     1.007825032230
         H            0.211439608215     1.005848575641     1.651763406867     1.007825032230
         H            0.323439608215    -0.723151424359     1.245763406867     1.007825032230
         H           -1.718560391785     0.539848575641     3.115763406867     1.007825032230
         H           -1.610931391785    -1.209806424359     2.825497306867     1.007825032230
         H           -0.280939391785    -0.317662424359     3.667917206867     1.007825032230

  Running in c1 symmetry.

  Rotational constants: A =      0.51745  B =      0.04758  C =      0.04513 [cm^-1]
  Rotational constants: A =  15512.63028  B =   1426.54501  C =   1352.94179 [MHz]
  Nuclear repulsion =  121.474342858356806

  Charge       = 0
  Multiplicity = 1
  Electrons    = 36
  Nalpha       = 18
  Nbeta        = 18

  ==> Algorithm <==

  SCF Algorithm Type is PK.
  DIIS enabled.
  MOM disabled.
  Fractional occupation disabled.
  Guess Type is SAD.
  Energy threshold   = 1.00e-06
  Density threshold  = 1.00e-10
  Integral threshold = 0.00e+00

  ==> Primary Basis <==

  Basis Set: CC-PVDZ
    Blend: CC-PVDZ
    Number of shells: 60
    Number of basis function: 116
    Number of Cartesian functions: 120
    Spherical Harmonics?: true
    Max angular momentum: 2

  ==> Pre-Iterations <==

   -------------------------------------------------------
    Irrep   Nso     Nmo     Nalpha   Nbeta   Ndocc  Nsocc
   -------------------------------------------------------
     A        116     116       0       0       0       0
   -------------------------------------------------------
    Total     116     116      18      18      18       0
   -------------------------------------------------------

  ==> Integral Setup <==

  Using integral reordering PK algorithm.
  Sizing the integral batches needed.
  Building batch lookup table.
   Calculation information:
      Number of atoms:                  16
      Number of AO shells:              60
      Number of primitives:            148
      Number of atomic orbitals:       120
      Number of basis functions:       116

      Integral cutoff                 1.00e-12
      Number of threads:                 1

	Batch   1 pq = [       0,    6786] index = [             0,23028291] size =     23028291
  Task number: 3
  Buffer size: 11059200
  Buffer per thread: 2
  We computed 1422038 shell quartets total.
  Whereas there are 1675365 unique shell quartets.

  ==> DiskJK: Disk-Based J/K Matrices <==

    J tasked:                  Yes
    K tasked:                  Yes
    wK tasked:                  No
    Memory [MiB]:              375
    Schwarz Cutoff:          1E-12

    OpenMP threads:              1

  Minimum eigenvalue in the overlap matrix is 6.6677663797E-03.
  Using Symmetric Orthogonalization.

  SCF Guess: Superposition of Atomic Densities via on-the-fly atomic UHF.

  ==> Iterations <==

                        Total Energy        Delta E     RMS |[F,P]|

   @RHF iter SAD:  -157.28662807062881   -1.57287e+02   0.00000e+00
   @RHF iter   1:  -158.31036793747654   -1.02374e+00   4.14861e-03 DIIS
   @RHF iter   2:  -158.44078950039489   -1.30422e-01   1.75234e-03 DIIS
   @RHF iter   3:  -158.46317931951668   -2.23898e-02   3.45543e-04 DIIS
   @RHF iter   4:  -158.46496669903610   -1.78738e-03   3.82827e-05 DIIS
   @RHF iter   5:  -158.46498968620926   -2.29872e-05   6.49895e-06 DIIS
   @RHF iter   6:  -158.46499030355122   -6.17342e-07   1.25574e-06 DIIS
   @RHF iter   7:  -158.46499031857928   -1.50281e-08   3.30430e-07 DIIS
   @RHF iter   8:  -158.46499031966096   -1.08167e-09   4.63595e-08 DIIS
   @RHF iter   9:  -158.46499031969725   -3.62945e-11   1.02961e-08 DIIS
   @RHF iter  10:  -158.46499031969867   -1.42109e-12   2.95380e-09 DIIS
   @RHF iter  11:  -158.46499031969884   -1.70530e-13   8.27265e-10 DIIS
   @RHF iter  12:  -158.46499031969921   -3.69482e-13   1.87164e-10 DIIS
   @RHF iter  13:  -158.46499031969876    4.54747e-13   2.99189e-11 DIIS
  Energy and wave function converged.

  ==> Post-Iterations <==

    Orbital Energies [Eh]
    ---------------------

    Doubly Occupied:

       1A    -11.220731     2A    -11.220044     3A    -11.218264
       4A    -11.217705     5A     -1.017970     6A     -1.008519
       7A     -0.840630     8A     -0.838291     9A     -0.599675
      10A     -0.599389    11A     -0.593001    12A     -0.589735
      13A     -0.502206    14A     -0.496685    15A     -0.493875
      16A     -0.487260    17A     -0.484171    18A     -0.478413

    Virtual:

      19A      0.173158    20A      0.194968    21A      0.228222
      22A      0.235987    23A      0.241363    24A      0.258641
      25A      0.261162    26A      0.276148    27A      0.283739
      28A      0.287016    29A      0.315131    30A      0.360418
      31A      0.391659    32A      0.402566    33A      0.570363
      34A      0.581538    35A      0.598284    36A      0.601942
      37A      0.614145    38A      0.650637    39A      0.673456
      40A      0.681618    41A      0.710888    42A      0.762496
      43A      0.829395    44A      0.855413    45A      0.890034
      46A      0.891401    47A      0.893470    48A      0.896581
      49A      0.901319    50A      0.907801    51A      0.914432
      52A      0.924067    53A      0.940042    54A      0.958785
      55A      0.980046    56A      0.993754    57A      1.117677
      58A      1.122612    59A      1.128887    60A      1.144257
      61A      1.227070    62A      1.267006    63A      1.450988
      64A      1.464704    65A      1.473268    66A      1.491256
      67A      1.571450    68A      1.588521    69A      1.680155
      70A      1.688263    71A      1.691773    72A      1.701676
      73A      1.847249    74A      1.851790    75A      1.867094
      76A      1.875470    77A      1.890094    78A      1.904394
      79A      1.926359    80A      1.934247    81A      1.936608
      82A      1.940650    83A      1.949704    84A      1.954609
      85A      1.962278    86A      1.968909    87A      1.978517
      88A      2.041487    89A      2.077329    90A      2.087288
      91A      2.124718    92A      2.136363    93A      2.293166
      94A      2.301349    95A      2.311694    96A      2.324409
      97A      2.435362    98A      2.449926    99A      2.463612
     100A      2.474926   101A      2.547943   102A      2.556339
     103A      2.577337   104A      2.581168   105A      2.759741
     106A      2.761693   107A      2.786506   108A      2.798008
     109A      2.837604   110A      2.850274   111A      2.863064
     112A      2.870986   113A      2.937734   114A      2.944256
     115A      2.958487   116A      2.963531

    Final Occupation by Irrep:
              A
    DOCC [    18 ]

  @RHF Final Energy:  -158.46499031969876

   => Energetics <=

    Nuclear Repulsion Energy =            121.4743428583568061
    One-Electron Energy =                -452.0655386793848720
    Two-Electron Energy =                 172.1262055013293093
    Total Energy =                       -158.4649903196987566

Computation Completed

Properties will be evaluated at   0.000000,   0.000000,   0.000000 [a0]

Properties computed using the SCF density matrix

  Nuclear Dipole Moment: [e a0]
     X:     0.0027      Y:     0.0737      Z:     0.1222

  Electronic Dipole Moment: [e a0]
     X:    -0.0152      Y:    -0.0643      Z:    -0.0932

  Dipole Moment: [e a0]
     X:    -0.0125      Y:     0.0094      Z:     0.0290     Total:     0.0330

  Dipole Moment: [D]
     X:    -0.0318      Y:     0.0239      Z:     0.0737     Total:     0.0838

*** tstop() called on ds3 at Sun Apr 26 22:23:43 2020
Module time:
	user time   =       7.86 seconds =       0.13 minutes
	system time =       3.24 seconds =       0.05 minutes
	total time  =         11 seconds =       0.18 minutes
Total time:
	user time   =       7.86 seconds =       0.13 minutes
	system time =       3.24 seconds =       0.05 minutes
	total time  =         11 seconds =       0.18 minutes
                                     G D M A

                                 by Anthony Stone

                           version 2.2.06, 22 June 2011

               Distributed Multipoles from Gaussian wavefunctions

Starting at 22:23:43 on 26 Apr 2020

Using SCF density matrix from file ./SSI/SSI-048VAL-095LEU-1-dimer.test.26903.fchk

                         Distributed Multipole Analysis

Standard DMA

Positions and radii in angstrom
Multipole moments in atomic units, ea_0^k for rank k

C          x = -0.037560  y = -0.180151  z = -2.283237 angstrom
           Maximum rank =  0   Radius =  0.650 angstrom
                   Q00  =  -0.245328

C          x =  1.421440  y =  0.363849  z = -2.144237 angstrom
           Maximum rank =  0   Radius =  0.650 angstrom
                   Q00  =  -0.250465

H          x = -0.049560  y = -1.267151  z = -2.246237 angstrom
           Maximum rank =  0   Radius =  0.325 angstrom
                   Q00  =   0.083915

H          x = -0.647560  y =  0.212849  z = -1.472237 angstrom
           Maximum rank =  0   Radius =  0.325 angstrom
                   Q00  =   0.086566

H          x = -0.462560  y =  0.142849  z = -3.233237 angstrom
           Maximum rank =  0   Radius =  0.325 angstrom
                   Q00  =   0.079238

H          x =  1.742440  y =  0.121849  z = -1.130237 angstrom
           Maximum rank =  0   Radius =  0.325 angstrom
                   Q00  =   0.077106

H          x =  2.128456  y = -0.127455  z = -2.828889 angstrom
           Maximum rank =  0   Radius =  0.325 angstrom
                   Q00  =   0.084388

H          x =  1.464775  y =  1.458789  z = -2.240297 angstrom
           Maximum rank =  0   Radius =  0.325 angstrom
                   Q00  =   0.083881

C          x = -0.346560  y =  0.081849  z =  1.545763 angstrom
           Maximum rank =  0   Radius =  0.650 angstrom
                   Q00  =  -0.239932

C          x = -1.037560  y = -0.272151  z =  2.870763 angstrom
           Maximum rank =  0   Radius =  0.650 angstrom
                   Q00  =  -0.240137

H          x = -1.097560  y =  0.241849  z =  0.774763 angstrom
           Maximum rank =  0   Radius =  0.325 angstrom
                   Q00  =   0.078125

H          x =  0.211440  y =  1.005849  z =  1.651763 angstrom
           Maximum rank =  0   Radius =  0.325 angstrom
                   Q00  =   0.082447

H          x =  0.323440  y = -0.723151  z =  1.245763 angstrom
           Maximum rank =  0   Radius =  0.325 angstrom
                   Q00  =   0.080199

H          x = -1.718560  y =  0.539849  z =  3.115763 angstrom
           Maximum rank =  0   Radius =  0.325 angstrom
                   Q00  =   0.078220

H          x = -1.610931  y = -1.209806  z =  2.825497 angstrom
           Maximum rank =  0   Radius =  0.325 angstrom
                   Q00  =   0.083892

H          x = -0.280939  y = -0.317662  z =  3.667917 angstrom
           Maximum rank =  0   Radius =  0.325 angstrom
                   Q00  =   0.077886

Total multipoles referred to origin at
           x =   0.000000,  y =    0.000000,  z =    0.000000 angstrom
                   Q00  =  -0.000000

Finished at 22:23:43 on 26 Apr 2020

  DMA results are available in the Python driver through the
	  variable('DMA DISTRIBUTED MULTIPOLES')
  and
	  variable('DMA TOTAL MULTIPOLES')
  commands.

    Psi4 stopped on: Sunday, 26 April 2020 10:23PM
    Psi4 wall time for execution: 0:00:10.88

*** Psi4 exiting successfully. Buy a developer a beer!
