                               Psi4 1.3.2 release

  ==> Input File <==

--------------------------------------------------------------------------
import numpy as np
set {scf_type pk
basis cc-pvdz
d_convergence 10
gdma_switch   0
gdma_limit    0
gdma_origin   [ 0.0,  0.0,  0.0 ]
}
molecule test {
    units Angstrom
    0 1
    --
    0 1
    C                3.374812215496231     1.688817545189825     0.123806221201508
    C               -0.193187784503769     1.282817545189825    -0.398193778798492
    C                1.892812215496231     1.497817545189825     0.258806221201508
    C                1.115812215496231     1.388817545189825     1.366806221201508
    N                1.052812215496231     1.428817545189825    -0.836193778798492
    N               -0.181187784503769     1.255817545189825     0.927806221201508
    H               -1.075187784503769     1.185817545189825    -1.019193778798492
    H               -1.004187784503769     1.115817545189825     1.516806221201508
    H                1.447812215496231     1.404817545189825     2.392806221201508
    H                3.778812215496231     0.835817545189825    -0.422193778798492
    H                3.821812215496231     1.693817545189825     1.116806221201508
    H                3.634122215496231     2.615857545189825    -0.408503778798492
    C               -2.721187784503769    -2.256182454810175     0.578806221201508
    C               -1.638187784503769    -1.966182454810175    -0.433193778798492
    O               -1.866187784503769    -1.968182454810175    -1.641193778798492
    N               -0.430187784503769    -1.742182454810175     0.054806221201508
    H               -2.457187784503769    -1.810182454810175     1.535806221201508
    H               -2.748187784503769    -3.337182454810175     0.712806221201508
    H                0.312812215496231    -1.488182454810175    -0.574193778798492
    H               -0.310187784503769    -1.658182454810175     1.059806221201508
    H               -3.716047784503769    -1.894942454810175     0.279206221201508

}
e, wfn = energy('scf', return_wfn=True)
gdma(wfn)
dmavals = variable('DMA DISTRIBUTED MULTIPOLES')
charges = np.array(dmavals)
print(charges)
np.save('SSI-132HIE-149ASN-1-dimer.npy', np.array(charges))--------------------------------------------------------------------------

*** tstart() called on ds3
*** at Mon Apr 27 16:50:18 2020

   => Loading Basis Set <=

    Name: CC-PVDZ
    Role: ORBITAL
    Keyword: BASIS
    atoms 1-4, 13-14  entry C          line   138 file /theoryfs2/ds/metcalf/miniconda2/envs/tf2gpu/share/psi4/basis/cc-pvdz.gbs
    atoms 5-6, 16     entry N          line   168 file /theoryfs2/ds/metcalf/miniconda2/envs/tf2gpu/share/psi4/basis/cc-pvdz.gbs
    atoms 7-12, 17-21 entry H          line    22 file /theoryfs2/ds/metcalf/miniconda2/envs/tf2gpu/share/psi4/basis/cc-pvdz.gbs
    atoms 15          entry O          line   198 file /theoryfs2/ds/metcalf/miniconda2/envs/tf2gpu/share/psi4/basis/cc-pvdz.gbs

         ---------------------------------------------------------
                                   SCF
               by Justin Turney, Rob Parrish, Andy Simmonett
                          and Daniel G. A. Smith
                              RHF Reference
                        1 Threads,    500 MiB Core
         ---------------------------------------------------------

  ==> Geometry <==

    Molecular point group: c1
    Full point group: C1

    Geometry (in Angstrom), charge = 0, multiplicity = 1:

       Center              X                  Y                   Z               Mass
    ------------   -----------------  -----------------  -----------------  -----------------
         C            3.374812215496     1.688817545190     0.123806221202    12.000000000000
         C           -0.193187784504     1.282817545190    -0.398193778798    12.000000000000
         C            1.892812215496     1.497817545190     0.258806221202    12.000000000000
         C            1.115812215496     1.388817545190     1.366806221202    12.000000000000
         N            1.052812215496     1.428817545190    -0.836193778798    14.003074004430
         N           -0.181187784504     1.255817545190     0.927806221202    14.003074004430
         H           -1.075187784504     1.185817545190    -1.019193778798     1.007825032230
         H           -1.004187784504     1.115817545190     1.516806221202     1.007825032230
         H            1.447812215496     1.404817545190     2.392806221202     1.007825032230
         H            3.778812215496     0.835817545190    -0.422193778798     1.007825032230
         H            3.821812215496     1.693817545190     1.116806221202     1.007825032230
         H            3.634122215496     2.615857545190    -0.408503778798     1.007825032230
         C           -2.721187784504    -2.256182454810     0.578806221202    12.000000000000
         C           -1.638187784504    -1.966182454810    -0.433193778798    12.000000000000
         O           -1.866187784504    -1.968182454810    -1.641193778798    15.994914619570
         N           -0.430187784504    -1.742182454810     0.054806221202    14.003074004430
         H           -2.457187784504    -1.810182454810     1.535806221202     1.007825032230
         H           -2.748187784504    -3.337182454810     0.712806221202     1.007825032230
         H            0.312812215496    -1.488182454810    -0.574193778798     1.007825032230
         H           -0.310187784504    -1.658182454810     1.059806221202     1.007825032230
         H           -3.716047784504    -1.894942454810     0.279206221202     1.007825032230

  Running in c1 symmetry.

  Rotational constants: A =      0.09449  B =      0.01930  C =      0.01849 [cm^-1]
  Rotational constants: A =   2832.69578  B =    578.72384  C =    554.44286 [MHz]
  Nuclear repulsion =  511.554354132072206

  Charge       = 0
  Multiplicity = 1
  Electrons    = 76
  Nalpha       = 38
  Nbeta        = 38

  ==> Algorithm <==

  SCF Algorithm Type is PK.
  DIIS enabled.
  MOM disabled.
  Fractional occupation disabled.
  Guess Type is SAD.
  Energy threshold   = 1.00e-06
  Density threshold  = 1.00e-10
  Integral threshold = 0.00e+00

  ==> Primary Basis <==

  Basis Set: CC-PVDZ
    Blend: CC-PVDZ
    Number of shells: 93
    Number of basis function: 195
    Number of Cartesian functions: 205
    Spherical Harmonics?: true
    Max angular momentum: 2

  ==> Pre-Iterations <==

   -------------------------------------------------------
    Irrep   Nso     Nmo     Nalpha   Nbeta   Ndocc  Nsocc
   -------------------------------------------------------
     A        195     195       0       0       0       0
   -------------------------------------------------------
    Total     195     195      38      38      38       0
   -------------------------------------------------------

  ==> Integral Setup <==

  Using integral reordering PK algorithm.
  Sizing the integral batches needed.
  Building batch lookup table.
   Calculation information:
      Number of atoms:                  21
      Number of AO shells:              93
      Number of primitives:            275
      Number of atomic orbitals:       205
      Number of basis functions:       195

      Integral cutoff                 1.00e-12
      Number of threads:                 1

	Batch   1 pq = [       0,    9405] index = [             0,44231715] size =     44231715
	Batch   2 pq = [    9405,   13301] index = [      44231715,88464951] size =     44233236
	Batch   3 pq = [   13301,   16290] index = [      88464951,132690195] size =     44225244
	Batch   4 pq = [   16290,   18810] index = [     132690195,176917455] size =     44227260
	Batch   5 pq = [   18810,   19110] index = [     176917455,182605605] size =      5688150
  Task number: 17
  Buffer size: 11059200
  Buffer per thread: 2
  We computed 8106772 shell quartets total.
  Whereas there are 9555006 unique shell quartets.

  ==> DiskJK: Disk-Based J/K Matrices <==

    J tasked:                  Yes
    K tasked:                  Yes
    wK tasked:                  No
    Memory [MiB]:              375
    Schwarz Cutoff:          1E-12

    OpenMP threads:              1

  Minimum eigenvalue in the overlap matrix is 1.1687676004E-03.
  Using Symmetric Orthogonalization.

  SCF Guess: Superposition of Atomic Densities via on-the-fly atomic UHF.

  ==> Iterations <==

                        Total Energy        Delta E     RMS |[F,P]|

   @RHF iter SAD:  -470.83186206238781   -4.70832e+02   0.00000e+00
   @RHF iter   1:  -471.57558872175571   -7.43727e-01   3.67390e-03 DIIS
   @RHF iter   2:  -471.78830297978897   -2.12714e-01   2.16925e-03 DIIS
   @RHF iter   3:  -471.85869460989653   -7.03916e-02   4.64792e-04 DIIS
   @RHF iter   4:  -471.86349735557923   -4.80275e-03   1.69186e-04 DIIS
   @RHF iter   5:  -471.86420756790062   -7.10212e-04   3.08916e-05 DIIS
   @RHF iter   6:  -471.86425012781768   -4.25599e-05   1.54760e-05 DIIS
   @RHF iter   7:  -471.86425927063692   -9.14282e-06   5.75415e-06 DIIS
   @RHF iter   8:  -471.86426103931962   -1.76868e-06   2.18378e-06 DIIS
   @RHF iter   9:  -471.86426129461989   -2.55300e-07   1.00843e-06 DIIS
   @RHF iter  10:  -471.86426133188297   -3.72631e-08   2.26528e-07 DIIS
   @RHF iter  11:  -471.86426133499538   -3.11240e-09   7.61915e-08 DIIS
   @RHF iter  12:  -471.86426133527084   -2.75463e-10   3.69671e-08 DIIS
   @RHF iter  13:  -471.86426133532797   -5.71276e-11   1.12837e-08 DIIS
   @RHF iter  14:  -471.86426133533644   -8.46967e-12   4.94819e-09 DIIS
   @RHF iter  15:  -471.86426133533791   -1.47793e-12   2.10678e-09 DIIS
   @RHF iter  16:  -471.86426133534718   -9.26548e-12   6.64011e-10 DIIS
   @RHF iter  17:  -471.86426133533695    1.02318e-11   2.54416e-10 DIIS
   @RHF iter  18:  -471.86426133534167   -4.71800e-12   7.07663e-11 DIIS
  Energy and wave function converged.

  ==> Post-Iterations <==

    Orbital Energies [Eh]
    ---------------------

    Doubly Occupied:

       1A    -20.503047     2A    -15.627608     3A    -15.586445
       4A    -15.533515     5A    -11.347596     6A    -11.297931
       7A    -11.257702     8A    -11.249589     9A    -11.248397
      10A    -11.230148    11A     -1.367860    12A     -1.349227
      13A     -1.217738    14A     -1.159515    15A     -1.037992
      16A     -1.006709    17A     -0.947783    18A     -0.823169
      19A     -0.799249    20A     -0.769135    21A     -0.746727
      22A     -0.726941    23A     -0.657028    24A     -0.622334
      25A     -0.615028    26A     -0.608666    27A     -0.604041
      28A     -0.571056    29A     -0.564428    30A     -0.559132
      31A     -0.546639    32A     -0.528561    33A     -0.522740
      34A     -0.416699    35A     -0.410319    36A     -0.403119
      37A     -0.384694    38A     -0.317024

    Virtual:

      39A      0.136958    40A      0.184749    41A      0.188320
      42A      0.195363    43A      0.198866    44A      0.212798
      45A      0.222254    46A      0.228143    47A      0.236902
      48A      0.248869    49A      0.271371    50A      0.274175
      51A      0.283351    52A      0.300715    53A      0.369626
      54A      0.375937    55A      0.395270    56A      0.411560
      57A      0.466205    58A      0.478240    59A      0.485071
      60A      0.558182    61A      0.595929    62A      0.611642
      63A      0.617688    64A      0.632351    65A      0.647967
      66A      0.665045    67A      0.674384    68A      0.689567
      69A      0.699988    70A      0.731380    71A      0.741038
      72A      0.750759    73A      0.766178    74A      0.800676
      75A      0.807608    76A      0.824066    77A      0.835548
      78A      0.841132    79A      0.855842    80A      0.859049
      81A      0.877943    82A      0.886594    83A      0.891113
      84A      0.909464    85A      0.916285    86A      0.934204
      87A      0.948765    88A      0.956888    89A      0.968989
      90A      1.003341    91A      1.009785    92A      1.030483
      93A      1.060379    94A      1.085437    95A      1.089632
      96A      1.108608    97A      1.117809    98A      1.124169
      99A      1.152306   100A      1.200502   101A      1.224336
     102A      1.247132   103A      1.260100   104A      1.300882
     105A      1.317631   106A      1.326559   107A      1.331260
     108A      1.375730   109A      1.393709   110A      1.394973
     111A      1.430521   112A      1.432865   113A      1.443280
     114A      1.465226   115A      1.480469   116A      1.504510
     117A      1.520722   118A      1.570141   119A      1.596958
     120A      1.625408   121A      1.644830   122A      1.653652
     123A      1.680255   124A      1.715377   125A      1.752583
     126A      1.784088   127A      1.787897   128A      1.800541
     129A      1.836180   130A      1.850752   131A      1.863316
     132A      1.875846   133A      1.890156   134A      1.909146
     135A      1.917877   136A      1.931218   137A      1.936863
     138A      1.952676   139A      1.969333   140A      1.980154
     141A      1.991072   142A      2.021236   143A      2.031741
     144A      2.055097   145A      2.079776   146A      2.113480
     147A      2.124216   148A      2.141148   149A      2.160746
     150A      2.182698   151A      2.209768   152A      2.216853
     153A      2.238840   154A      2.267723   155A      2.303964
     156A      2.345581   157A      2.395155   158A      2.422410
     159A      2.441240   160A      2.450833   161A      2.458274
     162A      2.466217   163A      2.480129   164A      2.536452
     165A      2.544187   166A      2.583470   167A      2.608697
     168A      2.629065   169A      2.684409   170A      2.730269
     171A      2.738322   172A      2.739233   173A      2.760688
     174A      2.776524   175A      2.789422   176A      2.796825
     177A      2.814091   178A      2.861521   179A      2.869094
     180A      2.887002   181A      2.918732   182A      2.968055
     183A      2.985821   184A      3.062830   185A      3.096577
     186A      3.136193   187A      3.160086   188A      3.237895
     189A      3.291312   190A      3.469486   191A      3.493358
     192A      3.556038   193A      3.789724   194A      3.869183
     195A      3.905816

    Final Occupation by Irrep:
              A
    DOCC [    38 ]

  @RHF Final Energy:  -471.86426133534167

   => Energetics <=

    Nuclear Repulsion Energy =            511.5543541320722056
    One-Electron Energy =               -1656.5061751153180012
    Two-Electron Energy =                 673.0875596479041860
    Total Energy =                       -471.8642613353416664

Computation Completed

Properties will be evaluated at   0.000000,   0.000000,   0.000000 [a0]

Properties computed using the SCF density matrix

  Nuclear Dipole Moment: [e a0]
     X:     1.5688      Y:    -1.2653      Z:     5.7946

  Electronic Dipole Moment: [e a0]
     X:    -1.7671      Y:     1.2959      Z:    -3.2306

  Dipole Moment: [e a0]
     X:    -0.1983      Y:     0.0306      Z:     2.5640     Total:     2.5718

  Dipole Moment: [D]
     X:    -0.5039      Y:     0.0777      Z:     6.5170     Total:     6.5369

*** tstop() called on ds3 at Mon Apr 27 16:52:09 2020
Module time:
	user time   =      67.41 seconds =       1.12 minutes
	system time =      28.82 seconds =       0.48 minutes
	total time  =        111 seconds =       1.85 minutes
Total time:
	user time   =      67.41 seconds =       1.12 minutes
	system time =      28.82 seconds =       0.48 minutes
	total time  =        111 seconds =       1.85 minutes
                                     G D M A

                                 by Anthony Stone

                           version 2.2.06, 22 June 2011

               Distributed Multipoles from Gaussian wavefunctions

Starting at 16:52:9 on 27 Apr 2020

Using SCF density matrix from file ./SSI/SSI-132HIE-149ASN-1-dimer.test.28267.fchk

                         Distributed Multipole Analysis

Standard DMA

Positions and radii in angstrom
Multipole moments in atomic units, ea_0^k for rank k

C          x =  3.374812  y =  1.688818  z =  0.123806 angstrom
           Maximum rank =  0   Radius =  0.650 angstrom
                   Q00  =  -0.189657

C          x = -0.193188  y =  1.282818  z = -0.398194 angstrom
           Maximum rank =  0   Radius =  0.650 angstrom
                   Q00  =   0.459699

C          x =  1.892812  y =  1.497818  z =  0.258806 angstrom
           Maximum rank =  0   Radius =  0.650 angstrom
                   Q00  =   0.226144

C          x =  1.115812  y =  1.388818  z =  1.366806 angstrom
           Maximum rank =  0   Radius =  0.650 angstrom
                   Q00  =  -0.016510

N          x =  1.052812  y =  1.428818  z = -0.836194 angstrom
           Maximum rank =  0   Radius =  0.650 angstrom
                   Q00  =  -0.778316

N          x = -0.181188  y =  1.255818  z =  0.927806 angstrom
           Maximum rank =  0   Radius =  0.650 angstrom
                   Q00  =  -0.472326

H          x = -1.075188  y =  1.185818  z = -1.019194 angstrom
           Maximum rank =  0   Radius =  0.325 angstrom
                   Q00  =   0.132721

H          x = -1.004188  y =  1.115818  z =  1.516806 angstrom
           Maximum rank =  0   Radius =  0.325 angstrom
                   Q00  =   0.217430

H          x =  1.447812  y =  1.404818  z =  2.392806 angstrom
           Maximum rank =  0   Radius =  0.325 angstrom
                   Q00  =   0.100865

H          x =  3.778812  y =  0.835818  z = -0.422194 angstrom
           Maximum rank =  0   Radius =  0.325 angstrom
                   Q00  =   0.109607

H          x =  3.821812  y =  1.693818  z =  1.116806 angstrom
           Maximum rank =  0   Radius =  0.325 angstrom
                   Q00  =   0.090259

H          x =  3.634122  y =  2.615858  z = -0.408504 angstrom
           Maximum rank =  0   Radius =  0.325 angstrom
                   Q00  =   0.115791

C          x = -2.721188  y = -2.256182  z =  0.578806 angstrom
           Maximum rank =  0   Radius =  0.650 angstrom
                   Q00  =  -0.262385

C          x = -1.638188  y = -1.966182  z = -0.433194 angstrom
           Maximum rank =  0   Radius =  0.650 angstrom
                   Q00  =   0.805438

O          x = -1.866188  y = -1.968182  z = -1.641194 angstrom
           Maximum rank =  0   Radius =  0.650 angstrom
                   Q00  =  -0.793942

N          x = -0.430188  y = -1.742182  z =  0.054806 angstrom
           Maximum rank =  0   Radius =  0.650 angstrom
                   Q00  =  -0.515407

H          x = -2.457188  y = -1.810182  z =  1.535806 angstrom
           Maximum rank =  0   Radius =  0.325 angstrom
                   Q00  =   0.064327

H          x = -2.748188  y = -3.337182  z =  0.712806 angstrom
           Maximum rank =  0   Radius =  0.325 angstrom
                   Q00  =   0.135694

H          x =  0.312812  y = -1.488182  z = -0.574194 angstrom
           Maximum rank =  0   Radius =  0.325 angstrom
                   Q00  =   0.239900

H          x = -0.310188  y = -1.658182  z =  1.059806 angstrom
           Maximum rank =  0   Radius =  0.325 angstrom
                   Q00  =   0.200719

H          x = -3.716048  y = -1.894942  z =  0.279206 angstrom
           Maximum rank =  0   Radius =  0.325 angstrom
                   Q00  =   0.129948

Total multipoles referred to origin at
           x =   0.000000,  y =    0.000000,  z =    0.000000 angstrom
                   Q00  =  -0.000000

Finished at 16:52:9 on 27 Apr 2020

  DMA results are available in the Python driver through the
	  variable('DMA DISTRIBUTED MULTIPOLES')
  and
	  variable('DMA TOTAL MULTIPOLES')
  commands.

    Psi4 stopped on: Monday, 27 April 2020 04:52PM
    Psi4 wall time for execution: 0:01:51.11

*** Psi4 exiting successfully. Buy a developer a beer!
