                               Psi4 1.3.2 release

  ==> Input File <==

--------------------------------------------------------------------------
import numpy as np
set {scf_type pk
basis cc-pvdz
d_convergence 10
gdma_switch   0
gdma_limit    0
gdma_origin   [ 0.0,  0.0,  0.0 ]
}
molecule test {
    units Angstrom
    0 1
    --
    0 1
    C                2.811220466585018     0.133720712149991    -2.151944371064087
    C                3.549220466585018    -1.161279287850009    -2.520944371064087
    H                1.983220466585018     0.306720712149991    -2.836944371064087
    H                3.496220466585017     0.979720712149991    -2.192944371064087
    H                2.408220466585018     0.048720712149991    -1.143944371064087
    H                2.844220466585018    -1.991279287850009    -2.475944371064087
    H                3.982752466585018    -1.090220287850009    -3.529404371064087
    H                4.352974466585017    -1.355864287850009    -1.795604371064087
    C               -1.567779533414982     2.846720712149991    -0.223944371064087
    C               -0.685779533414982     0.542720712149991    -0.651944371064087
    C               -1.203779533414982     1.469720712149991     0.248055628935913
    C               -0.352779533414982    -0.738279287850009    -0.266944371064087
    C               -0.557779533414982    -1.133279287850009     1.034055628935913
    C               -1.405779533414982     1.083720712149991     1.564055628935913
    C               -1.084779533414982    -0.219279287850009     1.957055628935913
    O               -0.259779533414982    -2.405279287850009     1.398055628935913
    H               -0.534779533414982     0.833720712149991    -1.683944371064087
    H                0.049220466585018    -1.440279287850009    -0.981944371064087
    H               -0.898779533414982     3.123720712149991    -1.032944371064087
    H               -1.449779533414982     3.563720712149991     0.590055628935913
    H               -1.834779533414982     1.780720712149991     2.271055628935913
    H               -0.492779533414982    -2.576279287850009     2.316055628935914
    H               -1.257779533414982    -0.527279287850009     2.978055628935913
    H               -2.595473533414983     2.887008712149991    -0.614104371064087

}
e, wfn = energy('scf', return_wfn=True)
gdma(wfn)
dmavals = variable('DMA DISTRIBUTED MULTIPOLES')
charges = np.array(dmavals)
print(charges)
np.save('SSI-040LEU-063TYR-1-dimer.npy', np.array(charges))--------------------------------------------------------------------------

*** tstart() called on ds3
*** at Tue Apr 28 21:51:04 2020

   => Loading Basis Set <=

    Name: CC-PVDZ
    Role: ORBITAL
    Keyword: BASIS
    atoms 1-2, 9-15  entry C          line   138 file /theoryfs2/ds/metcalf/miniconda2/envs/tf2gpu/share/psi4/basis/cc-pvdz.gbs
    atoms 3-8, 17-24 entry H          line    22 file /theoryfs2/ds/metcalf/miniconda2/envs/tf2gpu/share/psi4/basis/cc-pvdz.gbs
    atoms 16         entry O          line   198 file /theoryfs2/ds/metcalf/miniconda2/envs/tf2gpu/share/psi4/basis/cc-pvdz.gbs

         ---------------------------------------------------------
                                   SCF
               by Justin Turney, Rob Parrish, Andy Simmonett
                          and Daniel G. A. Smith
                              RHF Reference
                        1 Threads,    500 MiB Core
         ---------------------------------------------------------

  ==> Geometry <==

    Molecular point group: c1
    Full point group: C1

    Geometry (in Angstrom), charge = 0, multiplicity = 1:

       Center              X                  Y                   Z               Mass
    ------------   -----------------  -----------------  -----------------  -----------------
         C            2.811220466585     0.133720712150    -2.151944371064    12.000000000000
         C            3.549220466585    -1.161279287850    -2.520944371064    12.000000000000
         H            1.983220466585     0.306720712150    -2.836944371064     1.007825032230
         H            3.496220466585     0.979720712150    -2.192944371064     1.007825032230
         H            2.408220466585     0.048720712150    -1.143944371064     1.007825032230
         H            2.844220466585    -1.991279287850    -2.475944371064     1.007825032230
         H            3.982752466585    -1.090220287850    -3.529404371064     1.007825032230
         H            4.352974466585    -1.355864287850    -1.795604371064     1.007825032230
         C           -1.567779533415     2.846720712150    -0.223944371064    12.000000000000
         C           -0.685779533415     0.542720712150    -0.651944371064    12.000000000000
         C           -1.203779533415     1.469720712150     0.248055628936    12.000000000000
         C           -0.352779533415    -0.738279287850    -0.266944371064    12.000000000000
         C           -0.557779533415    -1.133279287850     1.034055628936    12.000000000000
         C           -1.405779533415     1.083720712150     1.564055628936    12.000000000000
         C           -1.084779533415    -0.219279287850     1.957055628936    12.000000000000
         O           -0.259779533415    -2.405279287850     1.398055628936    15.994914619570
         H           -0.534779533415     0.833720712150    -1.683944371064     1.007825032230
         H            0.049220466585    -1.440279287850    -0.981944371064     1.007825032230
         H           -0.898779533415     3.123720712150    -1.032944371064     1.007825032230
         H           -1.449779533415     3.563720712150     0.590055628936     1.007825032230
         H           -1.834779533415     1.780720712150     2.271055628936     1.007825032230
         H           -0.492779533415    -2.576279287850     2.316055628936     1.007825032230
         H           -1.257779533415    -0.527279287850     2.978055628936     1.007825032230
         H           -2.595473533415     2.887008712150    -0.614104371064     1.007825032230

  Running in c1 symmetry.

  Rotational constants: A =      0.04502  B =      0.02328  C =      0.01626 [cm^-1]
  Rotational constants: A =   1349.62927  B =    697.77205  C =    487.58698 [MHz]
  Nuclear repulsion =  491.015023626014681

  Charge       = 0
  Multiplicity = 1
  Electrons    = 76
  Nalpha       = 38
  Nbeta        = 38

  ==> Algorithm <==

  SCF Algorithm Type is PK.
  DIIS enabled.
  MOM disabled.
  Fractional occupation disabled.
  Guess Type is SAD.
  Energy threshold   = 1.00e-06
  Density threshold  = 1.00e-10
  Integral threshold = 0.00e+00

  ==> Primary Basis <==

  Basis Set: CC-PVDZ
    Blend: CC-PVDZ
    Number of shells: 102
    Number of basis function: 210
    Number of Cartesian functions: 220
    Spherical Harmonics?: true
    Max angular momentum: 2

  ==> Pre-Iterations <==

   -------------------------------------------------------
    Irrep   Nso     Nmo     Nalpha   Nbeta   Ndocc  Nsocc
   -------------------------------------------------------
     A        210     210       0       0       0       0
   -------------------------------------------------------
    Total     210     210      38      38      38       0
   -------------------------------------------------------

  ==> Integral Setup <==

  Using integral reordering PK algorithm.
  Sizing the integral batches needed.
  Building batch lookup table.
   Calculation information:
      Number of atoms:                  24
      Number of AO shells:             102
      Number of primitives:            290
      Number of atomic orbitals:       220
      Number of basis functions:       210

      Integral cutoff                 1.00e-12
      Number of threads:                 1

	Batch   1 pq = [       0,    9405] index = [             0,44231715] size =     44231715
	Batch   2 pq = [    9405,   13301] index = [      44231715,88464951] size =     44233236
	Batch   3 pq = [   13301,   16290] index = [      88464951,132690195] size =     44225244
	Batch   4 pq = [   16290,   18810] index = [     132690195,176917455] size =     44227260
	Batch   5 pq = [   18810,   21030] index = [     176917455,221140965] size =     44223510
	Batch   6 pq = [   21030,   22155] index = [     221140965,245433090] size =     24292125
  Task number: 23
  Buffer size: 11059200
  Buffer per thread: 2
  We computed 11226087 shell quartets total.
  Whereas there are 13799631 unique shell quartets.

  ==> DiskJK: Disk-Based J/K Matrices <==

    J tasked:                  Yes
    K tasked:                  Yes
    wK tasked:                  No
    Memory [MiB]:              375
    Schwarz Cutoff:          1E-12

    OpenMP threads:              1

  Minimum eigenvalue in the overlap matrix is 3.1404298829E-04.
  Using Symmetric Orthogonalization.

  SCF Guess: Superposition of Atomic Densities via on-the-fly atomic UHF.

  ==> Iterations <==

                        Total Energy        Delta E     RMS |[F,P]|

   @RHF iter SAD:  -422.74402896139406   -4.22744e+02   0.00000e+00
   @RHF iter   1:  -423.60053748869871   -8.56509e-01   2.99373e-03 DIIS
   @RHF iter   2:  -423.81872077345110   -2.18183e-01   1.26662e-03 DIIS
   @RHF iter   3:  -423.85421325878372   -3.54925e-02   2.84309e-04 DIIS
   @RHF iter   4:  -423.85708226443882   -2.86901e-03   1.17760e-04 DIIS
   @RHF iter   5:  -423.85743970507809   -3.57441e-04   2.05472e-05 DIIS
   @RHF iter   6:  -423.85745691064233   -1.72056e-05   6.26651e-06 DIIS
   @RHF iter   7:  -423.85745848261718   -1.57197e-06   2.03349e-06 DIIS
   @RHF iter   8:  -423.85745869628488   -2.13668e-07   7.67649e-07 DIIS
   @RHF iter   9:  -423.85745873156355   -3.52787e-08   3.14012e-07 DIIS
   @RHF iter  10:  -423.85745873852443   -6.96087e-09   1.27495e-07 DIIS
   @RHF iter  11:  -423.85745874055993   -2.03551e-09   5.90323e-08 DIIS
   @RHF iter  12:  -423.85745874097688   -4.16946e-10   2.77819e-08 DIIS
   @RHF iter  13:  -423.85745874105339   -7.65112e-11   8.00738e-09 DIIS
   @RHF iter  14:  -423.85745874105754   -4.14957e-12   2.12982e-09 DIIS
   @RHF iter  15:  -423.85745874105874   -1.19371e-12   7.37635e-10 DIIS
   @RHF iter  16:  -423.85745874105771    1.02318e-12   2.74039e-10 DIIS
   @RHF iter  17:  -423.85745874105726    4.54747e-13   1.27264e-10 DIIS
   @RHF iter  18:  -423.85745874105515    2.10321e-12   6.61359e-11 DIIS
  Energy and wave function converged.

  ==> Post-Iterations <==

    Orbital Energies [Eh]
    ---------------------

    Doubly Occupied:

       1A    -20.584056     2A    -11.297621     3A    -11.238343
       4A    -11.234184     5A    -11.233833     6A    -11.230086
       7A    -11.226171     8A    -11.225665     9A    -11.216153
      10A    -11.212057    11A     -1.403265    12A     -1.153213
      13A     -1.039815    14A     -1.018061    15A     -1.012284
      16A     -0.926696    17A     -0.845864    18A     -0.833479
      19A     -0.802044    20A     -0.733136    21A     -0.668978
      22A     -0.641083    23A     -0.608223    24A     -0.596165
      25A     -0.591794    26A     -0.588300    27A     -0.584874
      28A     -0.570884    29A     -0.567688    30A     -0.528201
      31A     -0.497840    32A     -0.494561    33A     -0.484732
      34A     -0.484340    35A     -0.481006    36A     -0.466698
      37A     -0.338628    38A     -0.301161

    Virtual:

      39A      0.130865    40A      0.156573    41A      0.173822
      42A      0.180676    43A      0.191967    44A      0.219307
      45A      0.220712    46A      0.235841    47A      0.256992
      48A      0.263010    49A      0.266858    50A      0.276885
      51A      0.287027    52A      0.289728    53A      0.312106
      54A      0.332086    55A      0.374031    56A      0.379301
      57A      0.400270    58A      0.428037    59A      0.456848
      60A      0.482200    61A      0.502078    62A      0.507808
      63A      0.598493    64A      0.602138    65A      0.610233
      66A      0.616945    67A      0.639889    68A      0.650554
      69A      0.665204    70A      0.677391    71A      0.683784
      72A      0.690364    73A      0.698565    74A      0.710598
      75A      0.731442    76A      0.741352    77A      0.771463
      78A      0.773560    79A      0.784920    80A      0.796967
      81A      0.808078    82A      0.827573    83A      0.850354
      84A      0.858626    85A      0.875853    86A      0.876854
      87A      0.888695    88A      0.892799    89A      0.895870
      90A      0.899415    91A      0.907343    92A      0.911010
      93A      0.929661    94A      0.930694    95A      0.944200
      96A      0.949297    97A      0.952577    98A      0.967849
      99A      0.986566   100A      1.026750   101A      1.038312
     102A      1.057187   103A      1.126970   104A      1.132354
     105A      1.138773   106A      1.147628   107A      1.151316
     108A      1.178774   109A      1.210807   110A      1.238997
     111A      1.246269   112A      1.252509   113A      1.270966
     114A      1.286087   115A      1.298965   116A      1.315459
     117A      1.319591   118A      1.361537   119A      1.368904
     120A      1.383604   121A      1.473965   122A      1.483119
     123A      1.489060   124A      1.502186   125A      1.532836
     126A      1.565948   127A      1.583379   128A      1.613888
     129A      1.619956   130A      1.677440   131A      1.686777
     132A      1.701427   133A      1.704840   134A      1.737345
     135A      1.746881   136A      1.788728   137A      1.810953
     138A      1.811552   139A      1.868096   140A      1.873692
     141A      1.877373   142A      1.891894   143A      1.894498
     144A      1.908482   145A      1.915555   146A      1.922890
     147A      1.927959   148A      1.942420   149A      1.946873
     150A      1.951826   151A      1.958102   152A      1.967264
     153A      1.972773   154A      1.975717   155A      1.984344
     156A      1.993225   157A      2.043807   158A      2.050771
     159A      2.057437   160A      2.070669   161A      2.082506
     162A      2.108344   163A      2.113966   164A      2.142204
     165A      2.155903   166A      2.162958   167A      2.215433
     168A      2.231609   169A      2.270070   170A      2.286375
     171A      2.295986   172A      2.302535   173A      2.316927
     174A      2.326958   175A      2.372484   176A      2.427424
     177A      2.459119   178A      2.463392   179A      2.464705
     180A      2.484171   181A      2.485809   182A      2.540245
     183A      2.551365   184A      2.564888   185A      2.576248
     186A      2.610339   187A      2.642698   188A      2.762668
     189A      2.765927   190A      2.775238   191A      2.792637
     192A      2.800318   193A      2.815710   194A      2.844460
     195A      2.854312   196A      2.862849   197A      2.906252
     198A      2.956630   199A      2.968225   200A      2.972602
     201A      3.009701   202A      3.099502   203A      3.127201
     204A      3.254435   205A      3.293504   206A      3.350824
     207A      3.581199   208A      3.692680   209A      3.966349
     210A      4.205012

    Final Occupation by Irrep:
              A
    DOCC [    38 ]

  @RHF Final Energy:  -423.85745874105515

   => Energetics <=

    Nuclear Repulsion Energy =            491.0150236260146812
    One-Electron Energy =               -1547.8226043532763470
    Two-Electron Energy =                 632.9501219862065682
    Total Energy =                       -423.8574587410550976

Computation Completed

Properties will be evaluated at   0.000000,   0.000000,   0.000000 [a0]

Properties computed using the SCF density matrix

  Nuclear Dipole Moment: [e a0]
     X:     9.4228      Y:     4.2472      Z:    -9.4922

  Electronic Dipole Moment: [e a0]
     X:    -9.6951      Y:    -3.9976      Z:     9.9606

  Dipole Moment: [e a0]
     X:    -0.2722      Y:     0.2497      Z:     0.4684     Total:     0.5965

  Dipole Moment: [D]
     X:    -0.6919      Y:     0.6345      Z:     1.1906     Total:     1.5163

*** tstop() called on ds3 at Tue Apr 28 21:52:59 2020
Module time:
	user time   =      81.03 seconds =       1.35 minutes
	system time =      37.73 seconds =       0.63 minutes
	total time  =        115 seconds =       1.92 minutes
Total time:
	user time   =      81.03 seconds =       1.35 minutes
	system time =      37.73 seconds =       0.63 minutes
	total time  =        115 seconds =       1.92 minutes
                                     G D M A

                                 by Anthony Stone

                           version 2.2.06, 22 June 2011

               Distributed Multipoles from Gaussian wavefunctions

Starting at 21:52:59 on 28 Apr 2020

Using SCF density matrix from file ./SSI/SSI-040LEU-063TYR-1-dimer.test.925.fchk

                         Distributed Multipole Analysis

Standard DMA

Positions and radii in angstrom
Multipole moments in atomic units, ea_0^k for rank k

C          x =  2.811220  y =  0.133721  z = -2.151944 angstrom
           Maximum rank =  0   Radius =  0.650 angstrom
                   Q00  =  -0.250573

C          x =  3.549220  y = -1.161279  z = -2.520944 angstrom
           Maximum rank =  0   Radius =  0.650 angstrom
                   Q00  =  -0.229114

H          x =  1.983220  y =  0.306721  z = -2.836944 angstrom
           Maximum rank =  0   Radius =  0.325 angstrom
                   Q00  =   0.072877

H          x =  3.496220  y =  0.979721  z = -2.192944 angstrom
           Maximum rank =  0   Radius =  0.325 angstrom
                   Q00  =   0.078658

H          x =  2.408220  y =  0.048721  z = -1.143944 angstrom
           Maximum rank =  0   Radius =  0.325 angstrom
                   Q00  =   0.091738

H          x =  2.844220  y = -1.991279  z = -2.475944 angstrom
           Maximum rank =  0   Radius =  0.325 angstrom
                   Q00  =   0.078649

H          x =  3.982752  y = -1.090220  z = -3.529404 angstrom
           Maximum rank =  0   Radius =  0.325 angstrom
                   Q00  =   0.077709

H          x =  4.352974  y = -1.355864  z = -1.795604 angstrom
           Maximum rank =  0   Radius =  0.325 angstrom
                   Q00  =   0.079674

C          x = -1.567780  y =  2.846721  z = -0.223944 angstrom
           Maximum rank =  0   Radius =  0.650 angstrom
                   Q00  =  -0.196060

C          x = -0.685780  y =  0.542721  z = -0.651944 angstrom
           Maximum rank =  0   Radius =  0.650 angstrom
                   Q00  =   0.064129

C          x = -1.203780  y =  1.469721  z =  0.248056 angstrom
           Maximum rank =  0   Radius =  0.650 angstrom
                   Q00  =  -0.135217

C          x = -0.352780  y = -0.738279  z = -0.266944 angstrom
           Maximum rank =  0   Radius =  0.650 angstrom
                   Q00  =  -0.115191

C          x = -0.557780  y = -1.133279  z =  1.034056 angstrom
           Maximum rank =  0   Radius =  0.650 angstrom
                   Q00  =   0.327628

C          x = -1.405780  y =  1.083721  z =  1.564056 angstrom
           Maximum rank =  0   Radius =  0.650 angstrom
                   Q00  =  -0.054667

C          x = -1.084780  y = -0.219279  z =  1.957056 angstrom
           Maximum rank =  0   Radius =  0.650 angstrom
                   Q00  =  -0.192510

O          x = -0.259780  y = -2.405279  z =  1.398056 angstrom
           Maximum rank =  0   Radius =  0.650 angstrom
                   Q00  =  -0.673173

H          x = -0.534780  y =  0.833721  z = -1.683944 angstrom
           Maximum rank =  0   Radius =  0.325 angstrom
                   Q00  =   0.059505

H          x =  0.049220  y = -1.440279  z = -0.981944 angstrom
           Maximum rank =  0   Radius =  0.325 angstrom
                   Q00  =   0.077573

H          x = -0.898780  y =  3.123721  z = -1.032944 angstrom
           Maximum rank =  0   Radius =  0.325 angstrom
                   Q00  =   0.096585

H          x = -1.449780  y =  3.563721  z =  0.590056 angstrom
           Maximum rank =  0   Radius =  0.325 angstrom
                   Q00  =   0.096624

H          x = -1.834780  y =  1.780721  z =  2.271056 angstrom
           Maximum rank =  0   Radius =  0.325 angstrom
                   Q00  =   0.069934

H          x = -0.492780  y = -2.576279  z =  2.316056 angstrom
           Maximum rank =  0   Radius =  0.325 angstrom
                   Q00  =   0.405323

H          x = -1.257780  y = -0.527279  z =  2.978056 angstrom
           Maximum rank =  0   Radius =  0.325 angstrom
                   Q00  =   0.071929

H          x = -2.595474  y =  2.887009  z = -0.614104 angstrom
           Maximum rank =  0   Radius =  0.325 angstrom
                   Q00  =   0.097971

Total multipoles referred to origin at
           x =   0.000000,  y =    0.000000,  z =    0.000000 angstrom
                   Q00  =  -0.000000

Finished at 21:52:59 on 28 Apr 2020

  DMA results are available in the Python driver through the
	  variable('DMA DISTRIBUTED MULTIPOLES')
  and
	  variable('DMA TOTAL MULTIPOLES')
  commands.

    Psi4 stopped on: Tuesday, 28 April 2020 09:52PM
    Psi4 wall time for execution: 0:01:54.68

*** Psi4 exiting successfully. Buy a developer a beer!
