                               Psi4 1.3.2 release

  ==> Input File <==

--------------------------------------------------------------------------
import numpy as np
set {scf_type pk
basis cc-pvdz
d_convergence 10
gdma_switch   0
gdma_limit    0
gdma_origin   [ 0.0,  0.0,  0.0 ]
}
molecule test {
    units Angstrom
    0 1
    --
    0 1
    C                1.345049510853220     1.240239716603523    -1.120627261924385
    C                2.333049510853220     0.870239716603523    -0.013627261924385
    H                1.735049510853220     2.082239716603523    -1.695627261924385
    H                1.215049510853220     0.390239716603523    -1.791627261924385
    H                0.371049510853220     1.518239716603523    -0.730627261924385
    H                1.941049510853220     0.017239716603523     0.539372738075615
    H                2.467439510853220     1.715879716603523     0.676902738075615
    H                3.298329510853220     0.595469716603523    -0.463897261924385
    C               -1.563950489146780    -0.362760283396477     0.710372738075615
    C               -2.106950489146780    -1.748760283396477     0.433372738075615
    H               -0.922950489146780    -0.069760283396477    -0.114627261924385
    H               -2.386950489146780     0.349239716603523     0.785372738075615
    H               -0.988950489146780    -0.367760283396477     1.631372738075615
    H               -2.382950489146780    -1.807760283396477    -0.621627261924385
    H               -3.026950489146780    -1.849760283396477     0.999372738075615
    H               -1.404920489146780    -2.561110283396477     0.672632738075615

}
e, wfn = energy('scf', return_wfn=True)
gdma(wfn)
dmavals = variable('DMA DISTRIBUTED MULTIPOLES')
charges = np.array(dmavals)
print(charges)
np.save('SSI-109VAL-164ILE-1-dimer.npy', np.array(charges))--------------------------------------------------------------------------

*** tstart() called on ds3
*** at Mon Apr 27 14:03:47 2020

   => Loading Basis Set <=

    Name: CC-PVDZ
    Role: ORBITAL
    Keyword: BASIS
    atoms 1-2, 9-10  entry C          line   138 file /theoryfs2/ds/metcalf/miniconda2/envs/tf2gpu/share/psi4/basis/cc-pvdz.gbs
    atoms 3-8, 11-16 entry H          line    22 file /theoryfs2/ds/metcalf/miniconda2/envs/tf2gpu/share/psi4/basis/cc-pvdz.gbs

         ---------------------------------------------------------
                                   SCF
               by Justin Turney, Rob Parrish, Andy Simmonett
                          and Daniel G. A. Smith
                              RHF Reference
                        1 Threads,    500 MiB Core
         ---------------------------------------------------------

  ==> Geometry <==

    Molecular point group: c1
    Full point group: C1

    Geometry (in Angstrom), charge = 0, multiplicity = 1:

       Center              X                  Y                   Z               Mass
    ------------   -----------------  -----------------  -----------------  -----------------
         C            1.345049510853     1.240239716604    -1.120627261924    12.000000000000
         C            2.333049510853     0.870239716604    -0.013627261924    12.000000000000
         H            1.735049510853     2.082239716604    -1.695627261924     1.007825032230
         H            1.215049510853     0.390239716604    -1.791627261924     1.007825032230
         H            0.371049510853     1.518239716604    -0.730627261924     1.007825032230
         H            1.941049510853     0.017239716604     0.539372738076     1.007825032230
         H            2.467439510853     1.715879716604     0.676902738076     1.007825032230
         H            3.298329510853     0.595469716604    -0.463897261924     1.007825032230
         C           -1.563950489147    -0.362760283396     0.710372738076    12.000000000000
         C           -2.106950489147    -1.748760283396     0.433372738076    12.000000000000
         H           -0.922950489147    -0.069760283396    -0.114627261924     1.007825032230
         H           -2.386950489147     0.349239716604     0.785372738076     1.007825032230
         H           -0.988950489147    -0.367760283396     1.631372738076     1.007825032230
         H           -2.382950489147    -1.807760283396    -0.621627261924     1.007825032230
         H           -3.026950489147    -1.849760283396     0.999372738076     1.007825032230
         H           -1.404920489147    -2.561110283396     0.672632738076     1.007825032230

  Running in c1 symmetry.

  Rotational constants: A =      0.42627  B =      0.05243  C =      0.05109 [cm^-1]
  Rotational constants: A =  12779.37262  B =   1571.69894  C =   1531.49095 [MHz]
  Nuclear repulsion =  123.559621158522091

  Charge       = 0
  Multiplicity = 1
  Electrons    = 36
  Nalpha       = 18
  Nbeta        = 18

  ==> Algorithm <==

  SCF Algorithm Type is PK.
  DIIS enabled.
  MOM disabled.
  Fractional occupation disabled.
  Guess Type is SAD.
  Energy threshold   = 1.00e-06
  Density threshold  = 1.00e-10
  Integral threshold = 0.00e+00

  ==> Primary Basis <==

  Basis Set: CC-PVDZ
    Blend: CC-PVDZ
    Number of shells: 60
    Number of basis function: 116
    Number of Cartesian functions: 120
    Spherical Harmonics?: true
    Max angular momentum: 2

  ==> Pre-Iterations <==

   -------------------------------------------------------
    Irrep   Nso     Nmo     Nalpha   Nbeta   Ndocc  Nsocc
   -------------------------------------------------------
     A        116     116       0       0       0       0
   -------------------------------------------------------
    Total     116     116      18      18      18       0
   -------------------------------------------------------

  ==> Integral Setup <==

  Using integral reordering PK algorithm.
  Sizing the integral batches needed.
  Building batch lookup table.
   Calculation information:
      Number of atoms:                  16
      Number of AO shells:              60
      Number of primitives:            148
      Number of atomic orbitals:       120
      Number of basis functions:       116

      Integral cutoff                 1.00e-12
      Number of threads:                 1

	Batch   1 pq = [       0,    6786] index = [             0,23028291] size =     23028291
  Task number: 3
  Buffer size: 11059200
  Buffer per thread: 2
  We computed 1485646 shell quartets total.
  Whereas there are 1675365 unique shell quartets.

  ==> DiskJK: Disk-Based J/K Matrices <==

    J tasked:                  Yes
    K tasked:                  Yes
    wK tasked:                  No
    Memory [MiB]:              375
    Schwarz Cutoff:          1E-12

    OpenMP threads:              1

  Minimum eigenvalue in the overlap matrix is 6.7193339271E-03.
  Using Symmetric Orthogonalization.

  SCF Guess: Superposition of Atomic Densities via on-the-fly atomic UHF.

  ==> Iterations <==

                        Total Energy        Delta E     RMS |[F,P]|

   @RHF iter SAD:  -157.39714779012692   -1.57397e+02   0.00000e+00
   @RHF iter   1:  -158.30303039683841   -9.05883e-01   4.24050e-03 DIIS
   @RHF iter   2:  -158.43758278299083   -1.34552e-01   1.80604e-03 DIIS
   @RHF iter   3:  -158.46123136562969   -2.36486e-02   3.50990e-04 DIIS
   @RHF iter   4:  -158.46307608571408   -1.84472e-03   3.91390e-05 DIIS
   @RHF iter   5:  -158.46310044588012   -2.43602e-05   6.50950e-06 DIIS
   @RHF iter   6:  -158.46310108937695   -6.43497e-07   1.00398e-06 DIIS
   @RHF iter   7:  -158.46310110017055   -1.07936e-08   3.10021e-07 DIIS
   @RHF iter   8:  -158.46310110101803   -8.47479e-10   4.53717e-08 DIIS
   @RHF iter   9:  -158.46310110105279   -3.47598e-11   9.56679e-09 DIIS
   @RHF iter  10:  -158.46310110105463   -1.84741e-12   2.45058e-09 DIIS
   @RHF iter  11:  -158.46310110105497   -3.41061e-13   6.75763e-10 DIIS
   @RHF iter  12:  -158.46310110105458    3.97904e-13   1.90022e-10 DIIS
   @RHF iter  13:  -158.46310110105441    1.70530e-13   3.16210e-11 DIIS
  Energy and wave function converged.

  ==> Post-Iterations <==

    Orbital Energies [Eh]
    ---------------------

    Doubly Occupied:

       1A    -11.219574     2A    -11.216052     3A    -11.215603
       4A    -11.213560     5A     -1.023492     6A     -1.017672
       7A     -0.838730     8A     -0.834528     9A     -0.607969
      10A     -0.601604    11A     -0.597567    12A     -0.592371
      13A     -0.505004    14A     -0.500696    15A     -0.489390
      16A     -0.486725    17A     -0.484985    18A     -0.474218

    Virtual:

      19A      0.171491    20A      0.201284    21A      0.224164
      22A      0.232883    23A      0.245514    24A      0.256027
      25A      0.264420    26A      0.275089    27A      0.284537
      28A      0.297253    29A      0.309726    30A      0.336217
      31A      0.390281    32A      0.411153    33A      0.575508
      34A      0.596015    35A      0.602573    36A      0.607108
      37A      0.613371    38A      0.636179    39A      0.672628
      40A      0.687196    41A      0.721985    42A      0.795521
      43A      0.841716    44A      0.859984    45A      0.877255
      46A      0.880893    47A      0.891953    48A      0.897543
      49A      0.899361    50A      0.904649    51A      0.915136
      52A      0.934363    53A      0.942422    54A      0.964073
      55A      0.981520    56A      1.027268    57A      1.111732
      58A      1.126070    59A      1.129392    60A      1.150288
      61A      1.236647    62A      1.267097    63A      1.467160
      64A      1.473588    65A      1.485108    66A      1.513593
      67A      1.564809    68A      1.598451    69A      1.681242
      70A      1.687427    71A      1.695915    72A      1.705536
      73A      1.847798    74A      1.862513    75A      1.870579
      76A      1.886707    77A      1.894713    78A      1.906453
      79A      1.932520    80A      1.934139    81A      1.945707
      82A      1.950042    83A      1.952215    84A      1.956831
      85A      1.962254    86A      1.965964    87A      1.999774
      88A      2.026787    89A      2.098456    90A      2.114530
      91A      2.138731    92A      2.193941    93A      2.292410
      94A      2.300459    95A      2.311948    96A      2.324732
      97A      2.420299    98A      2.456969    99A      2.459199
     100A      2.469391   101A      2.557502   102A      2.574379
     103A      2.588757   104A      2.619754   105A      2.762091
     106A      2.777894   107A      2.791936   108A      2.798600
     109A      2.830296   110A      2.848697   111A      2.857932
     112A      2.871391   113A      2.942589   114A      2.952578
     115A      2.971544   116A      2.994719

    Final Occupation by Irrep:
              A
    DOCC [    18 ]

  @RHF Final Energy:  -158.46310110105441

   => Energetics <=

    Nuclear Repulsion Energy =            123.5596211585220914
    One-Electron Energy =                -456.2059625711219155
    Two-Electron Energy =                 174.1832403115454326
    Total Energy =                       -158.4631011010544057

Computation Completed

Properties will be evaluated at   0.000000,   0.000000,   0.000000 [a0]

Properties computed using the SCF density matrix

  Nuclear Dipole Moment: [e a0]
     X:    -0.0803      Y:     0.0116      Z:    -0.1059

  Electronic Dipole Moment: [e a0]
     X:     0.0711      Y:     0.0033      Z:     0.0949

  Dipole Moment: [e a0]
     X:    -0.0092      Y:     0.0149      Z:    -0.0110     Total:     0.0207

  Dipole Moment: [D]
     X:    -0.0235      Y:     0.0379      Z:    -0.0280     Total:     0.0526

*** tstop() called on ds3 at Mon Apr 27 14:03:58 2020
Module time:
	user time   =       7.96 seconds =       0.13 minutes
	system time =       2.94 seconds =       0.05 minutes
	total time  =         11 seconds =       0.18 minutes
Total time:
	user time   =       7.96 seconds =       0.13 minutes
	system time =       2.94 seconds =       0.05 minutes
	total time  =         11 seconds =       0.18 minutes
                                     G D M A

                                 by Anthony Stone

                           version 2.2.06, 22 June 2011

               Distributed Multipoles from Gaussian wavefunctions

Starting at 14:3:58 on 27 Apr 2020

Using SCF density matrix from file ./SSI/SSI-109VAL-164ILE-1-dimer.test.8669.fchk

                         Distributed Multipole Analysis

Standard DMA

Positions and radii in angstrom
Multipole moments in atomic units, ea_0^k for rank k

C          x =  1.345050  y =  1.240240  z = -1.120627 angstrom
           Maximum rank =  0   Radius =  0.650 angstrom
                   Q00  =  -0.241737

C          x =  2.333050  y =  0.870240  z = -0.013627 angstrom
           Maximum rank =  0   Radius =  0.650 angstrom
                   Q00  =  -0.234162

H          x =  1.735050  y =  2.082240  z = -1.695627 angstrom
           Maximum rank =  0   Radius =  0.325 angstrom
                   Q00  =   0.077419

H          x =  1.215050  y =  0.390240  z = -1.791627 angstrom
           Maximum rank =  0   Radius =  0.325 angstrom
                   Q00  =   0.076691

H          x =  0.371050  y =  1.518240  z = -0.730627 angstrom
           Maximum rank =  0   Radius =  0.325 angstrom
                   Q00  =   0.084308

H          x =  1.941050  y =  0.017240  z =  0.539373 angstrom
           Maximum rank =  0   Radius =  0.325 angstrom
                   Q00  =   0.079857

H          x =  2.467440  y =  1.715880  z =  0.676903 angstrom
           Maximum rank =  0   Radius =  0.325 angstrom
                   Q00  =   0.079263

H          x =  3.298330  y =  0.595470  z = -0.463897 angstrom
           Maximum rank =  0   Radius =  0.325 angstrom
                   Q00  =   0.079191

C          x = -1.563950  y = -0.362760  z =  0.710373 angstrom
           Maximum rank =  0   Radius =  0.650 angstrom
                   Q00  =  -0.238814

C          x = -2.106950  y = -1.748760  z =  0.433373 angstrom
           Maximum rank =  0   Radius =  0.650 angstrom
                   Q00  =  -0.239369

H          x = -0.922950  y = -0.069760  z = -0.114627 angstrom
           Maximum rank =  0   Radius =  0.325 angstrom
                   Q00  =   0.082087

H          x = -2.386950  y =  0.349240  z =  0.785373 angstrom
           Maximum rank =  0   Radius =  0.325 angstrom
                   Q00  =   0.082985

H          x = -0.988950  y = -0.367760  z =  1.631373 angstrom
           Maximum rank =  0   Radius =  0.325 angstrom
                   Q00  =   0.078456

H          x = -2.382950  y = -1.807760  z = -0.621627 angstrom
           Maximum rank =  0   Radius =  0.325 angstrom
                   Q00  =   0.073188

H          x = -3.026950  y = -1.849760  z =  0.999373 angstrom
           Maximum rank =  0   Radius =  0.325 angstrom
                   Q00  =   0.079390

H          x = -1.404920  y = -2.561110  z =  0.672633 angstrom
           Maximum rank =  0   Radius =  0.325 angstrom
                   Q00  =   0.081246

Total multipoles referred to origin at
           x =   0.000000,  y =    0.000000,  z =    0.000000 angstrom
                   Q00  =  -0.000000

Finished at 14:3:58 on 27 Apr 2020

  DMA results are available in the Python driver through the
	  variable('DMA DISTRIBUTED MULTIPOLES')
  and
	  variable('DMA TOTAL MULTIPOLES')
  commands.

    Psi4 stopped on: Monday, 27 April 2020 02:03PM
    Psi4 wall time for execution: 0:00:10.91

*** Psi4 exiting successfully. Buy a developer a beer!
