                               Psi4 1.3.2 release

  ==> Input File <==

--------------------------------------------------------------------------
import numpy as np
set {scf_type pk
basis cc-pvdz
d_convergence 10
gdma_switch   0
gdma_limit    0
gdma_origin   [ 0.0,  0.0,  0.0 ]
}
molecule test {
    units Angstrom
    -1 1
    --
    -1 1
    C                0.338639528535767     0.424011151774169    -0.181957663371828
    C                1.849639528535768     0.538011151774169     0.071042336628172
    C               -0.277360471464233     1.651011151774169    -0.848957663371828
    O                0.469639528535767     2.548011151774169    -1.300957663371827
    O               -1.523360471464232     1.706011151774169    -0.931957663371828
    H                0.176639528535767    -0.435988848225831    -0.834957663371828
    H               -0.177360471464233     0.221011151774169     0.757042336628172
    H                2.356639528535768     0.726011151774169    -0.875957663371827
    H                2.189639528535767    -0.433988848225831     0.426042336628172
    H                2.152269528535767     1.302091151774169     0.802212336628172
    C               -0.030360471464233    -2.909988848225831     1.091042336628173
    C               -0.823360471464233    -3.802988848225831     2.032042336628172
    H               -0.548360471464233    -2.792988848225831     0.142042336628173
    H                0.082639528535767    -1.929988848225831     1.552042336628173
    H                0.962639528535767    -3.325988848225831     0.919042336628172
    H               -1.815360471464233    -3.371988848225831     2.158042336628172
    H               -0.894550471464233    -4.816878848225831     1.611382336628173
    H               -0.349390471464233    -3.838388848225831     3.024062336628172

}
e, wfn = energy('scf', return_wfn=True)
gdma(wfn)
dmavals = variable('DMA DISTRIBUTED MULTIPOLES')
charges = np.array(dmavals)
print(charges)
np.save('SSI-024GLU-041LEU-1-dimer.npy', np.array(charges))--------------------------------------------------------------------------

*** tstart() called on ds3
*** at Tue Apr 28 20:48:51 2020

   => Loading Basis Set <=

    Name: CC-PVDZ
    Role: ORBITAL
    Keyword: BASIS
    atoms 1-3, 11-12  entry C          line   138 file /theoryfs2/ds/metcalf/miniconda2/envs/tf2gpu/share/psi4/basis/cc-pvdz.gbs
    atoms 4-5         entry O          line   198 file /theoryfs2/ds/metcalf/miniconda2/envs/tf2gpu/share/psi4/basis/cc-pvdz.gbs
    atoms 6-10, 13-18 entry H          line    22 file /theoryfs2/ds/metcalf/miniconda2/envs/tf2gpu/share/psi4/basis/cc-pvdz.gbs

         ---------------------------------------------------------
                                   SCF
               by Justin Turney, Rob Parrish, Andy Simmonett
                          and Daniel G. A. Smith
                              RHF Reference
                        1 Threads,    500 MiB Core
         ---------------------------------------------------------

  ==> Geometry <==

    Molecular point group: c1
    Full point group: C1

    Geometry (in Angstrom), charge = -1, multiplicity = 1:

       Center              X                  Y                   Z               Mass
    ------------   -----------------  -----------------  -----------------  -----------------
         C            0.338639528536     0.424011151774    -0.181957663372    12.000000000000
         C            1.849639528536     0.538011151774     0.071042336628    12.000000000000
         C           -0.277360471464     1.651011151774    -0.848957663372    12.000000000000
         O            0.469639528536     2.548011151774    -1.300957663372    15.994914619570
         O           -1.523360471464     1.706011151774    -0.931957663372    15.994914619570
         H            0.176639528536    -0.435988848226    -0.834957663372     1.007825032230
         H           -0.177360471464     0.221011151774     0.757042336628     1.007825032230
         H            2.356639528536     0.726011151774    -0.875957663372     1.007825032230
         H            2.189639528536    -0.433988848226     0.426042336628     1.007825032230
         H            2.152269528536     1.302091151774     0.802212336628     1.007825032230
         C           -0.030360471464    -2.909988848226     1.091042336628    12.000000000000
         C           -0.823360471464    -3.802988848226     2.032042336628    12.000000000000
         H           -0.548360471464    -2.792988848226     0.142042336628     1.007825032230
         H            0.082639528536    -1.929988848226     1.552042336628     1.007825032230
         H            0.962639528536    -3.325988848226     0.919042336628     1.007825032230
         H           -1.815360471464    -3.371988848226     2.158042336628     1.007825032230
         H           -0.894550471464    -4.816878848226     1.611382336628     1.007825032230
         H           -0.349390471464    -3.838388848226     3.024062336628     1.007825032230

  Running in c1 symmetry.

  Rotational constants: A =      0.14057  B =      0.02488  C =      0.02163 [cm^-1]
  Rotational constants: A =   4214.16193  B =    745.90267  C =    648.38778 [MHz]
  Nuclear repulsion =  283.868471906321929

  Charge       = -1
  Multiplicity = 1
  Electrons    = 58
  Nalpha       = 29
  Nbeta        = 29

  ==> Algorithm <==

  SCF Algorithm Type is PK.
  DIIS enabled.
  MOM disabled.
  Fractional occupation disabled.
  Guess Type is SAD.
  Energy threshold   = 1.00e-06
  Density threshold  = 1.00e-10
  Integral threshold = 0.00e+00

  ==> Primary Basis <==

  Basis Set: CC-PVDZ
    Blend: CC-PVDZ
    Number of shells: 75
    Number of basis function: 153
    Number of Cartesian functions: 160
    Spherical Harmonics?: true
    Max angular momentum: 2

  ==> Pre-Iterations <==

   -------------------------------------------------------
    Irrep   Nso     Nmo     Nalpha   Nbeta   Ndocc  Nsocc
   -------------------------------------------------------
     A        153     153       0       0       0       0
   -------------------------------------------------------
    Total     153     153      29      29      29       0
   -------------------------------------------------------

  ==> Integral Setup <==

  Using integral reordering PK algorithm.
  Sizing the integral batches needed.
  Building batch lookup table.
   Calculation information:
      Number of atoms:                  18
      Number of AO shells:              75
      Number of primitives:            209
      Number of atomic orbitals:       160
      Number of basis functions:       153

      Integral cutoff                 1.00e-12
      Number of threads:                 1

	Batch   1 pq = [       0,    9405] index = [             0,44231715] size =     44231715
	Batch   2 pq = [    9405,   11781] index = [      44231715,69401871] size =     25170156
  Task number: 7
  Buffer size: 11059200
  Buffer per thread: 2
  We computed 3222850 shell quartets total.
  Whereas there are 4062675 unique shell quartets.

  ==> DiskJK: Disk-Based J/K Matrices <==

    J tasked:                  Yes
    K tasked:                  Yes
    wK tasked:                  No
    Memory [MiB]:              375
    Schwarz Cutoff:          1E-12

    OpenMP threads:              1

  Minimum eigenvalue in the overlap matrix is 3.4005371198E-03.
  Using Symmetric Orthogonalization.

  SCF Guess: Superposition of Atomic Densities via on-the-fly atomic UHF.

  ==> Iterations <==

                        Total Energy        Delta E     RMS |[F,P]|

   @RHF iter SAD:  -343.86560335048381   -3.43866e+02   0.00000e+00
   @RHF iter   1:  -345.21745885765137   -1.35186e+00   4.92604e-03 DIIS
   @RHF iter   2:  -345.44039826271177   -2.22939e-01   2.71840e-03 DIIS
   @RHF iter   3:  -345.50542912745112   -6.50309e-02   4.27203e-04 DIIS
   @RHF iter   4:  -345.50845196620668   -3.02284e-03   1.67773e-04 DIIS
   @RHF iter   5:  -345.50889360111353   -4.41635e-04   2.45744e-05 DIIS
   @RHF iter   6:  -345.50890659738104   -1.29963e-05   7.06201e-06 DIIS
   @RHF iter   7:  -345.50890732478268   -7.27402e-07   2.80413e-06 DIIS
   @RHF iter   8:  -345.50890742667895   -1.01896e-07   7.27060e-07 DIIS
   @RHF iter   9:  -345.50890743600104   -9.32209e-09   2.09143e-07 DIIS
   @RHF iter  10:  -345.50890743711540   -1.11436e-09   4.56189e-08 DIIS
   @RHF iter  11:  -345.50890743718594   -7.05427e-11   1.11612e-08 DIIS
   @RHF iter  12:  -345.50890743719020   -4.26326e-12   4.16596e-09 DIIS
   @RHF iter  13:  -345.50890743719089   -6.82121e-13   1.73000e-09 DIIS
   @RHF iter  14:  -345.50890743719174   -8.52651e-13   6.78198e-10 DIIS
   @RHF iter  15:  -345.50890743719060    1.13687e-12   2.43417e-10 DIIS
   @RHF iter  16:  -345.50890743719026    3.41061e-13   8.22968e-11 DIIS
  Energy and wave function converged.

  ==> Post-Iterations <==

    Orbital Energies [Eh]
    ---------------------

    Doubly Occupied:

       1A    -20.254666     2A    -20.248719     3A    -11.137664
       4A    -11.122680     5A    -11.107840     6A    -11.069518
       7A    -11.052793     8A     -1.142729     9A     -1.028160
      10A     -0.934199    11A     -0.866415    12A     -0.748916
      13A     -0.700932    14A     -0.516251    15A     -0.512058
      16A     -0.501915    17A     -0.454444    18A     -0.426592
      19A     -0.413651    20A     -0.398850    21A     -0.396929
      22A     -0.383392    23A     -0.356730    24A     -0.354433
      25A     -0.323173    26A     -0.295149    27A     -0.176287
      28A     -0.163786    29A     -0.153475

    Virtual:

      30A      0.267910    31A      0.308095    32A      0.330525
      33A      0.334742    34A      0.355058    35A      0.362657
      36A      0.371297    37A      0.406813    38A      0.412754
      39A      0.423361    40A      0.458464    41A      0.485010
      42A      0.514377    43A      0.551697    44A      0.608389
      45A      0.682945    46A      0.689608    47A      0.694742
      48A      0.710334    49A      0.748254    50A      0.750565
      51A      0.760578    52A      0.790101    53A      0.849983
      54A      0.898145    55A      0.930003    56A      0.949296
      57A      0.970703    58A      0.974124    59A      0.984601
      60A      0.994228    61A      1.000267    62A      1.018673
      63A      1.020495    64A      1.042034    65A      1.050807
      66A      1.055158    67A      1.068247    68A      1.085042
      69A      1.087310    70A      1.107090    71A      1.113614
      72A      1.153017    73A      1.216706    74A      1.236746
      75A      1.252128    76A      1.304255    77A      1.319866
      78A      1.341232    79A      1.398659    80A      1.471398
      81A      1.503258    82A      1.534663    83A      1.567341
      84A      1.572522    85A      1.605183    86A      1.611872
      87A      1.650294    88A      1.664635    89A      1.666492
      90A      1.738669    91A      1.758896    92A      1.790650
      93A      1.839570    94A      1.847333    95A      1.867232
      96A      1.926782    97A      1.945837    98A      1.966634
      99A      2.002447   100A      2.012813   101A      2.032037
     102A      2.038768   103A      2.042110   104A      2.052077
     105A      2.056740   106A      2.061396   107A      2.094247
     108A      2.104925   109A      2.156463   110A      2.165371
     111A      2.180940   112A      2.187934   113A      2.195631
     114A      2.210010   115A      2.248407   116A      2.284861
     117A      2.355033   118A      2.391471   119A      2.400699
     120A      2.413125   121A      2.461575   122A      2.504932
     123A      2.532121   124A      2.550706   125A      2.556029
     126A      2.632293   127A      2.647900   128A      2.664146
     129A      2.680600   130A      2.706755   131A      2.779048
     132A      2.807772   133A      2.843064   134A      2.893097
     135A      2.923366   136A      2.937271   137A      2.942737
     138A      3.003440   139A      3.016815   140A      3.043843
     141A      3.049439   142A      3.089201   143A      3.115646
     144A      3.251453   145A      3.297344   146A      3.308309
     147A      3.369496   148A      3.646867   149A      3.787819
     150A      3.834411   151A      4.058958   152A      4.085515
     153A      4.215474

    Final Occupation by Irrep:
              A
    DOCC [    29 ]

  @RHF Final Energy:  -345.50890743719026

   => Energetics <=

    Nuclear Repulsion Energy =            283.8684719063219291
    One-Electron Energy =               -1044.2700647142282833
    Two-Electron Energy =                 414.8926853707160944
    Total Energy =                       -345.5089074371902598

Computation Completed

Properties will be evaluated at   0.000000,   0.000000,   0.000000 [a0]

Properties computed using the SCF density matrix

  Nuclear Dipole Moment: [e a0]
     X:     3.8718      Y:   -17.5075      Z:     9.0649

  Electronic Dipole Moment: [e a0]
     X:    -2.9558      Y:    13.5899      Z:    -7.0514

  Dipole Moment: [e a0]
     X:     0.9160      Y:    -3.9176      Z:     2.0135     Total:     4.4990

  Dipole Moment: [D]
     X:     2.3283      Y:    -9.9575      Z:     5.1179     Total:    11.4352

*** tstop() called on ds3 at Tue Apr 28 20:49:32 2020
Module time:
	user time   =      21.33 seconds =       0.36 minutes
	system time =       9.25 seconds =       0.15 minutes
	total time  =         41 seconds =       0.68 minutes
Total time:
	user time   =      21.33 seconds =       0.36 minutes
	system time =       9.25 seconds =       0.15 minutes
	total time  =         41 seconds =       0.68 minutes
                                     G D M A

                                 by Anthony Stone

                           version 2.2.06, 22 June 2011

               Distributed Multipoles from Gaussian wavefunctions

Starting at 20:49:32 on 28 Apr 2020

Using SCF density matrix from file ./SSI/SSI-024GLU-041LEU-1-dimer.test.29834.fchk

                         Distributed Multipole Analysis

Standard DMA

Positions and radii in angstrom
Multipole moments in atomic units, ea_0^k for rank k

C          x =  0.338640  y =  0.424011  z = -0.181958 angstrom
           Maximum rank =  0   Radius =  0.650 angstrom
                   Q00  =  -0.158529

C          x =  1.849640  y =  0.538011  z =  0.071042 angstrom
           Maximum rank =  0   Radius =  0.650 angstrom
                   Q00  =  -0.223530

C          x = -0.277360  y =  1.651011  z = -0.848958 angstrom
           Maximum rank =  0   Radius =  0.650 angstrom
                   Q00  =   1.049144

O          x =  0.469640  y =  2.548011  z = -1.300958 angstrom
           Maximum rank =  0   Radius =  0.650 angstrom
                   Q00  =  -0.968966

O          x = -1.523360  y =  1.706011  z = -0.931958 angstrom
           Maximum rank =  0   Radius =  0.650 angstrom
                   Q00  =  -0.949702

H          x =  0.176640  y = -0.435989  z = -0.834958 angstrom
           Maximum rank =  0   Radius =  0.325 angstrom
                   Q00  =   0.052409

H          x = -0.177360  y =  0.221011  z =  0.757042 angstrom
           Maximum rank =  0   Radius =  0.325 angstrom
                   Q00  =   0.031027

H          x =  2.356640  y =  0.726011  z = -0.875958 angstrom
           Maximum rank =  0   Radius =  0.325 angstrom
                   Q00  =   0.087064

H          x =  2.189640  y = -0.433989  z =  0.426042 angstrom
           Maximum rank =  0   Radius =  0.325 angstrom
                   Q00  =   0.010002

H          x =  2.152270  y =  1.302091  z =  0.802212 angstrom
           Maximum rank =  0   Radius =  0.325 angstrom
                   Q00  =   0.072500

C          x = -0.030360  y = -2.909989  z =  1.091042 angstrom
           Maximum rank =  0   Radius =  0.650 angstrom
                   Q00  =  -0.207047

C          x = -0.823360  y = -3.802989  z =  2.032042 angstrom
           Maximum rank =  0   Radius =  0.650 angstrom
                   Q00  =  -0.250357

H          x = -0.548360  y = -2.792989  z =  0.142042 angstrom
           Maximum rank =  0   Radius =  0.325 angstrom
                   Q00  =   0.091033

H          x =  0.082640  y = -1.929989  z =  1.552042 angstrom
           Maximum rank =  0   Radius =  0.325 angstrom
                   Q00  =   0.094121

H          x =  0.962640  y = -3.325989  z =  0.919042 angstrom
           Maximum rank =  0   Radius =  0.325 angstrom
                   Q00  =   0.062341

H          x = -1.815360  y = -3.371989  z =  2.158042 angstrom
           Maximum rank =  0   Radius =  0.325 angstrom
                   Q00  =   0.081161

H          x = -0.894550  y = -4.816879  z =  1.611382 angstrom
           Maximum rank =  0   Radius =  0.325 angstrom
                   Q00  =   0.061855

H          x = -0.349390  y = -3.838389  z =  3.024062 angstrom
           Maximum rank =  0   Radius =  0.325 angstrom
                   Q00  =   0.065476

Total multipoles referred to origin at
           x =   0.000000,  y =    0.000000,  z =    0.000000 angstrom
                   Q00  =  -1.000000

Finished at 20:49:32 on 28 Apr 2020

  DMA results are available in the Python driver through the
	  variable('DMA DISTRIBUTED MULTIPOLES')
  and
	  variable('DMA TOTAL MULTIPOLES')
  commands.

    Psi4 stopped on: Tuesday, 28 April 2020 08:49PM
    Psi4 wall time for execution: 0:00:40.35

*** Psi4 exiting successfully. Buy a developer a beer!
