                               Psi4 1.3.2 release

  ==> Input File <==

--------------------------------------------------------------------------
import numpy as np
set {scf_type pk
basis cc-pvdz
d_convergence 10
gdma_switch   0
gdma_limit    0
gdma_origin   [ 0.0,  0.0,  0.0 ]
}
molecule test {
    units Angstrom
    0 1
    --
    0 1
    C                2.943921726769025     0.193897482740630    -0.052041495396944
    C                4.313921726769024    -0.481102517259370     0.040958504603056
    H                2.177921726769025    -0.406102517259370     0.430958504603056
    H                2.974921726769025     1.172897482740630     0.423958504603056
    H                2.667921726769026     0.324897482740630    -1.099041495396944
    H                4.589921726769026    -0.577102517259370     1.091958504603056
    H                4.292265726769025    -1.480149517259369    -0.418861495396944
    H                5.064211726769026     0.150570482740630    -0.457091495396944
    C               -0.740078273230975     0.837897482740630     0.209958504603056
    C               -1.643078273230975     1.706897482740630     1.110958504603056
    C               -1.429078273230975    -0.392102517259370    -0.326041495396944
    O               -0.988078273230975    -1.035102517259370    -1.279041495396944
    N               -2.542078273230975    -0.776102517259370     0.255958504603056
    H               -0.391078273230975     1.411897482740630    -0.648041495396944
    H                0.117921726769025     0.514897482740630     0.796958504603056
    H               -1.993078273230975     1.131897482740630     1.961958504603056
    H               -2.513078273230975     2.040897482740630     0.541958504603056
    H               -3.016078273230975    -1.589102517259370    -0.111041495396944
    H               -2.915078273230975    -0.280102517259370     1.050958504603056
    H               -1.080921273230975     2.583833482740630     1.464458504603056

}
e, wfn = energy('scf', return_wfn=True)
gdma(wfn)
dmavals = variable('DMA DISTRIBUTED MULTIPOLES')
charges = np.array(dmavals)
print(charges)
np.save('SSI-049VAL-124GLN-1-dimer.npy', np.array(charges))--------------------------------------------------------------------------

*** tstart() called on ds3
*** at Tue Apr 28 13:22:43 2020

   => Loading Basis Set <=

    Name: CC-PVDZ
    Role: ORBITAL
    Keyword: BASIS
    atoms 1-2, 9-11  entry C          line   138 file /theoryfs2/ds/metcalf/miniconda2/envs/tf2gpu/share/psi4/basis/cc-pvdz.gbs
    atoms 3-8, 14-20 entry H          line    22 file /theoryfs2/ds/metcalf/miniconda2/envs/tf2gpu/share/psi4/basis/cc-pvdz.gbs
    atoms 12         entry O          line   198 file /theoryfs2/ds/metcalf/miniconda2/envs/tf2gpu/share/psi4/basis/cc-pvdz.gbs
    atoms 13         entry N          line   168 file /theoryfs2/ds/metcalf/miniconda2/envs/tf2gpu/share/psi4/basis/cc-pvdz.gbs

         ---------------------------------------------------------
                                   SCF
               by Justin Turney, Rob Parrish, Andy Simmonett
                          and Daniel G. A. Smith
                              RHF Reference
                        1 Threads,    500 MiB Core
         ---------------------------------------------------------

  ==> Geometry <==

    Molecular point group: c1
    Full point group: C1

    Geometry (in Angstrom), charge = 0, multiplicity = 1:

       Center              X                  Y                   Z               Mass
    ------------   -----------------  -----------------  -----------------  -----------------
         C            2.943921726769     0.193897482741    -0.052041495397    12.000000000000
         C            4.313921726769    -0.481102517259     0.040958504603    12.000000000000
         H            2.177921726769    -0.406102517259     0.430958504603     1.007825032230
         H            2.974921726769     1.172897482741     0.423958504603     1.007825032230
         H            2.667921726769     0.324897482741    -1.099041495397     1.007825032230
         H            4.589921726769    -0.577102517259     1.091958504603     1.007825032230
         H            4.292265726769    -1.480149517259    -0.418861495397     1.007825032230
         H            5.064211726769     0.150570482741    -0.457091495397     1.007825032230
         C           -0.740078273231     0.837897482741     0.209958504603    12.000000000000
         C           -1.643078273231     1.706897482741     1.110958504603    12.000000000000
         C           -1.429078273231    -0.392102517259    -0.326041495397    12.000000000000
         O           -0.988078273231    -1.035102517259    -1.279041495397    15.994914619570
         N           -2.542078273231    -0.776102517259     0.255958504603    14.003074004430
         H           -0.391078273231     1.411897482741    -0.648041495397     1.007825032230
         H            0.117921726769     0.514897482741     0.796958504603     1.007825032230
         H           -1.993078273231     1.131897482741     1.961958504603     1.007825032230
         H           -2.513078273231     2.040897482741     0.541958504603     1.007825032230
         H           -3.016078273231    -1.589102517259    -0.111041495397     1.007825032230
         H           -2.915078273231    -0.280102517259     1.050958504603     1.007825032230
         H           -1.080921273231     2.583833482741     1.464458504603     1.007825032230

  Running in c1 symmetry.

  Rotational constants: A =      0.11268  B =      0.02655  C =      0.02269 [cm^-1]
  Rotational constants: A =   3377.93441  B =    796.06489  C =    680.24695 [MHz]
  Nuclear repulsion =  296.997744898001145

  Charge       = 0
  Multiplicity = 1
  Electrons    = 58
  Nalpha       = 29
  Nbeta        = 29

  ==> Algorithm <==

  SCF Algorithm Type is PK.
  DIIS enabled.
  MOM disabled.
  Fractional occupation disabled.
  Guess Type is SAD.
  Energy threshold   = 1.00e-06
  Density threshold  = 1.00e-10
  Integral threshold = 0.00e+00

  ==> Primary Basis <==

  Basis Set: CC-PVDZ
    Blend: CC-PVDZ
    Number of shells: 81
    Number of basis function: 163
    Number of Cartesian functions: 170
    Spherical Harmonics?: true
    Max angular momentum: 2

  ==> Pre-Iterations <==

   -------------------------------------------------------
    Irrep   Nso     Nmo     Nalpha   Nbeta   Ndocc  Nsocc
   -------------------------------------------------------
     A        163     163       0       0       0       0
   -------------------------------------------------------
    Total     163     163      29      29      29       0
   -------------------------------------------------------

  ==> Integral Setup <==

  Using integral reordering PK algorithm.
  Sizing the integral batches needed.
  Building batch lookup table.
   Calculation information:
      Number of atoms:                  20
      Number of AO shells:              81
      Number of primitives:            219
      Number of atomic orbitals:       170
      Number of basis functions:       163

      Integral cutoff                 1.00e-12
      Number of threads:                 1

	Batch   1 pq = [       0,    9405] index = [             0,44231715] size =     44231715
	Batch   2 pq = [    9405,   13366] index = [      44231715,89331661] size =     45099946
  Task number: 9
  Buffer size: 11059200
  Buffer per thread: 2
  We computed 4411002 shell quartets total.
  Whereas there are 5516181 unique shell quartets.

  ==> DiskJK: Disk-Based J/K Matrices <==

    J tasked:                  Yes
    K tasked:                  Yes
    wK tasked:                  No
    Memory [MiB]:              375
    Schwarz Cutoff:          1E-12

    OpenMP threads:              1

  Minimum eigenvalue in the overlap matrix is 2.9354731512E-03.
  Using Symmetric Orthogonalization.

  SCF Guess: Superposition of Atomic Densities via on-the-fly atomic UHF.

  ==> Iterations <==

                        Total Energy        Delta E     RMS |[F,P]|

   @RHF iter SAD:  -325.01148807233517   -3.25011e+02   0.00000e+00
   @RHF iter   1:  -326.00571395144277   -9.94226e-01   4.10360e-03 DIIS
   @RHF iter   2:  -326.20329183735828   -1.97578e-01   2.22817e-03 DIIS
   @RHF iter   3:  -326.25488850661651   -5.15967e-02   4.79637e-04 DIIS
   @RHF iter   4:  -326.25859238538783   -3.70388e-03   2.02012e-04 DIIS
   @RHF iter   5:  -326.25925055975404   -6.58174e-04   2.99924e-05 DIIS
   @RHF iter   6:  -326.25928288125169   -3.23215e-05   1.25325e-05 DIIS
   @RHF iter   7:  -326.25928727743877   -4.39619e-06   5.22920e-06 DIIS
   @RHF iter   8:  -326.25928832583736   -1.04840e-06   1.92781e-06 DIIS
   @RHF iter   9:  -326.25928847781302   -1.51976e-07   4.08958e-07 DIIS
   @RHF iter  10:  -326.25928848338418   -5.57117e-09   1.32911e-07 DIIS
   @RHF iter  11:  -326.25928848386070   -4.76518e-10   3.50326e-08 DIIS
   @RHF iter  12:  -326.25928848390186   -4.11546e-11   8.75645e-09 DIIS
   @RHF iter  13:  -326.25928848390316   -1.30740e-12   1.72936e-09 DIIS
   @RHF iter  14:  -326.25928848390248    6.82121e-13   6.16351e-10 DIIS
   @RHF iter  15:  -326.25928848390407   -1.59162e-12   2.09967e-10 DIIS
   @RHF iter  16:  -326.25928848390362    4.54747e-13   5.47142e-11 DIIS
  Energy and wave function converged.

  ==> Post-Iterations <==

    Orbital Energies [Eh]
    ---------------------

    Doubly Occupied:

       1A    -20.494387     2A    -15.584492     3A    -11.339137
       4A    -11.243861     5A    -11.241859     6A    -11.215203
       7A    -11.211545     8A     -1.363753     9A     -1.215050
      10A     -1.055166    11A     -1.013135    12A     -0.899147
      13A     -0.833035    14A     -0.791623    15A     -0.736597
      16A     -0.649098    17A     -0.631949    18A     -0.593506
      19A     -0.592158    20A     -0.588304    21A     -0.557579
      22A     -0.541484    23A     -0.518742    24A     -0.506329
      25A     -0.492970    26A     -0.482227    27A     -0.478974
      28A     -0.401925    29A     -0.396098

    Virtual:

      30A      0.164319    31A      0.189011    32A      0.202499
      33A      0.208862    34A      0.220937    35A      0.232296
      36A      0.244028    37A      0.255759    38A      0.261136
      39A      0.278867    40A      0.283579    41A      0.290662
      42A      0.298408    43A      0.340595    44A      0.371846
      45A      0.393656    46A      0.422682    47A      0.477758
      48A      0.557779    49A      0.578885    50A      0.598277
      51A      0.603503    52A      0.607134    53A      0.635520
      54A      0.677052    55A      0.688327    56A      0.699880
      57A      0.713614    58A      0.741374    59A      0.754180
      60A      0.798763    61A      0.815744    62A      0.828238
      63A      0.865671    64A      0.881019    65A      0.889921
      66A      0.891403    67A      0.897025    68A      0.897803
      69A      0.900117    70A      0.911258    71A      0.921892
      72A      0.926850    73A      0.938508    74A      0.953413
      75A      0.971974    76A      0.990789    77A      1.019057
      78A      1.052740    79A      1.105162    80A      1.115994
      81A      1.126340    82A      1.133278    83A      1.148776
      84A      1.235939    85A      1.298902    86A      1.302827
      87A      1.364769    88A      1.378923    89A      1.396820
      90A      1.420596    91A      1.459704    92A      1.477987
      93A      1.486919    94A      1.497593    95A      1.585961
      96A      1.610772    97A      1.651165    98A      1.663419
      99A      1.684941   100A      1.701351   101A      1.741365
     102A      1.761832   103A      1.834548   104A      1.844906
     105A      1.853122   106A      1.871823   107A      1.879657
     108A      1.892846   109A      1.901193   110A      1.924114
     111A      1.924280   112A      1.944500   113A      1.952934
     114A      1.958296   115A      1.960923   116A      1.966521
     117A      1.973294   118A      1.992979   119A      2.008713
     120A      2.025265   121A      2.041972   122A      2.081548
     123A      2.096415   124A      2.100196   125A      2.119407
     126A      2.167509   127A      2.222574   128A      2.303008
     129A      2.312103   130A      2.339067   131A      2.353588
     132A      2.369160   133A      2.409825   134A      2.459485
     135A      2.471988   136A      2.481394   137A      2.522039
     138A      2.546589   139A      2.563140   140A      2.568634
     141A      2.575873   142A      2.608988   143A      2.636554
     144A      2.718204   145A      2.757021   146A      2.767077
     147A      2.794900   148A      2.846151   149A      2.856184
     150A      2.865273   151A      2.898656   152A      2.900086
     153A      2.950994   154A      2.963401   155A      2.978019
     156A      3.030210   157A      3.101189   158A      3.146738
     159A      3.307531   160A      3.518941   161A      3.529975
     162A      3.878553   163A      3.925623

    Final Occupation by Irrep:
              A
    DOCC [    29 ]

  @RHF Final Energy:  -326.25928848390362

   => Energetics <=

    Nuclear Repulsion Energy =            296.9977448980011445
    One-Electron Energy =               -1031.1754021208062113
    Two-Electron Energy =                 407.9183687389013926
    Total Energy =                       -326.2592884839036174

Computation Completed

Properties will be evaluated at   0.000000,   0.000000,   0.000000 [a0]

Properties computed using the SCF density matrix

  Nuclear Dipole Moment: [e a0]
     X:     9.3546      Y:     4.6839      Z:     4.7077

  Electronic Dipole Moment: [e a0]
     X:   -10.1913      Y:    -3.9876      Z:    -3.4008

  Dipole Moment: [e a0]
     X:    -0.8367      Y:     0.6963      Z:     1.3069     Total:     1.7009

  Dipole Moment: [D]
     X:    -2.1267      Y:     1.7698      Z:     3.3218     Total:     4.3232

*** tstop() called on ds3 at Tue Apr 28 13:23:39 2020
Module time:
	user time   =      29.10 seconds =       0.49 minutes
	system time =      12.83 seconds =       0.21 minutes
	total time  =         56 seconds =       0.93 minutes
Total time:
	user time   =      29.10 seconds =       0.49 minutes
	system time =      12.83 seconds =       0.21 minutes
	total time  =         56 seconds =       0.93 minutes
                                     G D M A

                                 by Anthony Stone

                           version 2.2.06, 22 June 2011

               Distributed Multipoles from Gaussian wavefunctions

Starting at 13:23:39 on 28 Apr 2020

Using SCF density matrix from file ./SSI/SSI-049VAL-124GLN-1-dimer.test.15974.fchk

                         Distributed Multipole Analysis

Standard DMA

Positions and radii in angstrom
Multipole moments in atomic units, ea_0^k for rank k

C          x =  2.943922  y =  0.193897  z = -0.052041 angstrom
           Maximum rank =  0   Radius =  0.650 angstrom
                   Q00  =  -0.241415

C          x =  4.313922  y = -0.481103  z =  0.040959 angstrom
           Maximum rank =  0   Radius =  0.650 angstrom
                   Q00  =  -0.233521

H          x =  2.177922  y = -0.406103  z =  0.430959 angstrom
           Maximum rank =  0   Radius =  0.325 angstrom
                   Q00  =   0.078157

H          x =  2.974922  y =  1.172897  z =  0.423959 angstrom
           Maximum rank =  0   Radius =  0.325 angstrom
                   Q00  =   0.069895

H          x =  2.667922  y =  0.324897  z = -1.099041 angstrom
           Maximum rank =  0   Radius =  0.325 angstrom
                   Q00  =   0.089238

H          x =  4.589922  y = -0.577103  z =  1.091959 angstrom
           Maximum rank =  0   Radius =  0.325 angstrom
                   Q00  =   0.074735

H          x =  4.292266  y = -1.480150  z = -0.418861 angstrom
           Maximum rank =  0   Radius =  0.325 angstrom
                   Q00  =   0.085409

H          x =  5.064212  y =  0.150570  z = -0.457091 angstrom
           Maximum rank =  0   Radius =  0.325 angstrom
                   Q00  =   0.077547

C          x = -0.740078  y =  0.837897  z =  0.209959 angstrom
           Maximum rank =  0   Radius =  0.650 angstrom
                   Q00  =  -0.097459

C          x = -1.643078  y =  1.706897  z =  1.110959 angstrom
           Maximum rank =  0   Radius =  0.650 angstrom
                   Q00  =  -0.275534

C          x = -1.429078  y = -0.392103  z = -0.326041 angstrom
           Maximum rank =  0   Radius =  0.650 angstrom
                   Q00  =   0.821354

O          x = -0.988078  y = -1.035103  z = -1.279041 angstrom
           Maximum rank =  0   Radius =  0.650 angstrom
                   Q00  =  -0.811562

N          x = -2.542078  y = -0.776103  z =  0.255959 angstrom
           Maximum rank =  0   Radius =  0.650 angstrom
                   Q00  =  -0.537664

H          x = -0.391078  y =  1.411897  z = -0.648041 angstrom
           Maximum rank =  0   Radius =  0.325 angstrom
                   Q00  =   0.102831

H          x =  0.117922  y =  0.514897  z =  0.796959 angstrom
           Maximum rank =  0   Radius =  0.325 angstrom
                   Q00  =   0.107733

H          x = -1.993078  y =  1.131897  z =  1.961959 angstrom
           Maximum rank =  0   Radius =  0.325 angstrom
                   Q00  =   0.067594

H          x = -2.513078  y =  2.040897  z =  0.541959 angstrom
           Maximum rank =  0   Radius =  0.325 angstrom
                   Q00  =   0.084661

H          x = -3.016078  y = -1.589103  z = -0.111041 angstrom
           Maximum rank =  0   Radius =  0.325 angstrom
                   Q00  =   0.222455

H          x = -2.915078  y = -0.280103  z =  1.050959 angstrom
           Maximum rank =  0   Radius =  0.325 angstrom
                   Q00  =   0.205837

H          x = -1.080921  y =  2.583833  z =  1.464459 angstrom
           Maximum rank =  0   Radius =  0.325 angstrom
                   Q00  =   0.109709

Total multipoles referred to origin at
           x =   0.000000,  y =    0.000000,  z =    0.000000 angstrom
                   Q00  =  -0.000000

Finished at 13:23:39 on 28 Apr 2020

  DMA results are available in the Python driver through the
	  variable('DMA DISTRIBUTED MULTIPOLES')
  and
	  variable('DMA TOTAL MULTIPOLES')
  commands.

    Psi4 stopped on: Tuesday, 28 April 2020 01:23PM
    Psi4 wall time for execution: 0:00:55.88

*** Psi4 exiting successfully. Buy a developer a beer!
