                               Psi4 1.3.2 release

  ==> Input File <==

--------------------------------------------------------------------------
import numpy as np
set {scf_type pk
basis cc-pvdz
d_convergence 10
gdma_switch   0
gdma_limit    0
gdma_origin   [ 0.0,  0.0,  0.0 ]
}
molecule test {
    units Angstrom
    1 1
    --
    1 1
    C               -2.592857355108032    -1.303821521421748     1.442500628427932
    O               -1.631857355108032    -0.270821521421748     1.336500628427932
    H               -1.120857355108032    -0.448821521421748     2.142500628427932
    H               -2.737857355108032    -1.557821521421748     2.491500628427932
    H               -3.551077355108032    -0.977381521421748     1.012100628427932
    H               -2.182877355108032    -2.171601521421748     0.905030628427932
    C               -0.057857355108032     1.444178478578252    -1.976499371572068
    C                1.130142644891968     0.071178478578252    -0.267499371572068
    N                0.028142644891968     0.637178478578252    -0.754499371572068
    N                2.276142644891967     0.171178478578252    -0.905499371572068
    N                1.076142644891968    -0.594821521421748     0.852500628427932
    H               -0.816857355108032     0.526178478578252    -0.203499371572068
    H                2.382142644891968     0.729178478578252    -1.723499371572068
    H                3.124142644891968    -0.247821521421748    -0.493499371572068
    H                0.208142644891968    -1.026821521421748     1.081500628427932
    H                1.940142644891968    -1.004821521421748     1.230500628427932
    H                0.886142644891968     1.441178478578252    -2.521499371572068
    H               -0.262857355108032     2.485178478578252    -1.710499371572068
    H               -0.833227355108032     1.065858478578252    -2.658909371572068

}
e, wfn = energy('scf', return_wfn=True)
gdma(wfn)
dmavals = variable('DMA DISTRIBUTED MULTIPOLES')
charges = np.array(dmavals)
print(charges)
np.save('SSI-062THR-099ARG-1-dimer.npy', np.array(charges))--------------------------------------------------------------------------

*** tstart() called on ds3
*** at Tue Apr 28 10:36:29 2020

   => Loading Basis Set <=

    Name: CC-PVDZ
    Role: ORBITAL
    Keyword: BASIS
    atoms 1, 7-8     entry C          line   138 file /theoryfs2/ds/metcalf/miniconda2/envs/tf2gpu/share/psi4/basis/cc-pvdz.gbs
    atoms 2          entry O          line   198 file /theoryfs2/ds/metcalf/miniconda2/envs/tf2gpu/share/psi4/basis/cc-pvdz.gbs
    atoms 3-6, 12-19 entry H          line    22 file /theoryfs2/ds/metcalf/miniconda2/envs/tf2gpu/share/psi4/basis/cc-pvdz.gbs
    atoms 9-11       entry N          line   168 file /theoryfs2/ds/metcalf/miniconda2/envs/tf2gpu/share/psi4/basis/cc-pvdz.gbs

         ---------------------------------------------------------
                                   SCF
               by Justin Turney, Rob Parrish, Andy Simmonett
                          and Daniel G. A. Smith
                              RHF Reference
                        1 Threads,    500 MiB Core
         ---------------------------------------------------------

  ==> Geometry <==

    Molecular point group: c1
    Full point group: C1

    Geometry (in Angstrom), charge = 1, multiplicity = 1:

       Center              X                  Y                   Z               Mass
    ------------   -----------------  -----------------  -----------------  -----------------
         C           -2.592857355108    -1.303821521422     1.442500628428    12.000000000000
         O           -1.631857355108    -0.270821521422     1.336500628428    15.994914619570
         H           -1.120857355108    -0.448821521422     2.142500628428     1.007825032230
         H           -2.737857355108    -1.557821521422     2.491500628428     1.007825032230
         H           -3.551077355108    -0.977381521422     1.012100628428     1.007825032230
         H           -2.182877355108    -2.171601521422     0.905030628428     1.007825032230
         C           -0.057857355108     1.444178478578    -1.976499371572    12.000000000000
         C            1.130142644892     0.071178478578    -0.267499371572    12.000000000000
         N            0.028142644892     0.637178478578    -0.754499371572    14.003074004430
         N            2.276142644892     0.171178478578    -0.905499371572    14.003074004430
         N            1.076142644892    -0.594821521422     0.852500628428    14.003074004430
         H           -0.816857355108     0.526178478578    -0.203499371572     1.007825032230
         H            2.382142644892     0.729178478578    -1.723499371572     1.007825032230
         H            3.124142644892    -0.247821521422    -0.493499371572     1.007825032230
         H            0.208142644892    -1.026821521422     1.081500628428     1.007825032230
         H            1.940142644892    -1.004821521422     1.230500628428     1.007825032230
         H            0.886142644892     1.441178478578    -2.521499371572     1.007825032230
         H           -0.262857355108     2.485178478578    -1.710499371572     1.007825032230
         H           -0.833227355108     1.065858478578    -2.658909371572     1.007825032230

  Running in c1 symmetry.

  Rotational constants: A =      0.12341  B =      0.04279  C =      0.03309 [cm^-1]
  Rotational constants: A =   3699.61115  B =   1282.83746  C =    992.10634 [MHz]
  Nuclear repulsion =  335.743638354196094

  Charge       = 1
  Multiplicity = 1
  Electrons    = 58
  Nalpha       = 29
  Nbeta        = 29

  ==> Algorithm <==

  SCF Algorithm Type is PK.
  DIIS enabled.
  MOM disabled.
  Fractional occupation disabled.
  Guess Type is SAD.
  Energy threshold   = 1.00e-06
  Density threshold  = 1.00e-10
  Integral threshold = 0.00e+00

  ==> Primary Basis <==

  Basis Set: CC-PVDZ
    Blend: CC-PVDZ
    Number of shells: 78
    Number of basis function: 158
    Number of Cartesian functions: 165
    Spherical Harmonics?: true
    Max angular momentum: 2

  ==> Pre-Iterations <==

   -------------------------------------------------------
    Irrep   Nso     Nmo     Nalpha   Nbeta   Ndocc  Nsocc
   -------------------------------------------------------
     A        158     158       0       0       0       0
   -------------------------------------------------------
    Total     158     158      29      29      29       0
   -------------------------------------------------------

  ==> Integral Setup <==

  Using integral reordering PK algorithm.
  Sizing the integral batches needed.
  Building batch lookup table.
   Calculation information:
      Number of atoms:                  19
      Number of AO shells:              78
      Number of primitives:            214
      Number of atomic orbitals:       165
      Number of basis functions:       158

      Integral cutoff                 1.00e-12
      Number of threads:                 1

	Batch   1 pq = [       0,    9405] index = [             0,44231715] size =     44231715
	Batch   2 pq = [    9405,   12561] index = [      44231715,78895641] size =     34663926
  Task number: 8
  Buffer size: 11059200
  Buffer per thread: 2
  We computed 4471958 shell quartets total.
  Whereas there are 4747821 unique shell quartets.

  ==> DiskJK: Disk-Based J/K Matrices <==

    J tasked:                  Yes
    K tasked:                  Yes
    wK tasked:                  No
    Memory [MiB]:              375
    Schwarz Cutoff:          1E-12

    OpenMP threads:              1

  Minimum eigenvalue in the overlap matrix is 3.8408432916E-03.
  Using Symmetric Orthogonalization.

  SCF Guess: Superposition of Atomic Densities via on-the-fly atomic UHF.

  ==> Iterations <==

                        Total Energy        Delta E     RMS |[F,P]|

   @RHF iter SAD:  -358.05269983176282   -3.58053e+02   0.00000e+00
   @RHF iter   1:  -358.45711302448206   -4.04413e-01   3.55337e-03 DIIS
   @RHF iter   2:  -358.60865785497214   -1.51545e-01   1.44798e-03 DIIS
   @RHF iter   3:  -358.63076744740442   -2.21096e-02   3.80707e-04 DIIS
   @RHF iter   4:  -358.63308470666755   -2.31726e-03   9.81234e-05 DIIS
   @RHF iter   5:  -358.63321969520234   -1.34989e-04   2.62628e-05 DIIS
   @RHF iter   6:  -358.63323427141779   -1.45762e-05   7.40216e-06 DIIS
   @RHF iter   7:  -358.63323560796374   -1.33655e-06   1.94213e-06 DIIS
   @RHF iter   8:  -358.63323571294677   -1.04983e-07   6.01094e-07 DIIS
   @RHF iter   9:  -358.63323572066156   -7.71479e-09   9.85645e-08 DIIS
   @RHF iter  10:  -358.63323572094373   -2.82171e-10   3.57132e-08 DIIS
   @RHF iter  11:  -358.63323572097624   -3.25144e-11   1.06177e-08 DIIS
   @RHF iter  12:  -358.63323572097823   -1.98952e-12   3.56973e-09 DIIS
   @RHF iter  13:  -358.63323572097931   -1.08002e-12   1.14990e-09 DIIS
   @RHF iter  14:  -358.63323572097914    1.70530e-13   3.60472e-10 DIIS
   @RHF iter  15:  -358.63323572097772    1.42109e-12   8.99556e-11 DIIS
  Energy and wave function converged.

  ==> Post-Iterations <==

    Orbital Energies [Eh]
    ---------------------

    Doubly Occupied:

       1A    -20.722263     2A    -15.777058     3A    -15.769518
       4A    -15.758830     5A    -11.572029     6A    -11.427097
       7A    -11.412897     8A     -1.536345     9A     -1.524485
      10A     -1.383436    11A     -1.379411    12A     -1.123937
      13A     -1.060936    14A     -1.022281    15A     -0.963814
      16A     -0.925595    17A     -0.862297    18A     -0.850293
      19A     -0.830971    20A     -0.801635    21A     -0.778257
      22A     -0.766866    23A     -0.738329    24A     -0.729743
      25A     -0.703461    26A     -0.650129    27A     -0.609571
      28A     -0.599071    29A     -0.563071

    Virtual:

      30A      0.003586    31A      0.031956    32A      0.037714
      33A      0.042181    34A      0.081925    35A      0.088116
      36A      0.093612    37A      0.120124    38A      0.134099
      39A      0.136964    40A      0.156489    41A      0.172376
      42A      0.211777    43A      0.220419    44A      0.237457
      45A      0.302420    46A      0.350148    47A      0.364449
      48A      0.438657    49A      0.443287    50A      0.491231
      51A      0.513324    52A      0.527520    53A      0.537466
      54A      0.541286    55A      0.568794    56A      0.572639
      57A      0.582563    58A      0.594786    59A      0.665008
      60A      0.687286    61A      0.697990    62A      0.712924
      63A      0.716319    64A      0.730001    65A      0.755007
      66A      0.765377    67A      0.768471    68A      0.778246
      69A      0.805494    70A      0.819406    71A      0.838357
      72A      0.903879    73A      0.905364    74A      0.916168
      75A      0.933350    76A      0.981825    77A      1.001417
      78A      1.031784    79A      1.042950    80A      1.087124
      81A      1.111639    82A      1.138247    83A      1.166123
      84A      1.185855    85A      1.206563    86A      1.235566
      87A      1.248784    88A      1.313250    89A      1.361031
      90A      1.390691    91A      1.411351    92A      1.444782
      93A      1.481359    94A      1.518271    95A      1.527361
      96A      1.544019    97A      1.547643    98A      1.556658
      99A      1.586761   100A      1.643873   101A      1.659200
     102A      1.707823   103A      1.716477   104A      1.721140
     105A      1.743808   106A      1.749862   107A      1.775204
     108A      1.787104   109A      1.801673   110A      1.811165
     111A      1.830587   112A      1.845285   113A      1.852824
     114A      1.898988   115A      1.905256   116A      1.946155
     117A      1.988790   118A      2.020165   119A      2.053423
     120A      2.098084   121A      2.115575   122A      2.148161
     123A      2.161348   124A      2.205474   125A      2.230337
     126A      2.262077   127A      2.262565   128A      2.291965
     129A      2.304371   130A      2.314237   131A      2.339350
     132A      2.366670   133A      2.428915   134A      2.465192
     135A      2.522239   136A      2.597212   137A      2.608468
     138A      2.617675   139A      2.633018   140A      2.639866
     141A      2.652827   142A      2.670311   143A      2.713733
     144A      2.772668   145A      2.794965   146A      2.835076
     147A      2.897956   148A      2.975667   149A      3.058365
     150A      3.114200   151A      3.136406   152A      3.178667
     153A      3.198620   154A      3.352710   155A      3.379183
     156A      3.594318   157A      3.652480   158A      3.956418

    Final Occupation by Irrep:
              A
    DOCC [    29 ]

  @RHF Final Energy:  -358.63323572097772

   => Energetics <=

    Nuclear Repulsion Energy =            335.7436383541960936
    One-Electron Energy =               -1143.0664936720716014
    Two-Electron Energy =                 448.6896195968978418
    Total Energy =                       -358.6332357209777228

Computation Completed

Properties will be evaluated at   0.000000,   0.000000,   0.000000 [a0]

Properties computed using the SCF density matrix

  Nuclear Dipole Moment: [e a0]
     X:    -2.7972      Y:    -1.1152      Z:    -0.4115

  Electronic Dipole Moment: [e a0]
     X:     4.2107      Y:     0.6198      Z:     0.3610

  Dipole Moment: [e a0]
     X:     1.4136      Y:    -0.4953      Z:    -0.0505     Total:     1.4987

  Dipole Moment: [D]
     X:     3.5930      Y:    -1.2590      Z:    -0.1284     Total:     3.8093

*** tstop() called on ds3 at Tue Apr 28 10:37:08 2020
Module time:
	user time   =      29.22 seconds =       0.49 minutes
	system time =      11.12 seconds =       0.19 minutes
	total time  =         39 seconds =       0.65 minutes
Total time:
	user time   =      29.22 seconds =       0.49 minutes
	system time =      11.12 seconds =       0.19 minutes
	total time  =         39 seconds =       0.65 minutes
                                     G D M A

                                 by Anthony Stone

                           version 2.2.06, 22 June 2011

               Distributed Multipoles from Gaussian wavefunctions

Starting at 10:37:8 on 28 Apr 2020

Using SCF density matrix from file ./SSI/SSI-062THR-099ARG-1-dimer.test.1894.fchk

                         Distributed Multipole Analysis

Standard DMA

Positions and radii in angstrom
Multipole moments in atomic units, ea_0^k for rank k

C          x = -2.592857  y = -1.303822  z =  1.442501 angstrom
           Maximum rank =  0   Radius =  0.650 angstrom
                   Q00  =  -0.058819

O          x = -1.631857  y = -0.270822  z =  1.336501 angstrom
           Maximum rank =  0   Radius =  0.650 angstrom
                   Q00  =  -0.609627

H          x = -1.120857  y = -0.448822  z =  2.142501 angstrom
           Maximum rank =  0   Radius =  0.325 angstrom
                   Q00  =   0.402228

H          x = -2.737857  y = -1.557822  z =  2.491501 angstrom
           Maximum rank =  0   Radius =  0.325 angstrom
                   Q00  =   0.106947

H          x = -3.551077  y = -0.977382  z =  1.012101 angstrom
           Maximum rank =  0   Radius =  0.325 angstrom
                   Q00  =   0.139810

H          x = -2.182877  y = -2.171602  z =  0.905031 angstrom
           Maximum rank =  0   Radius =  0.325 angstrom
                   Q00  =   0.080781

C          x = -0.057857  y =  1.444178  z = -1.976499 angstrom
           Maximum rank =  0   Radius =  0.650 angstrom
                   Q00  =  -0.115700

C          x =  1.130143  y =  0.071178  z = -0.267499 angstrom
           Maximum rank =  0   Radius =  0.650 angstrom
                   Q00  =   1.079469

N          x =  0.028143  y =  0.637178  z = -0.754499 angstrom
           Maximum rank =  0   Radius =  0.650 angstrom
                   Q00  =  -0.525883

N          x =  2.276143  y =  0.171178  z = -0.905499 angstrom
           Maximum rank =  0   Radius =  0.650 angstrom
                   Q00  =  -0.591094

N          x =  1.076143  y = -0.594822  z =  0.852501 angstrom
           Maximum rank =  0   Radius =  0.650 angstrom
                   Q00  =  -0.573531

H          x = -0.816857  y =  0.526178  z = -0.203499 angstrom
           Maximum rank =  0   Radius =  0.325 angstrom
                   Q00  =   0.268388

H          x =  2.382143  y =  0.729178  z = -1.723499 angstrom
           Maximum rank =  0   Radius =  0.325 angstrom
                   Q00  =   0.261188

H          x =  3.124143  y = -0.247822  z = -0.493499 angstrom
           Maximum rank =  0   Radius =  0.325 angstrom
                   Q00  =   0.262468

H          x =  0.208143  y = -1.026822  z =  1.081501 angstrom
           Maximum rank =  0   Radius =  0.325 angstrom
                   Q00  =   0.240860

H          x =  1.940143  y = -1.004822  z =  1.230501 angstrom
           Maximum rank =  0   Radius =  0.325 angstrom
                   Q00  =   0.251942

H          x =  0.886143  y =  1.441178  z = -2.521499 angstrom
           Maximum rank =  0   Radius =  0.325 angstrom
                   Q00  =   0.100891

H          x = -0.262857  y =  2.485178  z = -1.710499 angstrom
           Maximum rank =  0   Radius =  0.325 angstrom
                   Q00  =   0.136088

H          x = -0.833227  y =  1.065858  z = -2.658909 angstrom
           Maximum rank =  0   Radius =  0.325 angstrom
                   Q00  =   0.143595

Total multipoles referred to origin at
           x =   0.000000,  y =    0.000000,  z =    0.000000 angstrom
                   Q00  =   1.000000

Finished at 10:37:8 on 28 Apr 2020

  DMA results are available in the Python driver through the
	  variable('DMA DISTRIBUTED MULTIPOLES')
  and
	  variable('DMA TOTAL MULTIPOLES')
  commands.

    Psi4 stopped on: Tuesday, 28 April 2020 10:37AM
    Psi4 wall time for execution: 0:00:39.39

*** Psi4 exiting successfully. Buy a developer a beer!
