                               Psi4 1.3.2 release

  ==> Input File <==

--------------------------------------------------------------------------
import numpy as np
set {scf_type pk
basis cc-pvdz
d_convergence 10
gdma_switch   0
gdma_limit    0
gdma_origin   [ 0.0,  0.0,  0.0 ]
}
molecule test {
    units Angstrom
    0 1
    --
    0 1
    C               -2.208407297702842     0.520522141035282    -0.204869261056013
    C               -2.984407297702842     1.667522141035282     0.487130738943987
    C               -0.701407297702843     0.582522141035282    -0.003869261056013
    C                0.086592702297157     1.365522141035282    -0.845869261056013
    C               -0.101407297702843    -0.013477858964718     1.110130738943987
    C                1.441592702297158     1.535522141035282    -0.606869261056013
    C                1.254592702297157     0.179522141035282     1.381130738943987
    C                2.029592702297157     0.932522141035282     0.500130738943987
    O                3.348592702297158     1.147522141035282     0.770130738943987
    H               -2.560407297702842    -0.422477858964718     0.215130738943987
    H               -2.439407297702842     0.499522141035282    -1.267869261056013
    H               -4.012407297702842     1.338522141035282     0.643130738943987
    H               -0.360407297702843     1.864522141035282    -1.692869261056013
    H               -0.700407297702843    -0.610477858964718     1.776130738943987
    H                2.029592702297157     2.145522141035282    -1.276869261056013
    H                1.711592702297157    -0.260477858964718     2.254130738943987
    H                3.773592702297158     1.645522141035282     0.069130738943987
    H               -3.004588297702843     2.589122141035282    -0.113069261056013
    H               -2.544474297702843     1.876702141035282     1.473386738943987
    C               -1.067407297702843    -2.948477858964718    -0.961869261056013
    C               -1.009407297702843    -4.395477858964718    -1.452869261056013
    H               -2.097407297702843    -2.595477858964718    -0.934869261056013
    H               -0.658407297702843    -2.890477858964718     0.047130738943987
    H               -0.477407297702843    -2.303477858964718    -1.613869261056013
    H               -1.608407297702843    -5.003477858964717    -0.782869261056013
    H               -1.402981297702843    -4.483097858964717    -2.476305261056012
    H                0.024465702297157    -4.770117858964718    -1.425491261056013

}
e, wfn = energy('scf', return_wfn=True)
gdma(wfn)
dmavals = variable('DMA DISTRIBUTED MULTIPOLES')
charges = np.array(dmavals)
print(charges)
np.save('SSI-004TYR-105LEU-1-dimer.npy', np.array(charges))--------------------------------------------------------------------------

*** tstart() called on ds3
*** at Mon Apr 27 23:56:49 2020

   => Loading Basis Set <=

    Name: CC-PVDZ
    Role: ORBITAL
    Keyword: BASIS
    atoms 1-8, 20-21   entry C          line   138 file /theoryfs2/ds/metcalf/miniconda2/envs/tf2gpu/share/psi4/basis/cc-pvdz.gbs
    atoms 9            entry O          line   198 file /theoryfs2/ds/metcalf/miniconda2/envs/tf2gpu/share/psi4/basis/cc-pvdz.gbs
    atoms 10-19, 22-27 entry H          line    22 file /theoryfs2/ds/metcalf/miniconda2/envs/tf2gpu/share/psi4/basis/cc-pvdz.gbs

         ---------------------------------------------------------
                                   SCF
               by Justin Turney, Rob Parrish, Andy Simmonett
                          and Daniel G. A. Smith
                              RHF Reference
                        1 Threads,    500 MiB Core
         ---------------------------------------------------------

  ==> Geometry <==

    Molecular point group: c1
    Full point group: C1

    Geometry (in Angstrom), charge = 0, multiplicity = 1:

       Center              X                  Y                   Z               Mass
    ------------   -----------------  -----------------  -----------------  -----------------
         C           -2.208407297703     0.520522141035    -0.204869261056    12.000000000000
         C           -2.984407297703     1.667522141035     0.487130738944    12.000000000000
         C           -0.701407297703     0.582522141035    -0.003869261056    12.000000000000
         C            0.086592702297     1.365522141035    -0.845869261056    12.000000000000
         C           -0.101407297703    -0.013477858965     1.110130738944    12.000000000000
         C            1.441592702297     1.535522141035    -0.606869261056    12.000000000000
         C            1.254592702297     0.179522141035     1.381130738944    12.000000000000
         C            2.029592702297     0.932522141035     0.500130738944    12.000000000000
         O            3.348592702297     1.147522141035     0.770130738944    15.994914619570
         H           -2.560407297703    -0.422477858965     0.215130738944     1.007825032230
         H           -2.439407297703     0.499522141035    -1.267869261056     1.007825032230
         H           -4.012407297703     1.338522141035     0.643130738944     1.007825032230
         H           -0.360407297703     1.864522141035    -1.692869261056     1.007825032230
         H           -0.700407297703    -0.610477858965     1.776130738944     1.007825032230
         H            2.029592702297     2.145522141035    -1.276869261056     1.007825032230
         H            1.711592702297    -0.260477858965     2.254130738944     1.007825032230
         H            3.773592702297     1.645522141035     0.069130738944     1.007825032230
         H           -3.004588297703     2.589122141035    -0.113069261056     1.007825032230
         H           -2.544474297703     1.876702141035     1.473386738944     1.007825032230
         C           -1.067407297703    -2.948477858965    -0.961869261056    12.000000000000
         C           -1.009407297703    -4.395477858965    -1.452869261056    12.000000000000
         H           -2.097407297703    -2.595477858965    -0.934869261056     1.007825032230
         H           -0.658407297703    -2.890477858965     0.047130738944     1.007825032230
         H           -0.477407297703    -2.303477858965    -1.613869261056     1.007825032230
         H           -1.608407297703    -5.003477858965    -0.782869261056     1.007825032230
         H           -1.402981297703    -4.483097858965    -2.476305261056     1.007825032230
         H            0.024465702297    -4.770117858965    -1.425491261056     1.007825032230

  Running in c1 symmetry.

  Rotational constants: A =      0.03325  B =      0.02027  C =      0.01449 [cm^-1]
  Rotational constants: A =    996.95265  B =    607.69537  C =    434.43268 [MHz]
  Nuclear repulsion =  581.783348246266655

  Charge       = 0
  Multiplicity = 1
  Electrons    = 84
  Nalpha       = 42
  Nbeta        = 42

  ==> Algorithm <==

  SCF Algorithm Type is PK.
  DIIS enabled.
  MOM disabled.
  Fractional occupation disabled.
  Guess Type is SAD.
  Energy threshold   = 1.00e-06
  Density threshold  = 1.00e-10
  Integral threshold = 0.00e+00

  ==> Primary Basis <==

  Basis Set: CC-PVDZ
    Blend: CC-PVDZ
    Number of shells: 114
    Number of basis function: 234
    Number of Cartesian functions: 245
    Spherical Harmonics?: true
    Max angular momentum: 2

  ==> Pre-Iterations <==

   -------------------------------------------------------
    Irrep   Nso     Nmo     Nalpha   Nbeta   Ndocc  Nsocc
   -------------------------------------------------------
     A        234     234       0       0       0       0
   -------------------------------------------------------
    Total     234     234      42      42      42       0
   -------------------------------------------------------

  ==> Integral Setup <==

  Using integral reordering PK algorithm.
  Sizing the integral batches needed.
  Building batch lookup table.
   Calculation information:
      Number of atoms:                  27
      Number of AO shells:             114
      Number of primitives:            322
      Number of atomic orbitals:       245
      Number of basis functions:       234

      Integral cutoff                 1.00e-12
      Number of threads:                 1

	Batch   1 pq = [       0,    9405] index = [             0,44231715] size =     44231715
	Batch   2 pq = [    9405,   13301] index = [      44231715,88464951] size =     44233236
	Batch   3 pq = [   13301,   16290] index = [      88464951,132690195] size =     44225244
	Batch   4 pq = [   16290,   18810] index = [     132690195,176917455] size =     44227260
	Batch   5 pq = [   18810,   21030] index = [     176917455,221140965] size =     44223510
	Batch   6 pq = [   21030,   23037] index = [     221140965,265363203] size =     44222238
	Batch   7 pq = [   23037,   24883] index = [     265363203,309594286] size =     44231083
	Batch   8 pq = [   24883,   26601] index = [     309594286,353819901] size =     44225615
	Batch   9 pq = [   26601,   27495] index = [     353819901,378001260] size =     24181359
  Task number: 35
  Buffer size: 11059200
  Buffer per thread: 2
  We computed 19511638 shell quartets total.
  Whereas there are 21487290 unique shell quartets.

  ==> DiskJK: Disk-Based J/K Matrices <==

    J tasked:                  Yes
    K tasked:                  Yes
    wK tasked:                  No
    Memory [MiB]:              375
    Schwarz Cutoff:          1E-12

    OpenMP threads:              1

  Minimum eigenvalue in the overlap matrix is 3.2570467535E-04.
  Using Symmetric Orthogonalization.

  SCF Guess: Superposition of Atomic Densities via on-the-fly atomic UHF.

  ==> Iterations <==

                        Total Energy        Delta E     RMS |[F,P]|

   @RHF iter SAD:  -461.63302401022611   -4.61633e+02   0.00000e+00
   @RHF iter   1:  -462.61058821974319   -9.77564e-01   2.79837e-03 DIIS
   @RHF iter   2:  -462.84880762600960   -2.38219e-01   1.18930e-03 DIIS
   @RHF iter   3:  -462.88796252400306   -3.91549e-02   2.72352e-04 DIIS
   @RHF iter   4:  -462.89120694619430   -3.24442e-03   1.15581e-04 DIIS
   @RHF iter   5:  -462.89163219253800   -4.25246e-04   1.95737e-05 DIIS
   @RHF iter   6:  -462.89165194513845   -1.97526e-05   5.51660e-06 DIIS
   @RHF iter   7:  -462.89165349913998   -1.55400e-06   1.94253e-06 DIIS
   @RHF iter   8:  -462.89165370817335   -2.09033e-07   6.88784e-07 DIIS
   @RHF iter   9:  -462.89165374143147   -3.32581e-08   2.22129e-07 DIIS
   @RHF iter  10:  -462.89165374585980   -4.42833e-09   8.76599e-08 DIIS
   @RHF iter  11:  -462.89165374696512   -1.10532e-09   4.23717e-08 DIIS
   @RHF iter  12:  -462.89165374723967   -2.74554e-10   2.06795e-08 DIIS
   @RHF iter  13:  -462.89165374730976   -7.00879e-11   7.88643e-09 DIIS
   @RHF iter  14:  -462.89165374731454   -4.77485e-12   1.98303e-09 DIIS
   @RHF iter  15:  -462.89165374731044    4.09273e-12   6.69850e-10 DIIS
   @RHF iter  16:  -462.89165374731431   -3.86535e-12   2.76219e-10 DIIS
   @RHF iter  17:  -462.89165374731465   -3.41061e-13   1.27393e-10 DIIS
   @RHF iter  18:  -462.89165374731397    6.82121e-13   6.55383e-11 DIIS
  Energy and wave function converged.

  ==> Post-Iterations <==

    Orbital Energies [Eh]
    ---------------------

    Doubly Occupied:

       1A    -20.582302     2A    -11.299306     3A    -11.238476
       4A    -11.237174     5A    -11.231766     6A    -11.230766
       7A    -11.230671     8A    -11.229447     9A    -11.222793
      10A    -11.214740    11A    -11.211012    12A     -1.400123
      13A     -1.150646    14A     -1.053013    15A     -1.018144
      16A     -1.013375    17A     -0.973946    18A     -0.860967
      19A     -0.842508    20A     -0.832192    21A     -0.792579
      22A     -0.732327    23A     -0.669485    24A     -0.644730
      25A     -0.611665    26A     -0.594928    27A     -0.593654
      28A     -0.591787    29A     -0.587128    30A     -0.583583
      31A     -0.566343    32A     -0.547307    33A     -0.518500
      34A     -0.497180    35A     -0.494853    36A     -0.482655
      37A     -0.481364    38A     -0.476540    39A     -0.471795
      40A     -0.462140    41A     -0.338492    42A     -0.300270

    Virtual:

      43A      0.130109    44A      0.152413    45A      0.178892
      46A      0.181190    47A      0.194271    48A      0.210237
      49A      0.215780    50A      0.225995    51A      0.246984
      52A      0.254470    53A      0.260314    54A      0.269031
      55A      0.276595    56A      0.286096    57A      0.291153
      58A      0.293944    59A      0.302838    60A      0.333767
      61A      0.347597    62A      0.385627    63A      0.392016
      64A      0.423375    65A      0.429616    66A      0.470424
      67A      0.485868    68A      0.497508    69A      0.518307
      70A      0.569162    71A      0.592254    72A      0.599963
      73A      0.604893    74A      0.613626    75A      0.648344
      76A      0.649349    77A      0.654665    78A      0.677123
      79A      0.693309    80A      0.703124    81A      0.713351
      82A      0.719807    83A      0.728273    84A      0.738606
      85A      0.744421    86A      0.755494    87A      0.774683
      88A      0.795757    89A      0.814778    90A      0.828858
      91A      0.837157    92A      0.858296    93A      0.861071
      94A      0.876414    95A      0.881877    96A      0.890460
      97A      0.895873    98A      0.898236    99A      0.899247
     100A      0.904921   101A      0.914503   102A      0.920775
     103A      0.928817   104A      0.930001   105A      0.943230
     106A      0.956707   107A      0.959176   108A      0.965703
     109A      0.978277   110A      0.992641   111A      1.019378
     112A      1.024775   113A      1.034746   114A      1.071404
     115A      1.123894   116A      1.133026   117A      1.135554
     118A      1.144457   119A      1.155104   120A      1.172020
     121A      1.197892   122A      1.218247   123A      1.242543
     124A      1.256777   125A      1.272869   126A      1.283161
     127A      1.289478   128A      1.302963   129A      1.317823
     130A      1.344680   131A      1.351406   132A      1.372143
     133A      1.411218   134A      1.435812   135A      1.478252
     136A      1.484100   137A      1.493111   138A      1.506037
     139A      1.538568   140A      1.590173   141A      1.619017
     142A      1.621609   143A      1.635963   144A      1.666566
     145A      1.685958   146A      1.698215   147A      1.700525
     148A      1.726150   149A      1.736328   150A      1.757898
     151A      1.795763   152A      1.828353   153A      1.850999
     154A      1.867605   155A      1.875730   156A      1.879048
     157A      1.882956   158A      1.891789   159A      1.898349
     160A      1.903211   161A      1.914685   162A      1.922189
     163A      1.928337   164A      1.937682   165A      1.942430
     166A      1.950351   167A      1.956534   168A      1.961493
     169A      1.970491   170A      1.973142   171A      1.974488
     172A      1.991280   173A      2.014810   174A      2.028259
     175A      2.034211   176A      2.059483   177A      2.068983
     178A      2.083869   179A      2.088876   180A      2.100381
     181A      2.117598   182A      2.126545   183A      2.139623
     184A      2.153140   185A      2.172563   186A      2.197999
     187A      2.220308   188A      2.256604   189A      2.272150
     190A      2.303290   191A      2.310146   192A      2.323032
     193A      2.343469   194A      2.363924   195A      2.381706
     196A      2.442667   197A      2.456770   198A      2.459830
     199A      2.462605   200A      2.475876   201A      2.476362
     202A      2.501604   203A      2.522171   204A      2.541771
     205A      2.563906   206A      2.569665   207A      2.578936
     208A      2.632697   209A      2.646845   210A      2.757578
     211A      2.765307   212A      2.769484   213A      2.780627
     214A      2.795218   215A      2.813113   216A      2.858713
     217A      2.862089   218A      2.866451   219A      2.870594
     220A      2.899805   221A      2.958871   222A      2.964258
     223A      2.967482   224A      2.986125   225A      3.011182
     226A      3.092296   227A      3.146267   228A      3.255268
     229A      3.287413   230A      3.348131   231A      3.573960
     232A      3.676443   233A      3.969701   234A      4.193919

    Final Occupation by Irrep:
              A
    DOCC [    42 ]

  @RHF Final Energy:  -462.89165374731397

   => Energetics <=

    Nuclear Repulsion Energy =            581.7833482462666552
    One-Electron Energy =               -1781.1246578991126626
    Two-Electron Energy =                 736.4496559055321541
    Total Energy =                       -462.8916537473139670

Computation Completed

Properties will be evaluated at   0.000000,   0.000000,   0.000000 [a0]

Properties computed using the SCF density matrix

  Nuclear Dipole Moment: [e a0]
     X:   -13.4155      Y:   -10.6630      Z:    -4.7829

  Electronic Dipole Moment: [e a0]
     X:    13.2899      Y:    10.9741      Z:     4.3343

  Dipole Moment: [e a0]
     X:    -0.1255      Y:     0.3111      Z:    -0.4486     Total:     0.5602

  Dipole Moment: [D]
     X:    -0.3191      Y:     0.7908      Z:    -1.1404     Total:     1.4239

*** tstop() called on ds3 at Tue Apr 28 00:02:41 2020
Module time:
	user time   =     143.53 seconds =       2.39 minutes
	system time =      59.53 seconds =       0.99 minutes
	total time  =        352 seconds =       5.87 minutes
Total time:
	user time   =     143.53 seconds =       2.39 minutes
	system time =      59.53 seconds =       0.99 minutes
	total time  =        352 seconds =       5.87 minutes
                                     G D M A

                                 by Anthony Stone

                           version 2.2.06, 22 June 2011

               Distributed Multipoles from Gaussian wavefunctions

Starting at 0:2:41 on 28 Apr 2020

Using SCF density matrix from file ./SSI/SSI-004TYR-105LEU-1-dimer.test.4532.fchk

                         Distributed Multipole Analysis

Standard DMA

Positions and radii in angstrom
Multipole moments in atomic units, ea_0^k for rank k

C          x = -2.208407  y =  0.520522  z = -0.204869 angstrom
           Maximum rank =  0   Radius =  0.650 angstrom
                   Q00  =  -0.040847

C          x = -2.984407  y =  1.667522  z =  0.487131 angstrom
           Maximum rank =  0   Radius =  0.650 angstrom
                   Q00  =  -0.251321

C          x = -0.701407  y =  0.582522  z = -0.003869 angstrom
           Maximum rank =  0   Radius =  0.650 angstrom
                   Q00  =  -0.137551

C          x =  0.086593  y =  1.365522  z = -0.845869 angstrom
           Maximum rank =  0   Radius =  0.650 angstrom
                   Q00  =   0.028668

C          x = -0.101407  y = -0.013478  z =  1.110131 angstrom
           Maximum rank =  0   Radius =  0.650 angstrom
                   Q00  =  -0.020771

C          x =  1.441593  y =  1.535522  z = -0.606869 angstrom
           Maximum rank =  0   Radius =  0.650 angstrom
                   Q00  =  -0.180916

C          x =  1.254593  y =  0.179522  z =  1.381131 angstrom
           Maximum rank =  0   Radius =  0.650 angstrom
                   Q00  =  -0.114431

C          x =  2.029593  y =  0.932522  z =  0.500131 angstrom
           Maximum rank =  0   Radius =  0.650 angstrom
                   Q00  =   0.307564

O          x =  3.348593  y =  1.147522  z =  0.770131 angstrom
           Maximum rank =  0   Radius =  0.650 angstrom
                   Q00  =  -0.671629

H          x = -2.560407  y = -0.422478  z =  0.215131 angstrom
           Maximum rank =  0   Radius =  0.325 angstrom
                   Q00  =   0.066989

H          x = -2.439407  y =  0.499522  z = -1.267869 angstrom
           Maximum rank =  0   Radius =  0.325 angstrom
                   Q00  =   0.069792

H          x = -4.012407  y =  1.338522  z =  0.643131 angstrom
           Maximum rank =  0   Radius =  0.325 angstrom
                   Q00  =   0.086005

H          x = -0.360407  y =  1.864522  z = -1.692869 angstrom
           Maximum rank =  0   Radius =  0.325 angstrom
                   Q00  =   0.065818

H          x = -0.700407  y = -0.610478  z =  1.776131 angstrom
           Maximum rank =  0   Radius =  0.325 angstrom
                   Q00  =   0.063692

H          x =  2.029593  y =  2.145522  z = -1.276869 angstrom
           Maximum rank =  0   Radius =  0.325 angstrom
                   Q00  =   0.070420

H          x =  1.711593  y = -0.260478  z =  2.254131 angstrom
           Maximum rank =  0   Radius =  0.325 angstrom
                   Q00  =   0.081375

H          x =  3.773593  y =  1.645522  z =  0.069131 angstrom
           Maximum rank =  0   Radius =  0.325 angstrom
                   Q00  =   0.404504

H          x = -3.004588  y =  2.589122  z = -0.113069 angstrom
           Maximum rank =  0   Radius =  0.325 angstrom
                   Q00  =   0.083526

H          x = -2.544474  y =  1.876702  z =  1.473387 angstrom
           Maximum rank =  0   Radius =  0.325 angstrom
                   Q00  =   0.087931

C          x = -1.067407  y = -2.948478  z = -0.961869 angstrom
           Maximum rank =  0   Radius =  0.650 angstrom
                   Q00  =  -0.236038

C          x = -1.009407  y = -4.395478  z = -1.452869 angstrom
           Maximum rank =  0   Radius =  0.650 angstrom
                   Q00  =  -0.235018

H          x = -2.097407  y = -2.595478  z = -0.934869 angstrom
           Maximum rank =  0   Radius =  0.325 angstrom
                   Q00  =   0.074113

H          x = -0.658407  y = -2.890478  z =  0.047131 angstrom
           Maximum rank =  0   Radius =  0.325 angstrom
                   Q00  =   0.079153

H          x = -0.477407  y = -2.303478  z = -1.613869 angstrom
           Maximum rank =  0   Radius =  0.325 angstrom
                   Q00  =   0.085230

H          x = -1.608407  y = -5.003478  z = -0.782869 angstrom
           Maximum rank =  0   Radius =  0.325 angstrom
                   Q00  =   0.076606

H          x = -1.402981  y = -4.483098  z = -2.476305 angstrom
           Maximum rank =  0   Radius =  0.325 angstrom
                   Q00  =   0.077929

H          x =  0.024466  y = -4.770118  z = -1.425491 angstrom
           Maximum rank =  0   Radius =  0.325 angstrom
                   Q00  =   0.079207

Total multipoles referred to origin at
           x =   0.000000,  y =    0.000000,  z =    0.000000 angstrom
                   Q00  =  -0.000000

Finished at 0:2:41 on 28 Apr 2020

  DMA results are available in the Python driver through the
	  variable('DMA DISTRIBUTED MULTIPOLES')
  and
	  variable('DMA TOTAL MULTIPOLES')
  commands.

    Psi4 stopped on: Tuesday, 28 April 2020 12:02AM
    Psi4 wall time for execution: 0:05:52.43

*** Psi4 exiting successfully. Buy a developer a beer!
