                               Psi4 1.3.2 release

  ==> Input File <==

--------------------------------------------------------------------------
import numpy as np
set {scf_type pk
basis cc-pvdz
d_convergence 10
gdma_switch   0
gdma_limit    0
gdma_origin   [ 0.0,  0.0,  0.0 ]
}
molecule test {
    units Angstrom
    0 1
    --
    0 1
    C                0.640434303351658     0.457626914521062     1.714899886252100
    C                1.388434303351657     1.243626914521063     2.829899886252100
    H                0.951434303351658    -0.587373085478938     1.713899886252100
    H               -0.434565696648342     0.506626914521062     1.883899886252100
    H                0.854434303351658     0.901626914521062     0.741899886252100
    H                1.292434303351658     0.696626914521063     3.767899886252100
    H                0.873434303351658     2.198626914521062     2.939899886252099
    H                2.453484303351658     1.423645914521063     2.621909886252099
    C               -0.672565696648342    -1.031373085478938    -1.609100113747900
    C               -1.352565696648343    -0.675373085478937    -2.939100113747901
    H               -1.088565696648342    -1.959373085478937    -1.214100113747900
    H                0.397434303351658    -1.162373085478937    -1.772100113747900
    H               -0.816565696648342    -0.223373085478938    -0.891100113747900
    H               -0.916565696648342     0.257626914521062    -3.292100113747900
    H               -2.428685696648342    -0.537780685478938    -2.757330113747900
    H               -1.182205696648342    -1.449111085478938    -3.702190113747901

}
e, wfn = energy('scf', return_wfn=True)
gdma(wfn)
dmavals = variable('DMA DISTRIBUTED MULTIPOLES')
charges = np.array(dmavals)
print(charges)
np.save('SSI-028ILE-036LEU-1-dimer.npy', np.array(charges))--------------------------------------------------------------------------

*** tstart() called on ds3
*** at Tue Apr 28 09:00:33 2020

   => Loading Basis Set <=

    Name: CC-PVDZ
    Role: ORBITAL
    Keyword: BASIS
    atoms 1-2, 9-10  entry C          line   138 file /theoryfs2/ds/metcalf/miniconda2/envs/tf2gpu/share/psi4/basis/cc-pvdz.gbs
    atoms 3-8, 11-16 entry H          line    22 file /theoryfs2/ds/metcalf/miniconda2/envs/tf2gpu/share/psi4/basis/cc-pvdz.gbs

         ---------------------------------------------------------
                                   SCF
               by Justin Turney, Rob Parrish, Andy Simmonett
                          and Daniel G. A. Smith
                              RHF Reference
                        1 Threads,    500 MiB Core
         ---------------------------------------------------------

  ==> Geometry <==

    Molecular point group: c1
    Full point group: C1

    Geometry (in Angstrom), charge = 0, multiplicity = 1:

       Center              X                  Y                   Z               Mass
    ------------   -----------------  -----------------  -----------------  -----------------
         C            0.640434303352     0.457626914521     1.714899886252    12.000000000000
         C            1.388434303352     1.243626914521     2.829899886252    12.000000000000
         H            0.951434303352    -0.587373085479     1.713899886252     1.007825032230
         H           -0.434565696648     0.506626914521     1.883899886252     1.007825032230
         H            0.854434303352     0.901626914521     0.741899886252     1.007825032230
         H            1.292434303352     0.696626914521     3.767899886252     1.007825032230
         H            0.873434303352     2.198626914521     2.939899886252     1.007825032230
         H            2.453484303352     1.423645914521     2.621909886252     1.007825032230
         C           -0.672565696648    -1.031373085479    -1.609100113748    12.000000000000
         C           -1.352565696648    -0.675373085479    -2.939100113748    12.000000000000
         H           -1.088565696648    -1.959373085479    -1.214100113748     1.007825032230
         H            0.397434303352    -1.162373085479    -1.772100113748     1.007825032230
         H           -0.816565696648    -0.223373085479    -0.891100113748     1.007825032230
         H           -0.916565696648     0.257626914521    -3.292100113748     1.007825032230
         H           -2.428685696648    -0.537780685479    -2.757330113748     1.007825032230
         H           -1.182205696648    -1.449111085479    -3.702190113748     1.007825032230

  Running in c1 symmetry.

  Rotational constants: A =      0.87408  B =      0.03661  C =      0.03617 [cm^-1]
  Rotational constants: A =  26204.38728  B =   1097.45739  C =   1084.36115 [MHz]
  Nuclear repulsion =  118.005920125987259

  Charge       = 0
  Multiplicity = 1
  Electrons    = 36
  Nalpha       = 18
  Nbeta        = 18

  ==> Algorithm <==

  SCF Algorithm Type is PK.
  DIIS enabled.
  MOM disabled.
  Fractional occupation disabled.
  Guess Type is SAD.
  Energy threshold   = 1.00e-06
  Density threshold  = 1.00e-10
  Integral threshold = 0.00e+00

  ==> Primary Basis <==

  Basis Set: CC-PVDZ
    Blend: CC-PVDZ
    Number of shells: 60
    Number of basis function: 116
    Number of Cartesian functions: 120
    Spherical Harmonics?: true
    Max angular momentum: 2

  ==> Pre-Iterations <==

   -------------------------------------------------------
    Irrep   Nso     Nmo     Nalpha   Nbeta   Ndocc  Nsocc
   -------------------------------------------------------
     A        116     116       0       0       0       0
   -------------------------------------------------------
    Total     116     116      18      18      18       0
   -------------------------------------------------------

  ==> Integral Setup <==

  Using integral reordering PK algorithm.
  Sizing the integral batches needed.
  Building batch lookup table.
   Calculation information:
      Number of atoms:                  16
      Number of AO shells:              60
      Number of primitives:            148
      Number of atomic orbitals:       120
      Number of basis functions:       116

      Integral cutoff                 1.00e-12
      Number of threads:                 1

	Batch   1 pq = [       0,    6786] index = [             0,23028291] size =     23028291
  Task number: 3
  Buffer size: 11059200
  Buffer per thread: 2
  We computed 1280031 shell quartets total.
  Whereas there are 1675365 unique shell quartets.

  ==> DiskJK: Disk-Based J/K Matrices <==

    J tasked:                  Yes
    K tasked:                  Yes
    wK tasked:                  No
    Memory [MiB]:              375
    Schwarz Cutoff:          1E-12

    OpenMP threads:              1

  Minimum eigenvalue in the overlap matrix is 6.4949787021E-03.
  Using Symmetric Orthogonalization.

  SCF Guess: Superposition of Atomic Densities via on-the-fly atomic UHF.

  ==> Iterations <==

                        Total Energy        Delta E     RMS |[F,P]|

   @RHF iter SAD:  -157.28887603309306   -1.57289e+02   0.00000e+00
   @RHF iter   1:  -158.31021566201176   -1.02134e+00   4.16437e-03 DIIS
   @RHF iter   2:  -158.44126907708176   -1.31053e-01   1.76363e-03 DIIS
   @RHF iter   3:  -158.46391561937469   -2.26465e-02   3.46965e-04 DIIS
   @RHF iter   4:  -158.46571917216369   -1.80355e-03   3.89913e-05 DIIS
   @RHF iter   5:  -158.46574310391779   -2.39318e-05   6.87359e-06 DIIS
   @RHF iter   6:  -158.46574379316201   -6.89244e-07   1.24075e-06 DIIS
   @RHF iter   7:  -158.46574380795713   -1.47951e-08   3.37958e-07 DIIS
   @RHF iter   8:  -158.46574380906728   -1.11015e-09   4.27387e-08 DIIS
   @RHF iter   9:  -158.46574380909919   -3.19176e-11   7.99281e-09 DIIS
   @RHF iter  10:  -158.46574380909993   -7.38964e-13   2.53316e-09 DIIS
   @RHF iter  11:  -158.46574380910064   -7.10543e-13   6.46735e-10 DIIS
   @RHF iter  12:  -158.46574380910050    1.42109e-13   1.10026e-10 DIIS
   @RHF iter  13:  -158.46574380910050    0.00000e+00   2.32653e-11 DIIS
  Energy and wave function converged.

  ==> Post-Iterations <==

    Orbital Energies [Eh]
    ---------------------

    Doubly Occupied:

       1A    -11.220116     2A    -11.218967     3A    -11.218942
       4A    -11.216022     5A     -1.016124     6A     -1.011837
       7A     -0.840748     8A     -0.834146     9A     -0.598402
      10A     -0.597548    11A     -0.595179    12A     -0.593496
      13A     -0.502511    14A     -0.494726    15A     -0.488795
      16A     -0.486027    17A     -0.484485    18A     -0.481650

    Virtual:

      19A      0.176464    20A      0.193134    21A      0.219485
      22A      0.240479    23A      0.245986    24A      0.259606
      25A      0.262352    26A      0.278180    27A      0.282454
      28A      0.287430    29A      0.294052    30A      0.313811
      31A      0.379036    32A      0.410955    33A      0.574299
      34A      0.588547    35A      0.596771    36A      0.600724
      37A      0.605707    38A      0.657996    39A      0.673350
      40A      0.681870    41A      0.707548    42A      0.733426
      43A      0.823754    44A      0.885381    45A      0.890333
      46A      0.891006    47A      0.895031    48A      0.896673
      49A      0.899400    50A      0.906148    51A      0.912799
      52A      0.916727    53A      0.922485    54A      0.937879
      55A      0.955505    56A      0.997985    57A      1.119671
      58A      1.126541    59A      1.127617    60A      1.135848
      61A      1.226537    62A      1.242680    63A      1.454306
      64A      1.468994    65A      1.478544    66A      1.487143
      67A      1.576296    68A      1.587847    69A      1.677731
      70A      1.684337    71A      1.693195    72A      1.694175
      73A      1.845329    74A      1.854049    75A      1.864971
      76A      1.868316    77A      1.886123    78A      1.895755
      79A      1.931655    80A      1.939745    81A      1.941532
      82A      1.943475    83A      1.948148    84A      1.953469
      85A      1.960176    86A      1.964903    87A      1.970952
      88A      2.047851    89A      2.093666    90A      2.093989
      91A      2.128111    92A      2.141425    93A      2.286076
      94A      2.296682    95A      2.307318    96A      2.334503
      97A      2.430611    98A      2.451056    99A      2.459723
     100A      2.472565   101A      2.553741   102A      2.560910
     103A      2.577862   104A      2.586629   105A      2.757920
     106A      2.768794   107A      2.779380   108A      2.798617
     109A      2.833600   110A      2.839066   111A      2.851808
     112A      2.853685   113A      2.933640   114A      2.940021
     115A      2.950891   116A      2.961300

    Final Occupation by Irrep:
              A
    DOCC [    18 ]

  @RHF Final Energy:  -158.46574380910050

   => Energetics <=

    Nuclear Repulsion Energy =            118.0059201259872594
    One-Electron Energy =                -445.1438860344355248
    Two-Electron Energy =                 168.6722220993477777
    Total Energy =                       -158.4657438091005019

Computation Completed

Properties will be evaluated at   0.000000,   0.000000,   0.000000 [a0]

Properties computed using the SCF density matrix

  Nuclear Dipole Moment: [e a0]
     X:    -0.0417      Y:     0.0613      Z:     0.0380

  Electronic Dipole Moment: [e a0]
     X:     0.0420      Y:    -0.0530      Z:    -0.0242

  Dipole Moment: [e a0]
     X:     0.0003      Y:     0.0083      Z:     0.0138     Total:     0.0161

  Dipole Moment: [D]
     X:     0.0008      Y:     0.0210      Z:     0.0351     Total:     0.0409

*** tstop() called on ds3 at Tue Apr 28 09:00:45 2020
Module time:
	user time   =       8.25 seconds =       0.14 minutes
	system time =       3.43 seconds =       0.06 minutes
	total time  =         12 seconds =       0.20 minutes
Total time:
	user time   =       8.25 seconds =       0.14 minutes
	system time =       3.43 seconds =       0.06 minutes
	total time  =         12 seconds =       0.20 minutes
                                     G D M A

                                 by Anthony Stone

                           version 2.2.06, 22 June 2011

               Distributed Multipoles from Gaussian wavefunctions

Starting at 9:0:45 on 28 Apr 2020

Using SCF density matrix from file ./SSI/SSI-028ILE-036LEU-1-dimer.test.23490.fchk

                         Distributed Multipole Analysis

Standard DMA

Positions and radii in angstrom
Multipole moments in atomic units, ea_0^k for rank k

C          x =  0.640434  y =  0.457627  z =  1.714900 angstrom
           Maximum rank =  0   Radius =  0.650 angstrom
                   Q00  =  -0.243563

C          x =  1.388434  y =  1.243627  z =  2.829900 angstrom
           Maximum rank =  0   Radius =  0.650 angstrom
                   Q00  =  -0.244170

H          x =  0.951434  y = -0.587373  z =  1.713900 angstrom
           Maximum rank =  0   Radius =  0.325 angstrom
                   Q00  =   0.082272

H          x = -0.434566  y =  0.506627  z =  1.883900 angstrom
           Maximum rank =  0   Radius =  0.325 angstrom
                   Q00  =   0.081260

H          x =  0.854434  y =  0.901627  z =  0.741900 angstrom
           Maximum rank =  0   Radius =  0.325 angstrom
                   Q00  =   0.080092

H          x =  1.292434  y =  0.696627  z =  3.767900 angstrom
           Maximum rank =  0   Radius =  0.325 angstrom
                   Q00  =   0.081078

H          x =  0.873434  y =  2.198627  z =  2.939900 angstrom
           Maximum rank =  0   Radius =  0.325 angstrom
                   Q00  =   0.078286

H          x =  2.453484  y =  1.423646  z =  2.621910 angstrom
           Maximum rank =  0   Radius =  0.325 angstrom
                   Q00  =   0.085502

C          x = -0.672566  y = -1.031373  z = -1.609100 angstrom
           Maximum rank =  0   Radius =  0.650 angstrom
                   Q00  =  -0.238786

C          x = -1.352566  y = -0.675373  z = -2.939100 angstrom
           Maximum rank =  0   Radius =  0.650 angstrom
                   Q00  =  -0.238039

H          x = -1.088566  y = -1.959373  z = -1.214100 angstrom
           Maximum rank =  0   Radius =  0.325 angstrom
                   Q00  =   0.078766

H          x =  0.397434  y = -1.162373  z = -1.772100 angstrom
           Maximum rank =  0   Radius =  0.325 angstrom
                   Q00  =   0.077436

H          x = -0.816566  y = -0.223373  z = -0.891100 angstrom
           Maximum rank =  0   Radius =  0.325 angstrom
                   Q00  =   0.083122

H          x = -0.916566  y =  0.257627  z = -3.292100 angstrom
           Maximum rank =  0   Radius =  0.325 angstrom
                   Q00  =   0.077786

H          x = -2.428686  y = -0.537781  z = -2.757330 angstrom
           Maximum rank =  0   Radius =  0.325 angstrom
                   Q00  =   0.078188

H          x = -1.182206  y = -1.449111  z = -3.702190 angstrom
           Maximum rank =  0   Radius =  0.325 angstrom
                   Q00  =   0.080771

Total multipoles referred to origin at
           x =   0.000000,  y =    0.000000,  z =    0.000000 angstrom
                   Q00  =  -0.000000

Finished at 9:0:45 on 28 Apr 2020

  DMA results are available in the Python driver through the
	  variable('DMA DISTRIBUTED MULTIPOLES')
  and
	  variable('DMA TOTAL MULTIPOLES')
  commands.

    Psi4 stopped on: Tuesday, 28 April 2020 09:00AM
    Psi4 wall time for execution: 0:00:11.47

*** Psi4 exiting successfully. Buy a developer a beer!
