                               Psi4 1.3.2 release

  ==> Input File <==

--------------------------------------------------------------------------
import numpy as np
set {scf_type pk
basis cc-pvdz
d_convergence 10
gdma_switch   0
gdma_limit    0
gdma_origin   [ 0.0,  0.0,  0.0 ]
}
molecule test {
    units Angstrom
    0 1
    --
    0 1
    C               -1.625289991233708    -1.257236202058954     2.507569135971777
    C               -2.845289991233707    -1.977236202058954     3.062569135971777
    C               -0.526289991233708    -2.311236202058953     2.565569135971777
    H               -1.379289991233708    -0.369236202058953     3.091569135971777
    H               -1.813289991233708    -0.984236202058954     1.469569135971777
    H               -2.796289991233707    -2.036236202058954     4.150569135971777
    H               -3.770289991233708    -1.492236202058954     2.749569135971777
    H                0.140710008766292    -2.210236202058953     1.707569135971777
    H               -2.742189991233708    -2.976796202058953     2.615071135971777
    H               -1.078659991233708    -3.262246202058953     2.543715135971777
    H                0.044790008766292    -2.207736202058954     3.499997135971777
    C               -0.016289991233708    -0.157236202058954    -3.356430864028223
    C                0.263710008766292     0.909763797941046     0.278569135971777
    C                1.413710008766292     1.689763797941047     0.258569135971777
    C               -0.196289991233708     0.309763797941046    -0.890430864028223
    C                0.480710008766292     0.492763797941047    -2.090430864028223
    C                2.100710008766292     1.871763797941047    -0.932430864028223
    C                1.638710008766292     1.270763797941046    -2.102430864028223
    H               -0.276289991233708     0.787763797941046     1.205569135971777
    H                1.768710008766292     2.154763797941047     1.167569135971777
    H               -1.096289991233708    -0.287236202058954    -0.867430864028223
    H                2.998710008766292     2.473763797941047    -0.953430864028223
    H               -0.289289991233708    -1.187236202058954    -3.137430864028223
    H                0.800710008766292    -0.190236202058954    -4.077430864028223
    H                2.175710008766292     1.419763797941046    -3.024430864028223
    H               -0.880549991233708     0.346373797941047    -3.814064864028223

}
e, wfn = energy('scf', return_wfn=True)
gdma(wfn)
dmavals = variable('DMA DISTRIBUTED MULTIPOLES')
charges = np.array(dmavals)
print(charges)
np.save('SSI-084PRO-122PHE-1-dimer.npy', np.array(charges))--------------------------------------------------------------------------

*** tstart() called on ds3
*** at Tue Apr 28 03:45:06 2020

   => Loading Basis Set <=

    Name: CC-PVDZ
    Role: ORBITAL
    Keyword: BASIS
    atoms 1-3, 12-18  entry C          line   138 file /theoryfs2/ds/metcalf/miniconda2/envs/tf2gpu/share/psi4/basis/cc-pvdz.gbs
    atoms 4-11, 19-26 entry H          line    22 file /theoryfs2/ds/metcalf/miniconda2/envs/tf2gpu/share/psi4/basis/cc-pvdz.gbs

         ---------------------------------------------------------
                                   SCF
               by Justin Turney, Rob Parrish, Andy Simmonett
                          and Daniel G. A. Smith
                              RHF Reference
                        1 Threads,    500 MiB Core
         ---------------------------------------------------------

  ==> Geometry <==

    Molecular point group: c1
    Full point group: C1

    Geometry (in Angstrom), charge = 0, multiplicity = 1:

       Center              X                  Y                   Z               Mass
    ------------   -----------------  -----------------  -----------------  -----------------
         C           -1.625289991234    -1.257236202059     2.507569135972    12.000000000000
         C           -2.845289991234    -1.977236202059     3.062569135972    12.000000000000
         C           -0.526289991234    -2.311236202059     2.565569135972    12.000000000000
         H           -1.379289991234    -0.369236202059     3.091569135972     1.007825032230
         H           -1.813289991234    -0.984236202059     1.469569135972     1.007825032230
         H           -2.796289991234    -2.036236202059     4.150569135972     1.007825032230
         H           -3.770289991234    -1.492236202059     2.749569135972     1.007825032230
         H            0.140710008766    -2.210236202059     1.707569135972     1.007825032230
         H           -2.742189991234    -2.976796202059     2.615071135972     1.007825032230
         H           -1.078659991234    -3.262246202059     2.543715135972     1.007825032230
         H            0.044790008766    -2.207736202059     3.499997135972     1.007825032230
         C           -0.016289991234    -0.157236202059    -3.356430864028    12.000000000000
         C            0.263710008766     0.909763797941     0.278569135972    12.000000000000
         C            1.413710008766     1.689763797941     0.258569135972    12.000000000000
         C           -0.196289991234     0.309763797941    -0.890430864028    12.000000000000
         C            0.480710008766     0.492763797941    -2.090430864028    12.000000000000
         C            2.100710008766     1.871763797941    -0.932430864028    12.000000000000
         C            1.638710008766     1.270763797941    -2.102430864028    12.000000000000
         H           -0.276289991234     0.787763797941     1.205569135972     1.007825032230
         H            1.768710008766     2.154763797941     1.167569135972     1.007825032230
         H           -1.096289991234    -0.287236202059    -0.867430864028     1.007825032230
         H            2.998710008766     2.473763797941    -0.953430864028     1.007825032230
         H           -0.289289991234    -1.187236202059    -3.137430864028     1.007825032230
         H            0.800710008766    -0.190236202059    -4.077430864028     1.007825032230
         H            2.175710008766     1.419763797941    -3.024430864028     1.007825032230
         H           -0.880549991234     0.346373797941    -3.814064864028     1.007825032230

  Running in c1 symmetry.

  Rotational constants: A =      0.06915  B =      0.01614  C =      0.01406 [cm^-1]
  Rotational constants: A =   2073.16909  B =    483.87603  C =    421.60436 [MHz]
  Nuclear repulsion =  479.277717405093654

  Charge       = 0
  Multiplicity = 1
  Electrons    = 76
  Nalpha       = 38
  Nbeta        = 38

  ==> Algorithm <==

  SCF Algorithm Type is PK.
  DIIS enabled.
  MOM disabled.
  Fractional occupation disabled.
  Guess Type is SAD.
  Energy threshold   = 1.00e-06
  Density threshold  = 1.00e-10
  Integral threshold = 0.00e+00

  ==> Primary Basis <==

  Basis Set: CC-PVDZ
    Blend: CC-PVDZ
    Number of shells: 108
    Number of basis function: 220
    Number of Cartesian functions: 230
    Spherical Harmonics?: true
    Max angular momentum: 2

  ==> Pre-Iterations <==

   -------------------------------------------------------
    Irrep   Nso     Nmo     Nalpha   Nbeta   Ndocc  Nsocc
   -------------------------------------------------------
     A        220     220       0       0       0       0
   -------------------------------------------------------
    Total     220     220      38      38      38       0
   -------------------------------------------------------

  ==> Integral Setup <==

  Using integral reordering PK algorithm.
  Sizing the integral batches needed.
  Building batch lookup table.
   Calculation information:
      Number of atoms:                  26
      Number of AO shells:             108
      Number of primitives:            300
      Number of atomic orbitals:       230
      Number of basis functions:       220

      Integral cutoff                 1.00e-12
      Number of threads:                 1

	Batch   1 pq = [       0,    9405] index = [             0,44231715] size =     44231715
	Batch   2 pq = [    9405,   13301] index = [      44231715,88464951] size =     44233236
	Batch   3 pq = [   13301,   16290] index = [      88464951,132690195] size =     44225244
	Batch   4 pq = [   16290,   18810] index = [     132690195,176917455] size =     44227260
	Batch   5 pq = [   18810,   21030] index = [     176917455,221140965] size =     44223510
	Batch   6 pq = [   21030,   23037] index = [     221140965,265363203] size =     44222238
	Batch   7 pq = [   23037,   24310] index = [     265363203,295500205] size =     30137002
  Task number: 27
  Buffer size: 11059200
  Buffer per thread: 2
  We computed 14126811 shell quartets total.
  Whereas there are 17325441 unique shell quartets.

  ==> DiskJK: Disk-Based J/K Matrices <==

    J tasked:                  Yes
    K tasked:                  Yes
    wK tasked:                  No
    Memory [MiB]:              375
    Schwarz Cutoff:          1E-12

    OpenMP threads:              1

  Minimum eigenvalue in the overlap matrix is 3.0068748846E-04.
  Using Symmetric Orthogonalization.

  SCF Guess: Superposition of Atomic Densities via on-the-fly atomic UHF.

  ==> Iterations <==

                        Total Energy        Delta E     RMS |[F,P]|

   @RHF iter SAD:  -387.03257646068488   -3.87033e+02   0.00000e+00
   @RHF iter   1:  -387.75146460081152   -7.18888e-01   2.77547e-03 DIIS
   @RHF iter   2:  -387.97241044518853   -2.20946e-01   1.17197e-03 DIIS
   @RHF iter   3:  -388.00839738048705   -3.59869e-02   2.52111e-04 DIIS
   @RHF iter   4:  -388.01129510082069   -2.89772e-03   5.02833e-05 DIIS
   @RHF iter   5:  -388.01137974631405   -8.46455e-05   1.57905e-05 DIIS
   @RHF iter   6:  -388.01138768897999   -7.94267e-06   4.77687e-06 DIIS
   @RHF iter   7:  -388.01138849399484   -8.05015e-07   1.21593e-06 DIIS
   @RHF iter   8:  -388.01138855362819   -5.96334e-08   2.72975e-07 DIIS
   @RHF iter   9:  -388.01138855951996   -5.89176e-09   9.97564e-08 DIIS
   @RHF iter  10:  -388.01138856061038   -1.09043e-09   4.85719e-08 DIIS
   @RHF iter  11:  -388.01138856094263   -3.32250e-10   1.96613e-08 DIIS
   @RHF iter  12:  -388.01138856101403   -7.13953e-11   7.19422e-09 DIIS
   @RHF iter  13:  -388.01138856102449   -1.04592e-11   2.60729e-09 DIIS
   @RHF iter  14:  -388.01138856102494   -4.54747e-13   6.91774e-10 DIIS
   @RHF iter  15:  -388.01138856102250    2.44427e-12   2.57454e-10 DIIS
   @RHF iter  16:  -388.01138856102352   -1.02318e-12   8.79478e-11 DIIS
  Energy and wave function converged.

  ==> Post-Iterations <==

    Orbital Energies [Eh]
    ---------------------

    Doubly Occupied:

       1A    -11.240051     2A    -11.234461     3A    -11.233521
       4A    -11.229816     5A    -11.229601     6A    -11.229397
       7A    -11.228983     8A    -11.217637     9A    -11.214973
      10A    -11.212994    11A     -1.152771    12A     -1.066561
      13A     -1.044291    14A     -1.010920    15A     -0.931334
      16A     -0.913478    17A     -0.825419    18A     -0.801900
      19A     -0.793225    20A     -0.691325    21A     -0.638115
      22A     -0.631076    23A     -0.629467    24A     -0.613301
      25A     -0.581497    26A     -0.576272    27A     -0.562650
      28A     -0.541221    29A     -0.534812    30A     -0.512317
      31A     -0.488389    32A     -0.486860    33A     -0.481798
      34A     -0.478479    35A     -0.469958    36A     -0.459195
      37A     -0.331293    38A     -0.322437

    Virtual:

      39A      0.136333    40A      0.141010    41A      0.175637
      42A      0.193491    43A      0.202154    44A      0.215399
      45A      0.220200    46A      0.232911    47A      0.242014
      48A      0.253198    49A      0.260901    50A      0.263211
      51A      0.274089    52A      0.288033    53A      0.294165
      54A      0.316699    55A      0.334657    56A      0.347456
      57A      0.365692    58A      0.378524    59A      0.398997
      60A      0.424921    61A      0.463056    62A      0.467501
      63A      0.487965    64A      0.503996    65A      0.569907
      66A      0.575721    67A      0.593034    68A      0.603925
      69A      0.628723    70A      0.637014    71A      0.655613
      72A      0.673750    73A      0.688467    74A      0.697182
      75A      0.712905    76A      0.719285    77A      0.738018
      78A      0.743931    79A      0.748429    80A      0.758864
      81A      0.768218    82A      0.778913    83A      0.784128
      84A      0.800248    85A      0.815261    86A      0.827740
      87A      0.845326    88A      0.851521    89A      0.858091
      90A      0.874763    91A      0.879753    92A      0.886312
      93A      0.893831    94A      0.896932    95A      0.903098
      96A      0.907894    97A      0.911285    98A      0.925738
      99A      0.930514   100A      0.934679   101A      0.943911
     102A      0.953615   103A      0.959942   104A      0.985944
     105A      0.989596   106A      1.011852   107A      1.045869
     108A      1.052440   109A      1.093953   110A      1.114706
     111A      1.131367   112A      1.145194   113A      1.157202
     114A      1.164895   115A      1.204795   116A      1.220910
     117A      1.246991   118A      1.250082   119A      1.260123
     120A      1.274422   121A      1.307649   122A      1.314743
     123A      1.326621   124A      1.333040   125A      1.407546
     126A      1.417341   127A      1.458886   128A      1.478843
     129A      1.520346   130A      1.531859   131A      1.553954
     132A      1.608887   133A      1.617136   134A      1.631324
     135A      1.636052   136A      1.678376   137A      1.699958
     138A      1.726152   139A      1.731757   140A      1.742595
     141A      1.747665   142A      1.765102   143A      1.791915
     144A      1.812167   145A      1.822620   146A      1.858979
     147A      1.863503   148A      1.873528   149A      1.886177
     150A      1.897343   151A      1.905003   152A      1.908501
     153A      1.914977   154A      1.922890   155A      1.929047
     156A      1.938152   157A      1.951011   158A      1.953739
     159A      1.961204   160A      1.973880   161A      1.984366
     162A      1.993156   163A      2.003049   164A      2.018578
     165A      2.024970   166A      2.037876   167A      2.045005
     168A      2.067753   169A      2.090760   170A      2.099758
     171A      2.109956   172A      2.137717   173A      2.149134
     174A      2.159046   175A      2.182991   176A      2.193119
     177A      2.196296   178A      2.217332   179A      2.236174
     180A      2.254482   181A      2.282674   182A      2.294449
     183A      2.305757   184A      2.312024   185A      2.331170
     186A      2.343096   187A      2.370827   188A      2.426213
     189A      2.450257   190A      2.468938   191A      2.478616
     192A      2.514034   193A      2.519956   194A      2.541845
     195A      2.551555   196A      2.627791   197A      2.633835
     198A      2.696600   199A      2.740955   200A      2.759143
     201A      2.764276   202A      2.772126   203A      2.778109
     204A      2.790741   205A      2.799309   206A      2.818818
     207A      2.843683   208A      2.852704   209A      2.863309
     210A      2.875936   211A      2.916509   212A      2.952595
     213A      2.989026   214A      3.015018   215A      3.028642
     216A      3.058613   217A      3.162115   218A      3.206276
     219A      3.309209   220A      3.974235

    Final Occupation by Irrep:
              A
    DOCC [    38 ]

  @RHF Final Energy:  -388.01138856102352

   => Energetics <=

    Nuclear Repulsion Energy =            479.2777174050936537
    One-Electron Energy =               -1472.8946214152665561
    Two-Electron Energy =                 605.6055154491493795
    Total Energy =                       -388.0113885610235229

Computation Completed

Properties will be evaluated at   0.000000,   0.000000,   0.000000 [a0]

Properties computed using the SCF density matrix

  Nuclear Dipole Moment: [e a0]
     X:    -7.6808      Y:    -9.3946      Z:     7.8059

  Electronic Dipole Moment: [e a0]
     X:     7.6475      Y:     9.3767      Z:    -7.9068

  Dipole Moment: [e a0]
     X:    -0.0332      Y:    -0.0179      Z:    -0.1009     Total:     0.1078

  Dipole Moment: [D]
     X:    -0.0845      Y:    -0.0454      Z:    -0.2566     Total:     0.2739

*** tstop() called on ds3 at Tue Apr 28 03:48:31 2020
Module time:
	user time   =      95.50 seconds =       1.59 minutes
	system time =      40.05 seconds =       0.67 minutes
	total time  =        205 seconds =       3.42 minutes
Total time:
	user time   =      95.50 seconds =       1.59 minutes
	system time =      40.05 seconds =       0.67 minutes
	total time  =        205 seconds =       3.42 minutes
                                     G D M A

                                 by Anthony Stone

                           version 2.2.06, 22 June 2011

               Distributed Multipoles from Gaussian wavefunctions

Starting at 3:48:31 on 28 Apr 2020

Using SCF density matrix from file ./SSI/SSI-084PRO-122PHE-1-dimer.test.24898.fchk

                         Distributed Multipole Analysis

Standard DMA

Positions and radii in angstrom
Multipole moments in atomic units, ea_0^k for rank k

C          x = -1.625290  y = -1.257236  z =  2.507569 angstrom
           Maximum rank =  0   Radius =  0.650 angstrom
                   Q00  =  -0.092931

C          x = -2.845290  y = -1.977236  z =  3.062569 angstrom
           Maximum rank =  0   Radius =  0.650 angstrom
                   Q00  =  -0.219776

C          x = -0.526290  y = -2.311236  z =  2.565569 angstrom
           Maximum rank =  0   Radius =  0.650 angstrom
                   Q00  =  -0.244709

H          x = -1.379290  y = -0.369236  z =  3.091569 angstrom
           Maximum rank =  0   Radius =  0.325 angstrom
                   Q00  =   0.052338

H          x = -1.813290  y = -0.984236  z =  1.469569 angstrom
           Maximum rank =  0   Radius =  0.325 angstrom
                   Q00  =   0.050018

H          x = -2.796290  y = -2.036236  z =  4.150569 angstrom
           Maximum rank =  0   Radius =  0.325 angstrom
                   Q00  =   0.080520

H          x = -3.770290  y = -1.492236  z =  2.749569 angstrom
           Maximum rank =  0   Radius =  0.325 angstrom
                   Q00  =   0.080692

H          x =  0.140710  y = -2.210236  z =  1.707569 angstrom
           Maximum rank =  0   Radius =  0.325 angstrom
                   Q00  =   0.092634

H          x = -2.742190  y = -2.976796  z =  2.615071 angstrom
           Maximum rank =  0   Radius =  0.325 angstrom
                   Q00  =   0.050974

H          x = -1.078660  y = -3.262246  z =  2.543715 angstrom
           Maximum rank =  0   Radius =  0.325 angstrom
                   Q00  =   0.066877

H          x =  0.044790  y = -2.207736  z =  3.499997 angstrom
           Maximum rank =  0   Radius =  0.325 angstrom
                   Q00  =   0.085263

C          x = -0.016290  y = -0.157236  z = -3.356431 angstrom
           Maximum rank =  0   Radius =  0.650 angstrom
                   Q00  =  -0.201412

C          x =  0.263710  y =  0.909764  z =  0.278569 angstrom
           Maximum rank =  0   Radius =  0.650 angstrom
                   Q00  =  -0.060309

C          x =  1.413710  y =  1.689764  z =  0.258569 angstrom
           Maximum rank =  0   Radius =  0.650 angstrom
                   Q00  =  -0.075711

C          x = -0.196290  y =  0.309764  z = -0.890431 angstrom
           Maximum rank =  0   Radius =  0.650 angstrom
                   Q00  =  -0.099354

C          x =  0.480710  y =  0.492764  z = -2.090431 angstrom
           Maximum rank =  0   Radius =  0.650 angstrom
                   Q00  =  -0.097848

C          x =  2.100710  y =  1.871764  z = -0.932431 angstrom
           Maximum rank =  0   Radius =  0.650 angstrom
                   Q00  =  -0.076986

C          x =  1.638710  y =  1.270764  z = -2.102431 angstrom
           Maximum rank =  0   Radius =  0.650 angstrom
                   Q00  =   0.005902

H          x = -0.276290  y =  0.787764  z =  1.205569 angstrom
           Maximum rank =  0   Radius =  0.325 angstrom
                   Q00  =   0.067773

H          x =  1.768710  y =  2.154764  z =  1.167569 angstrom
           Maximum rank =  0   Radius =  0.325 angstrom
                   Q00  =   0.059224

H          x = -1.096290  y = -0.287236  z = -0.867431 angstrom
           Maximum rank =  0   Radius =  0.325 angstrom
                   Q00  =   0.053044

H          x =  2.998710  y =  2.473764  z = -0.953431 angstrom
           Maximum rank =  0   Radius =  0.325 angstrom
                   Q00  =   0.064359

H          x = -0.289290  y = -1.187236  z = -3.137431 angstrom
           Maximum rank =  0   Radius =  0.325 angstrom
                   Q00  =   0.099211

H          x =  0.800710  y = -0.190236  z = -4.077431 angstrom
           Maximum rank =  0   Radius =  0.325 angstrom
                   Q00  =   0.096858

H          x =  2.175710  y =  1.419764  z = -3.024431 angstrom
           Maximum rank =  0   Radius =  0.325 angstrom
                   Q00  =   0.058303

H          x = -0.880550  y =  0.346374  z = -3.814065 angstrom
           Maximum rank =  0   Radius =  0.325 angstrom
                   Q00  =   0.105045

Total multipoles referred to origin at
           x =   0.000000,  y =    0.000000,  z =    0.000000 angstrom
                   Q00  =  -0.000000

Finished at 3:48:31 on 28 Apr 2020

  DMA results are available in the Python driver through the
	  variable('DMA DISTRIBUTED MULTIPOLES')
  and
	  variable('DMA TOTAL MULTIPOLES')
  commands.

    Psi4 stopped on: Tuesday, 28 April 2020 03:48AM
    Psi4 wall time for execution: 0:03:24.62

*** Psi4 exiting successfully. Buy a developer a beer!
