                               Psi4 1.3.2 release

  ==> Input File <==

--------------------------------------------------------------------------
import numpy as np
set {scf_type pk
basis cc-pvdz
d_convergence 10
gdma_switch   0
gdma_limit    0
gdma_origin   [ 0.0,  0.0,  0.0 ]
}
molecule test {
    units Angstrom
    0 1
    --
    0 1
    C                3.319677759907594    -0.622371689673915     0.443230974299792
    C                3.604677759907594     0.821628310326085     0.911230974299792
    H                3.214677759907594    -1.291371689673915     1.297230974299792
    H                2.384677759907594    -0.651371689673915    -0.114769025700208
    H                4.126677759907594    -0.981371689673915    -0.195769025700208
    H                2.832677759907594     1.103628310326085     1.615230974299792
    H                4.586717759907594     0.853030310326085     1.405817974299792
    H                3.570497759907593     1.514436310326085     0.057504074299792
    C               -0.181322240092406     1.355628310326085    -2.012769025700208
    C               -0.275322240092406     0.602628310326085     0.374230974299792
    C               -0.773322240092406     0.498628310326085    -0.924769025700208
    C               -0.807322240092406    -0.178371689673916     1.426230974299792
    C               -1.837322240092406    -1.080371689673916     1.158230974299792
    C               -1.807322240092406    -0.407371689673916    -1.190769025700208
    C               -2.337322240092406    -1.200371689673915    -0.157769025700208
    H                0.518677759907594     1.303628310326085     0.590230974299792
    H               -0.411322240092406    -0.090371689673915     2.428230974299792
    H                0.251677759907594     2.249628310326084    -1.560769025700208
    H               -0.979322240092406     1.682628310326085    -2.680769025700208
    H               -2.260322240092406    -1.675371689673915     1.957230974299792
    H               -2.222322240092406    -0.484371689673915    -2.185769025700208
    H               -3.171322240092406    -1.856371689673916    -0.349769025700208
    H                0.595117759907594     0.828166310326085    -2.586285025700208

}
e, wfn = energy('scf', return_wfn=True)
gdma(wfn)
dmavals = variable('DMA DISTRIBUTED MULTIPOLES')
charges = np.array(dmavals)
print(charges)
np.save('SSI-016VAL-059PHE-1-dimer.npy', np.array(charges))--------------------------------------------------------------------------

*** tstart() called on ds3
*** at Tue Apr 28 13:30:51 2020

   => Loading Basis Set <=

    Name: CC-PVDZ
    Role: ORBITAL
    Keyword: BASIS
    atoms 1-2, 9-15  entry C          line   138 file /theoryfs2/ds/metcalf/miniconda2/envs/tf2gpu/share/psi4/basis/cc-pvdz.gbs
    atoms 3-8, 16-23 entry H          line    22 file /theoryfs2/ds/metcalf/miniconda2/envs/tf2gpu/share/psi4/basis/cc-pvdz.gbs

         ---------------------------------------------------------
                                   SCF
               by Justin Turney, Rob Parrish, Andy Simmonett
                          and Daniel G. A. Smith
                              RHF Reference
                        1 Threads,    500 MiB Core
         ---------------------------------------------------------

  ==> Geometry <==

    Molecular point group: c1
    Full point group: C1

    Geometry (in Angstrom), charge = 0, multiplicity = 1:

       Center              X                  Y                   Z               Mass
    ------------   -----------------  -----------------  -----------------  -----------------
         C            3.319677759908    -0.622371689674     0.443230974300    12.000000000000
         C            3.604677759908     0.821628310326     0.911230974300    12.000000000000
         H            3.214677759908    -1.291371689674     1.297230974300     1.007825032230
         H            2.384677759908    -0.651371689674    -0.114769025700     1.007825032230
         H            4.126677759908    -0.981371689674    -0.195769025700     1.007825032230
         H            2.832677759908     1.103628310326     1.615230974300     1.007825032230
         H            4.586717759908     0.853030310326     1.405817974300     1.007825032230
         H            3.570497759908     1.514436310326     0.057504074300     1.007825032230
         C           -0.181322240092     1.355628310326    -2.012769025700    12.000000000000
         C           -0.275322240092     0.602628310326     0.374230974300    12.000000000000
         C           -0.773322240092     0.498628310326    -0.924769025700    12.000000000000
         C           -0.807322240092    -0.178371689674     1.426230974300    12.000000000000
         C           -1.837322240092    -1.080371689674     1.158230974300    12.000000000000
         C           -1.807322240092    -0.407371689674    -1.190769025700    12.000000000000
         C           -2.337322240092    -1.200371689674    -0.157769025700    12.000000000000
         H            0.518677759908     1.303628310326     0.590230974300     1.007825032230
         H           -0.411322240092    -0.090371689674     2.428230974300     1.007825032230
         H            0.251677759908     2.249628310326    -1.560769025700     1.007825032230
         H           -0.979322240092     1.682628310326    -2.680769025700     1.007825032230
         H           -2.260322240092    -1.675371689674     1.957230974300     1.007825032230
         H           -2.222322240092    -0.484371689674    -2.185769025700     1.007825032230
         H           -3.171322240092    -1.856371689674    -0.349769025700     1.007825032230
         H            0.595117759908     0.828166310326    -2.586285025700     1.007825032230

  Running in c1 symmetry.

  Rotational constants: A =      0.06940  B =      0.02705  C =      0.02201 [cm^-1]
  Rotational constants: A =   2080.63164  B =    810.90725  C =    659.96630 [MHz]
  Nuclear repulsion =  407.957044979615034

  Charge       = 0
  Multiplicity = 1
  Electrons    = 68
  Nalpha       = 34
  Nbeta        = 34

  ==> Algorithm <==

  SCF Algorithm Type is PK.
  DIIS enabled.
  MOM disabled.
  Fractional occupation disabled.
  Guess Type is SAD.
  Energy threshold   = 1.00e-06
  Density threshold  = 1.00e-10
  Integral threshold = 0.00e+00

  ==> Primary Basis <==

  Basis Set: CC-PVDZ
    Blend: CC-PVDZ
    Number of shells: 96
    Number of basis function: 196
    Number of Cartesian functions: 205
    Spherical Harmonics?: true
    Max angular momentum: 2

  ==> Pre-Iterations <==

   -------------------------------------------------------
    Irrep   Nso     Nmo     Nalpha   Nbeta   Ndocc  Nsocc
   -------------------------------------------------------
     A        196     196       0       0       0       0
   -------------------------------------------------------
    Total     196     196      34      34      34       0
   -------------------------------------------------------

  ==> Integral Setup <==

  Using integral reordering PK algorithm.
  Sizing the integral batches needed.
  Building batch lookup table.
   Calculation information:
      Number of atoms:                  23
      Number of AO shells:              96
      Number of primitives:            268
      Number of atomic orbitals:       205
      Number of basis functions:       196

      Integral cutoff                 1.00e-12
      Number of threads:                 1

	Batch   1 pq = [       0,    9405] index = [             0,44231715] size =     44231715
	Batch   2 pq = [    9405,   13301] index = [      44231715,88464951] size =     44233236
	Batch   3 pq = [   13301,   16290] index = [      88464951,132690195] size =     44225244
	Batch   4 pq = [   16290,   18810] index = [     132690195,176917455] size =     44227260
	Batch   5 pq = [   18810,   19306] index = [     176917455,186370471] size =      9453016
  Task number: 17
  Buffer size: 11059200
  Buffer per thread: 2
  We computed 9737116 shell quartets total.
  Whereas there are 10841496 unique shell quartets.

  ==> DiskJK: Disk-Based J/K Matrices <==

    J tasked:                  Yes
    K tasked:                  Yes
    wK tasked:                  No
    Memory [MiB]:              375
    Schwarz Cutoff:          1E-12

    OpenMP threads:              1

  Minimum eigenvalue in the overlap matrix is 3.2988369816E-04.
  Using Symmetric Orthogonalization.

  SCF Guess: Superposition of Atomic Densities via on-the-fly atomic UHF.

  ==> Iterations <==

                        Total Energy        Delta E     RMS |[F,P]|

   @RHF iter SAD:  -347.72278944269294   -3.47723e+02   0.00000e+00
   @RHF iter   1:  -348.77204811092832   -1.04926e+00   2.84741e-03 DIIS
   @RHF iter   2:  -348.96042520973219   -1.88377e-01   1.16666e-03 DIIS
   @RHF iter   3:  -348.98913394336148   -2.87087e-02   2.56866e-04 DIIS
   @RHF iter   4:  -348.99156247003708   -2.42853e-03   5.79333e-05 DIIS
   @RHF iter   5:  -348.99164601634783   -8.35463e-05   1.99971e-05 DIIS
   @RHF iter   6:  -348.99165585862772   -9.84228e-06   4.89314e-06 DIIS
   @RHF iter   7:  -348.99165659274547   -7.34118e-07   1.26003e-06 DIIS
   @RHF iter   8:  -348.99165666805101   -7.53055e-08   4.23687e-07 DIIS
   @RHF iter   9:  -348.99165668587204   -1.78210e-08   2.06482e-07 DIIS
   @RHF iter  10:  -348.99165669091525   -5.04320e-09   9.59242e-08 DIIS
   @RHF iter  11:  -348.99165669221844   -1.30319e-09   3.12603e-08 DIIS
   @RHF iter  12:  -348.99165669230638   -8.79368e-11   1.41283e-08 DIIS
   @RHF iter  13:  -348.99165669231797   -1.15961e-11   4.21042e-09 DIIS
   @RHF iter  14:  -348.99165669231928   -1.30740e-12   1.34014e-09 DIIS
   @RHF iter  15:  -348.99165669231996   -6.82121e-13   5.80019e-10 DIIS
   @RHF iter  16:  -348.99165669231854    1.42109e-12   2.59119e-10 DIIS
   @RHF iter  17:  -348.99165669231826    2.84217e-13   9.36259e-11 DIIS
  Energy and wave function converged.

  ==> Post-Iterations <==

    Orbital Energies [Eh]
    ---------------------

    Doubly Occupied:

       1A    -11.242467     2A    -11.240105     3A    -11.239237
       4A    -11.235241     5A    -11.234515     6A    -11.233057
       7A    -11.230373     8A    -11.219767     9A    -11.213552
      10A     -1.146712    11A     -1.042708    12A     -1.013331
      13A     -1.006501    14A     -0.930025    15A     -0.836315
      16A     -0.825020    17A     -0.793047    18A     -0.688270
      19A     -0.633623    20A     -0.627612    21A     -0.597739
      22A     -0.594106    23A     -0.579894    24A     -0.577926
      25A     -0.561968    26A     -0.534345    27A     -0.494332
      28A     -0.489335    29A     -0.485797    30A     -0.484771
      31A     -0.481470    32A     -0.479900    33A     -0.328872
      34A     -0.321705

    Virtual:

      35A      0.131232    36A      0.138343    37A      0.167508
      38A      0.193361    39A      0.200795    40A      0.222761
      41A      0.231651    42A      0.236361    43A      0.253319
      44A      0.264864    45A      0.271651    46A      0.277418
      47A      0.281761    48A      0.286127    49A      0.304455
      50A      0.341128    51A      0.360291    52A      0.378334
      53A      0.396691    54A      0.450015    55A      0.457548
      56A      0.475731    57A      0.489359    58A      0.564110
      59A      0.586508    60A      0.601695    61A      0.607894
      62A      0.612056    63A      0.649690    64A      0.670411
      65A      0.672342    66A      0.689597    67A      0.701215
      68A      0.707919    69A      0.730667    70A      0.738970
      71A      0.739351    72A      0.746141    73A      0.752628
      74A      0.767629    75A      0.775327    76A      0.803182
      77A      0.836190    78A      0.844832    79A      0.857377
      80A      0.862491    81A      0.869579    82A      0.878652
      83A      0.886128    84A      0.894538    85A      0.898828
      86A      0.900460    87A      0.912291    88A      0.926256
      89A      0.929233    90A      0.944567    91A      0.957544
      92A      0.987397    93A      0.992899    94A      0.997901
      95A      1.035343    96A      1.061287    97A      1.112991
      98A      1.121309    99A      1.125442   100A      1.141776
     101A      1.149860   102A      1.153964   103A      1.192156
     104A      1.225103   105A      1.235866   106A      1.243136
     107A      1.251249   108A      1.263675   109A      1.294241
     110A      1.300986   111A      1.313731   112A      1.332480
     113A      1.410072   114A      1.470328   115A      1.484195
     116A      1.515859   117A      1.517606   118A      1.560996
     119A      1.563327   120A      1.597796   121A      1.676843
     122A      1.686205   123A      1.696101   124A      1.700151
     125A      1.730089   126A      1.744262   127A      1.752172
     128A      1.790783   129A      1.803141   130A      1.850242
     131A      1.855095   132A      1.873730   133A      1.880030
     134A      1.885238   135A      1.892661   136A      1.904090
     137A      1.913350   138A      1.925129   139A      1.932307
     140A      1.944080   141A      1.948395   142A      1.953480
     143A      1.956308   144A      1.964219   145A      1.971548
     146A      1.978980   147A      1.988404   148A      1.999241
     149A      2.033293   150A      2.054107   151A      2.061373
     152A      2.107537   153A      2.110694   154A      2.124059
     155A      2.132086   156A      2.147615   157A      2.153899
     158A      2.160720   159A      2.177514   160A      2.252824
     161A      2.272847   162A      2.279781   163A      2.289360
     164A      2.295671   165A      2.312616   166A      2.313113
     167A      2.335970   168A      2.449009   169A      2.457065
     170A      2.465783   171A      2.477210   172A      2.490017
     173A      2.530515   174A      2.569172   175A      2.580530
     176A      2.623344   177A      2.733130   178A      2.741842
     179A      2.765883   180A      2.769637   181A      2.772271
     182A      2.800494   183A      2.809875   184A      2.841743
     185A      2.846998   186A      2.856497   187A      2.867367
     188A      2.947604   189A      2.964014   190A      2.967184
     191A      2.991260   192A      3.015762   193A      3.137479
     194A      3.178464   195A      3.275405   196A      3.925494

    Final Occupation by Irrep:
              A
    DOCC [    34 ]

  @RHF Final Energy:  -348.99165669231826

   => Energetics <=

    Nuclear Repulsion Energy =            407.9570449796150342
    One-Electron Energy =               -1278.6101259989882237
    Two-Electron Energy =                 521.6614243270548741
    Total Energy =                       -348.9916566923183154

Computation Completed

Properties will be evaluated at   0.000000,   0.000000,   0.000000 [a0]

Properties computed using the SCF density matrix

  Nuclear Dipole Moment: [e a0]
     X:    12.2216      Y:     2.3479      Z:    -0.3023

  Electronic Dipole Moment: [e a0]
     X:   -12.2405      Y:    -2.2902      Z:     0.2103

  Dipole Moment: [e a0]
     X:    -0.0189      Y:     0.0578      Z:    -0.0920     Total:     0.1102

  Dipole Moment: [D]
     X:    -0.0482      Y:     0.1468      Z:    -0.2337     Total:     0.2802

*** tstop() called on ds3 at Tue Apr 28 13:32:55 2020
Module time:
	user time   =      66.99 seconds =       1.12 minutes
	system time =      26.80 seconds =       0.45 minutes
	total time  =        124 seconds =       2.07 minutes
Total time:
	user time   =      66.99 seconds =       1.12 minutes
	system time =      26.80 seconds =       0.45 minutes
	total time  =        124 seconds =       2.07 minutes
                                     G D M A

                                 by Anthony Stone

                           version 2.2.06, 22 June 2011

               Distributed Multipoles from Gaussian wavefunctions

Starting at 13:32:55 on 28 Apr 2020

Using SCF density matrix from file ./SSI/SSI-016VAL-059PHE-1-dimer.test.16260.fchk

                         Distributed Multipole Analysis

Standard DMA

Positions and radii in angstrom
Multipole moments in atomic units, ea_0^k for rank k

C          x =  3.319678  y = -0.622372  z =  0.443231 angstrom
           Maximum rank =  0   Radius =  0.650 angstrom
                   Q00  =  -0.251463

C          x =  3.604678  y =  0.821628  z =  0.911231 angstrom
           Maximum rank =  0   Radius =  0.650 angstrom
                   Q00  =  -0.233240

H          x =  3.214678  y = -1.291372  z =  1.297231 angstrom
           Maximum rank =  0   Radius =  0.325 angstrom
                   Q00  =   0.080458

H          x =  2.384678  y = -0.651372  z = -0.114769 angstrom
           Maximum rank =  0   Radius =  0.325 angstrom
                   Q00  =   0.089939

H          x =  4.126678  y = -0.981372  z = -0.195769 angstrom
           Maximum rank =  0   Radius =  0.325 angstrom
                   Q00  =   0.077527

H          x =  2.832678  y =  1.103628  z =  1.615231 angstrom
           Maximum rank =  0   Radius =  0.325 angstrom
                   Q00  =   0.076970

H          x =  4.586718  y =  0.853030  z =  1.405818 angstrom
           Maximum rank =  0   Radius =  0.325 angstrom
                   Q00  =   0.080886

H          x =  3.570498  y =  1.514436  z =  0.057504 angstrom
           Maximum rank =  0   Radius =  0.325 angstrom
                   Q00  =   0.078554

C          x = -0.181322  y =  1.355628  z = -2.012769 angstrom
           Maximum rank =  0   Radius =  0.650 angstrom
                   Q00  =  -0.199961

C          x = -0.275322  y =  0.602628  z =  0.374231 angstrom
           Maximum rank =  0   Radius =  0.650 angstrom
                   Q00  =  -0.002909

C          x = -0.773322  y =  0.498628  z = -0.924769 angstrom
           Maximum rank =  0   Radius =  0.650 angstrom
                   Q00  =  -0.102139

C          x = -0.807322  y = -0.178372  z =  1.426231 angstrom
           Maximum rank =  0   Radius =  0.650 angstrom
                   Q00  =  -0.078779

C          x = -1.837322  y = -1.080372  z =  1.158231 angstrom
           Maximum rank =  0   Radius =  0.650 angstrom
                   Q00  =  -0.081937

C          x = -1.807322  y = -0.407372  z = -1.190769 angstrom
           Maximum rank =  0   Radius =  0.650 angstrom
                   Q00  =  -0.093712

C          x = -2.337322  y = -1.200372  z = -0.157769 angstrom
           Maximum rank =  0   Radius =  0.650 angstrom
                   Q00  =  -0.064008

H          x =  0.518678  y =  1.303628  z =  0.590231 angstrom
           Maximum rank =  0   Radius =  0.325 angstrom
                   Q00  =   0.060443

H          x = -0.411322  y = -0.090372  z =  2.428231 angstrom
           Maximum rank =  0   Radius =  0.325 angstrom
                   Q00  =   0.067644

H          x =  0.251678  y =  2.249628  z = -1.560769 angstrom
           Maximum rank =  0   Radius =  0.325 angstrom
                   Q00  =   0.097563

H          x = -0.979322  y =  1.682628  z = -2.680769 angstrom
           Maximum rank =  0   Radius =  0.325 angstrom
                   Q00  =   0.099139

H          x = -2.260322  y = -1.675372  z =  1.957231 angstrom
           Maximum rank =  0   Radius =  0.325 angstrom
                   Q00  =   0.065046

H          x = -2.222322  y = -0.484372  z = -2.185769 angstrom
           Maximum rank =  0   Radius =  0.325 angstrom
                   Q00  =   0.059997

H          x = -3.171322  y = -1.856372  z = -0.349769 angstrom
           Maximum rank =  0   Radius =  0.325 angstrom
                   Q00  =   0.068973

H          x =  0.595118  y =  0.828166  z = -2.586285 angstrom
           Maximum rank =  0   Radius =  0.325 angstrom
                   Q00  =   0.105009

Total multipoles referred to origin at
           x =   0.000000,  y =    0.000000,  z =    0.000000 angstrom
                   Q00  =  -0.000000

Finished at 13:32:55 on 28 Apr 2020

  DMA results are available in the Python driver through the
	  variable('DMA DISTRIBUTED MULTIPOLES')
  and
	  variable('DMA TOTAL MULTIPOLES')
  commands.

    Psi4 stopped on: Tuesday, 28 April 2020 01:32PM
    Psi4 wall time for execution: 0:02:03.66

*** Psi4 exiting successfully. Buy a developer a beer!
