                               Psi4 1.3.2 release

  ==> Input File <==

--------------------------------------------------------------------------
import numpy as np
set {scf_type pk
basis cc-pvdz
d_convergence 10
gdma_switch   0
gdma_limit    0
gdma_origin   [ 0.0,  0.0,  0.0 ]
}
molecule test {
    units Angstrom
    0 1
    --
    0 1
    C               -2.527821408260735    -2.129915399125192    -1.177772235661790
    C               -0.608821408260734     0.736084600874809     0.371227764338210
    C               -0.729821408260734     0.489084600874808     1.726227764338210
    C               -1.172821408260734    -0.139915399125192    -0.545772235661790
    C               -1.905821408260734    -1.242915399125192    -0.142772235661790
    C               -1.445821408260734    -0.608915399125192     2.159227764338211
    C               -2.032821408260734    -1.472915399125192     1.222227764338210
    H               -0.059821408260734     1.601084600874808     0.025227764338210
    H               -0.273821408260734     1.157084600874808     2.441227764338211
    H               -1.063821408260734     0.065084600874808    -1.597772235661790
    H               -1.542821408260734    -0.805915399125192     3.216227764338210
    H               -2.855821408260734    -1.513915399125192    -2.016772235661790
    H               -3.399821408260735    -2.591915399125192    -0.715772235661790
    H               -2.595821408260735    -2.325915399125191     1.573227764338210
    H               -1.870247408260734    -2.932026399125192    -1.544122235661790
    C                2.916178591739266     0.761084600874808    -1.113772235661790
    C                3.171178591739266     1.830084600874808    -2.146772235661790
    C                3.352178591739265     1.434084600874808     0.203227764338210
    H                3.494178591739266    -0.139915399125192    -1.317772235661790
    H                1.851178591739266     0.530084600874808    -1.077772235661790
    H                4.223178591739265     1.836084600874808    -2.439772235661790
    H                2.525178591739266     1.665084600874808    -3.009772235661790
    H                4.421178591739265     1.268084600874808     0.339227764338210
    H                2.805178591739266     1.022084600874808     1.053227764338210
    H                2.925784591739265     2.758544600874809    -1.610352235661790
    H                3.135009591739266     2.504164600874808     0.069917764338210

}
e, wfn = energy('scf', return_wfn=True)
gdma(wfn)
dmavals = variable('DMA DISTRIBUTED MULTIPOLES')
charges = np.array(dmavals)
print(charges)
np.save('SSI-077PHE-162PRO-1-dimer.npy', np.array(charges))--------------------------------------------------------------------------

*** tstart() called on ds3
*** at Tue Apr 28 09:33:00 2020

   => Loading Basis Set <=

    Name: CC-PVDZ
    Role: ORBITAL
    Keyword: BASIS
    atoms 1-7, 16-18  entry C          line   138 file /theoryfs2/ds/metcalf/miniconda2/envs/tf2gpu/share/psi4/basis/cc-pvdz.gbs
    atoms 8-15, 19-26 entry H          line    22 file /theoryfs2/ds/metcalf/miniconda2/envs/tf2gpu/share/psi4/basis/cc-pvdz.gbs

         ---------------------------------------------------------
                                   SCF
               by Justin Turney, Rob Parrish, Andy Simmonett
                          and Daniel G. A. Smith
                              RHF Reference
                        1 Threads,    500 MiB Core
         ---------------------------------------------------------

  ==> Geometry <==

    Molecular point group: c1
    Full point group: C1

    Geometry (in Angstrom), charge = 0, multiplicity = 1:

       Center              X                  Y                   Z               Mass
    ------------   -----------------  -----------------  -----------------  -----------------
         C           -2.527821408261    -2.129915399125    -1.177772235662    12.000000000000
         C           -0.608821408261     0.736084600875     0.371227764338    12.000000000000
         C           -0.729821408261     0.489084600875     1.726227764338    12.000000000000
         C           -1.172821408261    -0.139915399125    -0.545772235662    12.000000000000
         C           -1.905821408261    -1.242915399125    -0.142772235662    12.000000000000
         C           -1.445821408261    -0.608915399125     2.159227764338    12.000000000000
         C           -2.032821408261    -1.472915399125     1.222227764338    12.000000000000
         H           -0.059821408261     1.601084600875     0.025227764338     1.007825032230
         H           -0.273821408261     1.157084600875     2.441227764338     1.007825032230
         H           -1.063821408261     0.065084600875    -1.597772235662     1.007825032230
         H           -1.542821408261    -0.805915399125     3.216227764338     1.007825032230
         H           -2.855821408261    -1.513915399125    -2.016772235662     1.007825032230
         H           -3.399821408261    -2.591915399125    -0.715772235662     1.007825032230
         H           -2.595821408261    -2.325915399125     1.573227764338     1.007825032230
         H           -1.870247408261    -2.932026399125    -1.544122235662     1.007825032230
         C            2.916178591739     0.761084600875    -1.113772235662    12.000000000000
         C            3.171178591739     1.830084600875    -2.146772235662    12.000000000000
         C            3.352178591739     1.434084600875     0.203227764338    12.000000000000
         H            3.494178591739    -0.139915399125    -1.317772235662     1.007825032230
         H            1.851178591739     0.530084600875    -1.077772235662     1.007825032230
         H            4.223178591739     1.836084600875    -2.439772235662     1.007825032230
         H            2.525178591739     1.665084600875    -3.009772235662     1.007825032230
         H            4.421178591739     1.268084600875     0.339227764338     1.007825032230
         H            2.805178591739     1.022084600875     1.053227764338     1.007825032230
         H            2.925784591739     2.758544600875    -1.610352235662     1.007825032230
         H            3.135009591739     2.504164600875     0.069917764338     1.007825032230

  Running in c1 symmetry.

  Rotational constants: A =      0.06581  B =      0.01730  C =      0.01470 [cm^-1]
  Rotational constants: A =   1973.05560  B =    518.77060  C =    440.60546 [MHz]
  Nuclear repulsion =  481.762785549131195

  Charge       = 0
  Multiplicity = 1
  Electrons    = 76
  Nalpha       = 38
  Nbeta        = 38

  ==> Algorithm <==

  SCF Algorithm Type is PK.
  DIIS enabled.
  MOM disabled.
  Fractional occupation disabled.
  Guess Type is SAD.
  Energy threshold   = 1.00e-06
  Density threshold  = 1.00e-10
  Integral threshold = 0.00e+00

  ==> Primary Basis <==

  Basis Set: CC-PVDZ
    Blend: CC-PVDZ
    Number of shells: 108
    Number of basis function: 220
    Number of Cartesian functions: 230
    Spherical Harmonics?: true
    Max angular momentum: 2

  ==> Pre-Iterations <==

   -------------------------------------------------------
    Irrep   Nso     Nmo     Nalpha   Nbeta   Ndocc  Nsocc
   -------------------------------------------------------
     A        220     220       0       0       0       0
   -------------------------------------------------------
    Total     220     220      38      38      38       0
   -------------------------------------------------------

  ==> Integral Setup <==

  Using integral reordering PK algorithm.
  Sizing the integral batches needed.
  Building batch lookup table.
   Calculation information:
      Number of atoms:                  26
      Number of AO shells:             108
      Number of primitives:            300
      Number of atomic orbitals:       230
      Number of basis functions:       220

      Integral cutoff                 1.00e-12
      Number of threads:                 1

	Batch   1 pq = [       0,    9405] index = [             0,44231715] size =     44231715
	Batch   2 pq = [    9405,   13301] index = [      44231715,88464951] size =     44233236
	Batch   3 pq = [   13301,   16290] index = [      88464951,132690195] size =     44225244
	Batch   4 pq = [   16290,   18810] index = [     132690195,176917455] size =     44227260
	Batch   5 pq = [   18810,   21030] index = [     176917455,221140965] size =     44223510
	Batch   6 pq = [   21030,   23037] index = [     221140965,265363203] size =     44222238
	Batch   7 pq = [   23037,   24310] index = [     265363203,295500205] size =     30137002
  Task number: 27
  Buffer size: 11059200
  Buffer per thread: 2
  We computed 14289137 shell quartets total.
  Whereas there are 17325441 unique shell quartets.

  ==> DiskJK: Disk-Based J/K Matrices <==

    J tasked:                  Yes
    K tasked:                  Yes
    wK tasked:                  No
    Memory [MiB]:              375
    Schwarz Cutoff:          1E-12

    OpenMP threads:              1

  Minimum eigenvalue in the overlap matrix is 2.9731513502E-04.
  Using Symmetric Orthogonalization.

  SCF Guess: Superposition of Atomic Densities via on-the-fly atomic UHF.

  ==> Iterations <==

                        Total Energy        Delta E     RMS |[F,P]|

   @RHF iter SAD:  -387.05974580188007   -3.87060e+02   0.00000e+00
   @RHF iter   1:  -387.75020862657675   -6.90463e-01   2.78829e-03 DIIS
   @RHF iter   2:  -387.97204142499135   -2.21833e-01   1.18453e-03 DIIS
   @RHF iter   3:  -388.00869938062675   -3.66580e-02   2.51714e-04 DIIS
   @RHF iter   4:  -388.01157951647673   -2.88014e-03   5.09010e-05 DIIS
   @RHF iter   5:  -388.01166525288187   -8.57364e-05   1.61675e-05 DIIS
   @RHF iter   6:  -388.01167349103849   -8.23816e-06   4.82898e-06 DIIS
   @RHF iter   7:  -388.01167431070820   -8.19670e-07   1.18238e-06 DIIS
   @RHF iter   8:  -388.01167437028727   -5.95791e-08   2.86417e-07 DIIS
   @RHF iter   9:  -388.01167437724297   -6.95570e-09   1.28386e-07 DIIS
   @RHF iter  10:  -388.01167437869032   -1.44735e-09   6.31709e-08 DIIS
   @RHF iter  11:  -388.01167437921595   -5.25631e-10   2.76903e-08 DIIS
   @RHF iter  12:  -388.01167437932526   -1.09310e-10   1.19408e-08 DIIS
   @RHF iter  13:  -388.01167437933651   -1.12550e-11   3.85946e-09 DIIS
   @RHF iter  14:  -388.01167437933952   -3.01270e-12   9.96347e-10 DIIS
   @RHF iter  15:  -388.01167437933725    2.27374e-12   3.75191e-10 DIIS
   @RHF iter  16:  -388.01167437933992   -2.67164e-12   1.47812e-10 DIIS
   @RHF iter  17:  -388.01167437933884    1.08002e-12   6.48921e-11 DIIS
  Energy and wave function converged.

  ==> Post-Iterations <==

    Orbital Energies [Eh]
    ---------------------

    Doubly Occupied:

       1A    -11.239037     2A    -11.235626     3A    -11.233838
       4A    -11.232101     5A    -11.230138     6A    -11.229586
       7A    -11.227909     8A    -11.212373     9A    -11.211772
      10A    -11.210809    11A     -1.156459    12A     -1.062084
      13A     -1.049286    14A     -1.011107    15A     -0.933993
      16A     -0.911292    17A     -0.827823    18A     -0.797580
      19A     -0.794384    20A     -0.693220    21A     -0.635769
      22A     -0.634341    23A     -0.629055    24A     -0.608843
      25A     -0.580717    26A     -0.578605    27A     -0.564690
      28A     -0.539558    29A     -0.537849    30A     -0.512520
      31A     -0.489792    32A     -0.485614    33A     -0.482713
      34A     -0.481663    35A     -0.467045    36A     -0.451650
      37A     -0.331020    38A     -0.325627

    Virtual:

      39A      0.134674    40A      0.139856    41A      0.169407
      42A      0.191477    43A      0.203017    44A      0.216762
      45A      0.223583    46A      0.228152    47A      0.246893
      48A      0.251631    49A      0.262613    50A      0.266062
      51A      0.277061    52A      0.288553    53A      0.295577
      54A      0.301492    55A      0.331302    56A      0.342230
      57A      0.368193    58A      0.375444    59A      0.388829
      60A      0.430300    61A      0.456735    62A      0.463505
      63A      0.481654    64A      0.499953    65A      0.562145
      66A      0.577636    67A      0.596355    68A      0.609542
      69A      0.622587    70A      0.631377    71A      0.639890
      72A      0.660361    73A      0.683505    74A      0.690120
      75A      0.702829    76A      0.714850    77A      0.739082
      78A      0.746370    79A      0.752912    80A      0.761819
      81A      0.775434    82A      0.778831    83A      0.784836
      84A      0.798953    85A      0.820793    86A      0.837732
      87A      0.844281    88A      0.855408    89A      0.860078
      90A      0.869936    91A      0.874679    92A      0.881174
      93A      0.887594    94A      0.893633    95A      0.900444
      96A      0.906150    97A      0.915931    98A      0.919607
      99A      0.926956   100A      0.931449   101A      0.939576
     102A      0.942856   103A      0.975677   104A      0.981884
     105A      0.999130   106A      1.009053   107A      1.036922
     108A      1.066731   109A      1.093554   110A      1.118252
     111A      1.132688   112A      1.141571   113A      1.154845
     114A      1.165448   115A      1.189091   116A      1.236916
     117A      1.242714   118A      1.247354   119A      1.258407
     120A      1.268951   121A      1.300347   122A      1.308515
     123A      1.328254   124A      1.334249   125A      1.407483
     126A      1.415940   127A      1.463545   128A      1.489069
     129A      1.511938   130A      1.520869   131A      1.552452
     132A      1.603136   133A      1.624492   134A      1.627123
     135A      1.630047   136A      1.676388   137A      1.697422
     138A      1.721908   139A      1.734464   140A      1.741204
     141A      1.750388   142A      1.768554   143A      1.793223
     144A      1.805404   145A      1.810409   146A      1.857074
     147A      1.863467   148A      1.880697   149A      1.886201
     150A      1.896707   151A      1.905784   152A      1.912255
     153A      1.920216   154A      1.925068   155A      1.935345
     156A      1.943050   157A      1.948198   158A      1.955574
     159A      1.967971   160A      1.979711   161A      1.982639
     162A      1.993235   163A      2.005898   164A      2.012399
     165A      2.018891   166A      2.028993   167A      2.048522
     168A      2.059511   169A      2.076400   170A      2.113838
     171A      2.114291   172A      2.140397   173A      2.147263
     174A      2.160931   175A      2.169254   176A      2.186410
     177A      2.187775   178A      2.201049   179A      2.244015
     180A      2.269539   181A      2.283666   182A      2.291683
     183A      2.301895   184A      2.303951   185A      2.310085
     186A      2.336455   187A      2.357267   188A      2.441774
     189A      2.454308   190A      2.468740   191A      2.480178
     192A      2.500067   193A      2.513092   194A      2.550936
     195A      2.551668   196A      2.622657   197A      2.642179
     198A      2.695091   199A      2.740405   200A      2.759759
     201A      2.765745   202A      2.767709   203A      2.787161
     204A      2.790313   205A      2.800408   206A      2.823176
     207A      2.836586   208A      2.854782   209A      2.873019
     210A      2.874629   211A      2.924077   212A      2.959829
     213A      2.995132   214A      3.015824   215A      3.025651
     216A      3.065833   217A      3.161671   218A      3.210836
     219A      3.306809   220A      3.979270

    Final Occupation by Irrep:
              A
    DOCC [    38 ]

  @RHF Final Energy:  -388.01167437933884

   => Energetics <=

    Nuclear Repulsion Energy =            481.7627855491311948
    One-Electron Energy =               -1477.8739431950123162
    Two-Electron Energy =                 608.0994832665422791
    Total Energy =                       -388.0116743793388423

Computation Completed

Properties will be evaluated at   0.000000,   0.000000,   0.000000 [a0]

Properties computed using the SCF density matrix

  Nuclear Dipole Moment: [e a0]
     X:    10.9861      Y:     3.8415      Z:    -6.1982

  Electronic Dipole Moment: [e a0]
     X:   -11.0940      Y:    -3.9972      Z:     6.1378

  Dipole Moment: [e a0]
     X:    -0.1079      Y:    -0.1557      Z:    -0.0604     Total:     0.1988

  Dipole Moment: [D]
     X:    -0.2742      Y:    -0.3957      Z:    -0.1535     Total:     0.5053

*** tstop() called on ds3 at Tue Apr 28 09:36:01 2020
Module time:
	user time   =     102.52 seconds =       1.71 minutes
	system time =      43.92 seconds =       0.73 minutes
	total time  =        181 seconds =       3.02 minutes
Total time:
	user time   =     102.52 seconds =       1.71 minutes
	system time =      43.92 seconds =       0.73 minutes
	total time  =        181 seconds =       3.02 minutes
                                     G D M A

                                 by Anthony Stone

                           version 2.2.06, 22 June 2011

               Distributed Multipoles from Gaussian wavefunctions

Starting at 9:36:1 on 28 Apr 2020

Using SCF density matrix from file ./SSI/SSI-077PHE-162PRO-1-dimer.test.10755.fchk

                         Distributed Multipole Analysis

Standard DMA

Positions and radii in angstrom
Multipole moments in atomic units, ea_0^k for rank k

C          x = -2.527821  y = -2.129915  z = -1.177772 angstrom
           Maximum rank =  0   Radius =  0.650 angstrom
                   Q00  =  -0.204168

C          x = -0.608821  y =  0.736085  z =  0.371228 angstrom
           Maximum rank =  0   Radius =  0.650 angstrom
                   Q00  =  -0.057409

C          x = -0.729821  y =  0.489085  z =  1.726228 angstrom
           Maximum rank =  0   Radius =  0.650 angstrom
                   Q00  =  -0.097177

C          x = -1.172821  y = -0.139915  z = -0.545772 angstrom
           Maximum rank =  0   Radius =  0.650 angstrom
                   Q00  =  -0.010042

C          x = -1.905821  y = -1.242915  z = -0.142772 angstrom
           Maximum rank =  0   Radius =  0.650 angstrom
                   Q00  =  -0.098278

C          x = -1.445821  y = -0.608915  z =  2.159228 angstrom
           Maximum rank =  0   Radius =  0.650 angstrom
                   Q00  =  -0.078729

C          x = -2.032821  y = -1.472915  z =  1.222228 angstrom
           Maximum rank =  0   Radius =  0.650 angstrom
                   Q00  =  -0.055328

H          x = -0.059821  y =  1.601085  z =  0.025228 angstrom
           Maximum rank =  0   Radius =  0.325 angstrom
                   Q00  =   0.062704

H          x = -0.273821  y =  1.157085  z =  2.441228 angstrom
           Maximum rank =  0   Radius =  0.325 angstrom
                   Q00  =   0.060366

H          x = -1.063821  y =  0.065085  z = -1.597772 angstrom
           Maximum rank =  0   Radius =  0.325 angstrom
                   Q00  =   0.052139

H          x = -1.542821  y = -0.805915  z =  3.216228 angstrom
           Maximum rank =  0   Radius =  0.325 angstrom
                   Q00  =   0.065403

H          x = -2.855821  y = -1.513915  z = -2.016772 angstrom
           Maximum rank =  0   Radius =  0.325 angstrom
                   Q00  =   0.099640

H          x = -3.399821  y = -2.591915  z = -0.715772 angstrom
           Maximum rank =  0   Radius =  0.325 angstrom
                   Q00  =   0.097198

H          x = -2.595821  y = -2.325915  z =  1.573228 angstrom
           Maximum rank =  0   Radius =  0.325 angstrom
                   Q00  =   0.057003

H          x = -1.870247  y = -2.932026  z = -1.544122 angstrom
           Maximum rank =  0   Radius =  0.325 angstrom
                   Q00  =   0.106523

C          x =  2.916179  y =  0.761085  z = -1.113772 angstrom
           Maximum rank =  0   Radius =  0.650 angstrom
                   Q00  =  -0.090437

C          x =  3.171179  y =  1.830085  z = -2.146772 angstrom
           Maximum rank =  0   Radius =  0.650 angstrom
                   Q00  =  -0.232216

C          x =  3.352179  y =  1.434085  z =  0.203228 angstrom
           Maximum rank =  0   Radius =  0.650 angstrom
                   Q00  =  -0.218159

H          x =  3.494179  y = -0.139915  z = -1.317772 angstrom
           Maximum rank =  0   Radius =  0.325 angstrom
                   Q00  =   0.056826

H          x =  1.851179  y =  0.530085  z = -1.077772 angstrom
           Maximum rank =  0   Radius =  0.325 angstrom
                   Q00  =   0.055611

H          x =  4.223179  y =  1.836085  z = -2.439772 angstrom
           Maximum rank =  0   Radius =  0.325 angstrom
                   Q00  =   0.078258

H          x =  2.525179  y =  1.665085  z = -3.009772 angstrom
           Maximum rank =  0   Radius =  0.325 angstrom
                   Q00  =   0.075577

H          x =  4.421179  y =  1.268085  z =  0.339228 angstrom
           Maximum rank =  0   Radius =  0.325 angstrom
                   Q00  =   0.080297

H          x =  2.805179  y =  1.022085  z =  1.053228 angstrom
           Maximum rank =  0   Radius =  0.325 angstrom
                   Q00  =   0.084605

H          x =  2.925785  y =  2.758545  z = -1.610352 angstrom
           Maximum rank =  0   Radius =  0.325 angstrom
                   Q00  =   0.058127

H          x =  3.135010  y =  2.504165  z =  0.069918 angstrom
           Maximum rank =  0   Radius =  0.325 angstrom
                   Q00  =   0.051665

Total multipoles referred to origin at
           x =   0.000000,  y =    0.000000,  z =    0.000000 angstrom
                   Q00  =  -0.000000

Finished at 9:36:1 on 28 Apr 2020

  DMA results are available in the Python driver through the
	  variable('DMA DISTRIBUTED MULTIPOLES')
  and
	  variable('DMA TOTAL MULTIPOLES')
  commands.

    Psi4 stopped on: Tuesday, 28 April 2020 09:36AM
    Psi4 wall time for execution: 0:03:01.37

*** Psi4 exiting successfully. Buy a developer a beer!
