                               Psi4 1.3.2 release

  ==> Input File <==

--------------------------------------------------------------------------
import numpy as np
set {scf_type pk
basis cc-pvdz
d_convergence 10
gdma_switch   0
gdma_limit    0
gdma_origin   [ 0.0,  0.0,  0.0 ]
}
molecule test {
    units Angstrom
    -1 1
    --
    -1 1
    C                4.094842246010903    -0.003914651515471    -2.346995055693005
    C               -0.007157753989097    -0.218914651515471    -1.053995055693006
    C                0.336842246010903    -0.529914651515471    -2.360995055693006
    C                0.979842246010903     0.151085348484529    -0.138995055693006
    C                1.663842246010903    -0.466914651515471    -2.754995055693005
    C                2.315842246010903     0.210085348484529    -0.546995055693006
    C                2.666842246010903    -0.109914651515471    -1.859995055693006
    O               -1.315157753989097    -0.288914651515471    -0.694995055693006
    H               -1.877157753989097    -0.538914651515471    -1.430995055693006
    H               -0.424157753989097    -0.811914651515471    -3.074995055693006
    H                0.701842246010903     0.387085348484529     0.876004944306994
    H                1.923842246010903    -0.688914651515471    -3.777995055693006
    H                3.079842246010903     0.505085348484529     0.157004944306994
    H                4.339842246010904    -0.885914651515471    -2.938995055693006
    H                4.770842246010903     0.035085348484529    -1.495995055693005
    H                4.219542246010902     0.899106348484529    -2.962626055693006
    C               -1.654157753989097     0.114085348484529     3.904004944306994
    C               -2.420157753989097     0.305085348484529     2.613004944306994
    O               -1.826157753989097     0.804085348484529     1.641004944306995
    O               -3.622157753989097    -0.041914651515471     2.588004944306995
    H               -1.285157753989097    -0.912914651515471     3.945004944306994
    H               -2.293157753989097     0.249085348484529     4.769004944306995
    H               -0.790667753989097     0.791818348484529     3.975114944306994

}
e, wfn = energy('scf', return_wfn=True)
gdma(wfn)
dmavals = variable('DMA DISTRIBUTED MULTIPOLES')
charges = np.array(dmavals)
print(charges)
np.save('SSI-010TYR-017GLU-1-dimer.npy', np.array(charges))--------------------------------------------------------------------------

*** tstart() called on ds3
*** at Mon Apr 27 11:57:02 2020

   => Loading Basis Set <=

    Name: CC-PVDZ
    Role: ORBITAL
    Keyword: BASIS
    atoms 1-7, 17-18  entry C          line   138 file /theoryfs2/ds/metcalf/miniconda2/envs/tf2gpu/share/psi4/basis/cc-pvdz.gbs
    atoms 8, 19-20    entry O          line   198 file /theoryfs2/ds/metcalf/miniconda2/envs/tf2gpu/share/psi4/basis/cc-pvdz.gbs
    atoms 9-16, 21-23 entry H          line    22 file /theoryfs2/ds/metcalf/miniconda2/envs/tf2gpu/share/psi4/basis/cc-pvdz.gbs

         ---------------------------------------------------------
                                   SCF
               by Justin Turney, Rob Parrish, Andy Simmonett
                          and Daniel G. A. Smith
                              RHF Reference
                        1 Threads,    500 MiB Core
         ---------------------------------------------------------

  ==> Geometry <==

    Molecular point group: c1
    Full point group: C1

    Geometry (in Angstrom), charge = -1, multiplicity = 1:

       Center              X                  Y                   Z               Mass
    ------------   -----------------  -----------------  -----------------  -----------------
         C            4.094842246011    -0.003914651515    -2.346995055693    12.000000000000
         C           -0.007157753989    -0.218914651515    -1.053995055693    12.000000000000
         C            0.336842246011    -0.529914651515    -2.360995055693    12.000000000000
         C            0.979842246011     0.151085348485    -0.138995055693    12.000000000000
         C            1.663842246011    -0.466914651515    -2.754995055693    12.000000000000
         C            2.315842246011     0.210085348485    -0.546995055693    12.000000000000
         C            2.666842246011    -0.109914651515    -1.859995055693    12.000000000000
         O           -1.315157753989    -0.288914651515    -0.694995055693    15.994914619570
         H           -1.877157753989    -0.538914651515    -1.430995055693     1.007825032230
         H           -0.424157753989    -0.811914651515    -3.074995055693     1.007825032230
         H            0.701842246011     0.387085348485     0.876004944307     1.007825032230
         H            1.923842246011    -0.688914651515    -3.777995055693     1.007825032230
         H            3.079842246011     0.505085348485     0.157004944307     1.007825032230
         H            4.339842246011    -0.885914651515    -2.938995055693     1.007825032230
         H            4.770842246011     0.035085348485    -1.495995055693     1.007825032230
         H            4.219542246011     0.899106348485    -2.962626055693     1.007825032230
         C           -1.654157753989     0.114085348485     3.904004944307    12.000000000000
         C           -2.420157753989     0.305085348485     2.613004944307    12.000000000000
         O           -1.826157753989     0.804085348485     1.641004944307    15.994914619570
         O           -3.622157753989    -0.041914651515     2.588004944307    15.994914619570
         H           -1.285157753989    -0.912914651515     3.945004944307     1.007825032230
         H           -2.293157753989     0.249085348485     4.769004944307     1.007825032230
         H           -0.790667753989     0.791818348485     3.975114944307     1.007825032230

  Running in c1 symmetry.

  Rotational constants: A =      0.07846  B =      0.01118  C =      0.00995 [cm^-1]
  Rotational constants: A =   2352.03461  B =    335.20097  C =    298.41146 [MHz]
  Nuclear repulsion =  634.143170838837023

  Charge       = -1
  Multiplicity = 1
  Electrons    = 90
  Nalpha       = 45
  Nbeta        = 45

  ==> Algorithm <==

  SCF Algorithm Type is PK.
  DIIS enabled.
  MOM disabled.
  Fractional occupation disabled.
  Guess Type is SAD.
  Energy threshold   = 1.00e-06
  Density threshold  = 1.00e-10
  Integral threshold = 0.00e+00

  ==> Primary Basis <==

  Basis Set: CC-PVDZ
    Blend: CC-PVDZ
    Number of shells: 105
    Number of basis function: 223
    Number of Cartesian functions: 235
    Spherical Harmonics?: true
    Max angular momentum: 2

  ==> Pre-Iterations <==

   -------------------------------------------------------
    Irrep   Nso     Nmo     Nalpha   Nbeta   Ndocc  Nsocc
   -------------------------------------------------------
     A        223     223       0       0       0       0
   -------------------------------------------------------
    Total     223     223      45      45      45       0
   -------------------------------------------------------

  ==> Integral Setup <==

  Using integral reordering PK algorithm.
  Sizing the integral batches needed.
  Building batch lookup table.
   Calculation information:
      Number of atoms:                  23
      Number of AO shells:             105
      Number of primitives:            319
      Number of atomic orbitals:       235
      Number of basis functions:       223

      Integral cutoff                 1.00e-12
      Number of threads:                 1

	Batch   1 pq = [       0,    9405] index = [             0,44231715] size =     44231715
	Batch   2 pq = [    9405,   13301] index = [      44231715,88464951] size =     44233236
	Batch   3 pq = [   13301,   16290] index = [      88464951,132690195] size =     44225244
	Batch   4 pq = [   16290,   18810] index = [     132690195,176917455] size =     44227260
	Batch   5 pq = [   18810,   21030] index = [     176917455,221140965] size =     44223510
	Batch   6 pq = [   21030,   23037] index = [     221140965,265363203] size =     44222238
	Batch   7 pq = [   23037,   24976] index = [     265363203,311912776] size =     46549573
  Task number: 29
  Buffer size: 11059200
  Buffer per thread: 2
  We computed 11678031 shell quartets total.
  Whereas there are 15487395 unique shell quartets.

  ==> DiskJK: Disk-Based J/K Matrices <==

    J tasked:                  Yes
    K tasked:                  Yes
    wK tasked:                  No
    Memory [MiB]:              375
    Schwarz Cutoff:          1E-12

    OpenMP threads:              1

  Minimum eigenvalue in the overlap matrix is 3.1862789972E-04.
  Using Symmetric Orthogonalization.

  SCF Guess: Superposition of Atomic Densities via on-the-fly atomic UHF.

  ==> Iterations <==

                        Total Energy        Delta E     RMS |[F,P]|

   @RHF iter SAD:  -570.22687268750951   -5.70227e+02   0.00000e+00
   @RHF iter   1:  -571.48390091043279   -1.25703e+00   3.75177e-03 DIIS
   @RHF iter   2:  -571.77581628960058   -2.91915e-01   1.99774e-03 DIIS
   @RHF iter   3:  -571.84953409514458   -7.37178e-02   3.46596e-04 DIIS
   @RHF iter   4:  -571.85340321390890   -3.86912e-03   1.26135e-04 DIIS
   @RHF iter   5:  -571.85393421022150   -5.30996e-04   2.15150e-05 DIIS
   @RHF iter   6:  -571.85395556147887   -2.13513e-05   8.41377e-06 DIIS
   @RHF iter   7:  -571.85395833366329   -2.77218e-06   3.49471e-06 DIIS
   @RHF iter   8:  -571.85395890662437   -5.72961e-07   1.05916e-06 DIIS
   @RHF iter   9:  -571.85395900977687   -1.03153e-07   4.54418e-07 DIIS
   @RHF iter  10:  -571.85395903034271   -2.05658e-08   1.96904e-07 DIIS
   @RHF iter  11:  -571.85395903594156   -5.59885e-09   8.85327e-08 DIIS
   @RHF iter  12:  -571.85395903692597   -9.84414e-10   4.35827e-08 DIIS
   @RHF iter  13:  -571.85395903711367   -1.87697e-10   1.17147e-08 DIIS
   @RHF iter  14:  -571.85395903712720   -1.35287e-11   4.01080e-09 DIIS
   @RHF iter  15:  -571.85395903713197   -4.77485e-12   1.68394e-09 DIIS
   @RHF iter  16:  -571.85395903712720    4.77485e-12   7.36223e-10 DIIS
   @RHF iter  17:  -571.85395903713015   -2.95586e-12   3.43850e-10 DIIS
   @RHF iter  18:  -571.85395903712720    2.95586e-12   1.17982e-10 DIIS
   @RHF iter  19:  -571.85395903712947   -2.27374e-12   4.86420e-11 DIIS
  Energy and wave function converged.

  ==> Post-Iterations <==

    Orbital Energies [Eh]
    ---------------------

    Doubly Occupied:

       1A    -20.445916     2A    -20.251757     3A    -20.246902
       4A    -11.186153     5A    -11.147365     6A    -11.137937
       7A    -11.136365     8A    -11.133603     9A    -11.127405
      10A    -11.115897    11A    -11.105872    12A    -11.043568
      13A     -1.268946    14A     -1.142299    15A     -1.048056
      16A     -1.028791    17A     -0.937847    18A     -0.913072
      19A     -0.829992    20A     -0.792370    21A     -0.737741
      22A     -0.694874    23A     -0.616670    24A     -0.561514
      25A     -0.535594    26A     -0.503903    27A     -0.495754
      28A     -0.494132    29A     -0.481274    30A     -0.462424
      31A     -0.453387    32A     -0.421698    33A     -0.404471
      34A     -0.402640    35A     -0.399259    36A     -0.396447
      37A     -0.371507    38A     -0.359663    39A     -0.333352
      40A     -0.294813    41A     -0.236131    42A     -0.191652
      43A     -0.173718    44A     -0.163202    45A     -0.151360

    Virtual:

      46A      0.233607    47A      0.259207    48A      0.266672
      49A      0.286131    50A      0.310713    51A      0.317802
      52A      0.345956    53A      0.350264    54A      0.365194
      55A      0.371062    56A      0.399826    57A      0.412156
      58A      0.445327    59A      0.456418    60A      0.477696
      61A      0.496043    62A      0.541583    63A      0.562367
      64A      0.582921    65A      0.587567    66A      0.593580
      67A      0.611977    68A      0.700565    69A      0.708676
      70A      0.720592    71A      0.731478    72A      0.759390
      73A      0.767005    74A      0.790342    75A      0.797708
      76A      0.811174    77A      0.825969    78A      0.830959
      79A      0.838549    80A      0.844401    81A      0.866707
      82A      0.872391    83A      0.886028    84A      0.886591
      85A      0.897050    86A      0.927514    87A      0.944277
      88A      0.952814    89A      0.964229    90A      0.967277
      91A      0.977725    92A      0.982719    93A      0.995587
      94A      1.011220    95A      1.017471    96A      1.033629
      97A      1.036190    98A      1.040518    99A      1.043642
     100A      1.052603   101A      1.053238   102A      1.086820
     103A      1.132606   104A      1.140543   105A      1.153359
     106A      1.168403   107A      1.228955   108A      1.237592
     109A      1.249697   110A      1.256744   111A      1.265655
     112A      1.302373   113A      1.332765   114A      1.348638
     115A      1.350831   116A      1.351846   117A      1.376183
     118A      1.384842   119A      1.395586   120A      1.412380
     121A      1.420553   122A      1.459260   123A      1.465812
     124A      1.480938   125A      1.489453   126A      1.547225
     127A      1.567015   128A      1.589600   129A      1.598824
     130A      1.612360   131A      1.626965   132A      1.639376
     133A      1.654997   134A      1.677563   135A      1.741358
     136A      1.754547   137A      1.762189   138A      1.774031
     139A      1.782333   140A      1.835042   141A      1.843712
     142A      1.848178   143A      1.855760   144A      1.878280
     145A      1.900995   146A      1.912178   147A      1.944411
     148A      1.972813   149A      1.981235   150A      1.995750
     151A      2.020703   152A      2.021748   153A      2.042951
     154A      2.044084   155A      2.056655   156A      2.062458
     157A      2.068607   158A      2.087756   159A      2.097366
     160A      2.105168   161A      2.140723   162A      2.154344
     163A      2.163919   164A      2.170399   165A      2.175563
     166A      2.183132   167A      2.215477   168A      2.229143
     169A      2.253697   170A      2.272358   171A      2.285384
     172A      2.304877   173A      2.327608   174A      2.349722
     175A      2.375011   176A      2.378702   177A      2.397849
     178A      2.430899   179A      2.439099   180A      2.442709
     181A      2.497601   182A      2.504070   183A      2.564429
     184A      2.571005   185A      2.590569   186A      2.597681
     187A      2.625552   188A      2.680188   189A      2.691271
     190A      2.704067   191A      2.732002   192A      2.772694
     193A      2.785668   194A      2.844921   195A      2.860894
     196A      2.894508   197A      2.911778   198A      2.917860
     199A      2.927058   200A      2.984638   201A      2.994457
     202A      3.005718   203A      3.068223   204A      3.111992
     205A      3.191305   206A      3.214186   207A      3.255017
     208A      3.285072   209A      3.307649   210A      3.371870
     211A      3.392051   212A      3.393802   213A      3.486899
     214A      3.645830   215A      3.735488   216A      3.808314
     217A      3.818996   218A      3.851577   219A      4.073891
     220A      4.109648   221A      4.124037   222A      4.213127
     223A      4.341908

    Final Occupation by Irrep:
              A
    DOCC [    45 ]

  @RHF Final Energy:  -571.85395903712947

   => Energetics <=

    Nuclear Repulsion Energy =            634.1431708388370225
    One-Electron Energy =               -2053.2396802563639540
    Two-Electron Energy =                 847.2425503803974607
    Total Energy =                       -571.8539590371294707

Computation Completed

Properties will be evaluated at   0.000000,   0.000000,   0.000000 [a0]

Properties computed using the SCF density matrix

  Nuclear Dipole Moment: [e a0]
     X:    11.5597      Y:    -0.9083      Z:    -1.8200

  Electronic Dipole Moment: [e a0]
     X:    -7.0579      Y:     0.1505      Z:    -1.9302

  Dipole Moment: [e a0]
     X:     4.5018      Y:    -0.7578      Z:    -3.7501     Total:     5.9080

  Dipole Moment: [D]
     X:    11.4426      Y:    -1.9261      Z:    -9.5319     Total:    15.0166

*** tstop() called on ds3 at Mon Apr 27 12:08:56 2020
Module time:
	user time   =     101.92 seconds =       1.70 minutes
	system time =      55.22 seconds =       0.92 minutes
	total time  =        714 seconds =      11.90 minutes
Total time:
	user time   =     101.92 seconds =       1.70 minutes
	system time =      55.22 seconds =       0.92 minutes
	total time  =        714 seconds =      11.90 minutes
                                     G D M A

                                 by Anthony Stone

                           version 2.2.06, 22 June 2011

               Distributed Multipoles from Gaussian wavefunctions

Starting at 12:8:56 on 27 Apr 2020

Using SCF density matrix from file ./SSI/SSI-010TYR-017GLU-1-dimer.test.3175.fchk

                         Distributed Multipole Analysis

Standard DMA

Positions and radii in angstrom
Multipole moments in atomic units, ea_0^k for rank k

C          x =  4.094842  y = -0.003915  z = -2.346995 angstrom
           Maximum rank =  0   Radius =  0.650 angstrom
                   Q00  =  -0.197025

C          x = -0.007158  y = -0.218915  z = -1.053995 angstrom
           Maximum rank =  0   Radius =  0.650 angstrom
                   Q00  =   0.346060

C          x =  0.336842  y = -0.529915  z = -2.360995 angstrom
           Maximum rank =  0   Radius =  0.650 angstrom
                   Q00  =  -0.178859

C          x =  0.979842  y =  0.151085  z = -0.138995 angstrom
           Maximum rank =  0   Radius =  0.650 angstrom
                   Q00  =  -0.073585

C          x =  1.663842  y = -0.466915  z = -2.754995 angstrom
           Maximum rank =  0   Radius =  0.650 angstrom
                   Q00  =   0.038961

C          x =  2.315842  y =  0.210085  z = -0.546995 angstrom
           Maximum rank =  0   Radius =  0.650 angstrom
                   Q00  =  -0.058440

C          x =  2.666842  y = -0.109915  z = -1.859995 angstrom
           Maximum rank =  0   Radius =  0.650 angstrom
                   Q00  =  -0.152414

O          x = -1.315158  y = -0.288915  z = -0.694995 angstrom
           Maximum rank =  0   Radius =  0.650 angstrom
                   Q00  =  -0.590757

H          x = -1.877158  y = -0.538915  z = -1.430995 angstrom
           Maximum rank =  0   Radius =  0.325 angstrom
                   Q00  =   0.374055

H          x = -0.424158  y = -0.811915  z = -3.074995 angstrom
           Maximum rank =  0   Radius =  0.325 angstrom
                   Q00  =   0.052114

H          x =  0.701842  y =  0.387085  z =  0.876005 angstrom
           Maximum rank =  0   Radius =  0.325 angstrom
                   Q00  =   0.093423

H          x =  1.923842  y = -0.688915  z = -3.777995 angstrom
           Maximum rank =  0   Radius =  0.325 angstrom
                   Q00  =   0.037457

H          x =  3.079842  y =  0.505085  z =  0.157005 angstrom
           Maximum rank =  0   Radius =  0.325 angstrom
                   Q00  =   0.044548

H          x =  4.339842  y = -0.885915  z = -2.938995 angstrom
           Maximum rank =  0   Radius =  0.325 angstrom
                   Q00  =   0.081516

H          x =  4.770842  y =  0.035085  z = -1.495995 angstrom
           Maximum rank =  0   Radius =  0.325 angstrom
                   Q00  =   0.088957

H          x =  4.219542  y =  0.899106  z = -2.962626 angstrom
           Maximum rank =  0   Radius =  0.325 angstrom
                   Q00  =   0.083544

C          x = -1.654158  y =  0.114085  z =  3.904005 angstrom
           Maximum rank =  0   Radius =  0.650 angstrom
                   Q00  =  -0.282165

C          x = -2.420158  y =  0.305085  z =  2.613005 angstrom
           Maximum rank =  0   Radius =  0.650 angstrom
                   Q00  =   0.978019

O          x = -1.826158  y =  0.804085  z =  1.641005 angstrom
           Maximum rank =  0   Radius =  0.650 angstrom
                   Q00  =  -0.916669

O          x = -3.622158  y = -0.041915  z =  2.588005 angstrom
           Maximum rank =  0   Radius =  0.650 angstrom
                   Q00  =  -0.941452

H          x = -1.285158  y = -0.912915  z =  3.945005 angstrom
           Maximum rank =  0   Radius =  0.325 angstrom
                   Q00  =   0.073465

H          x = -2.293158  y =  0.249085  z =  4.769005 angstrom
           Maximum rank =  0   Radius =  0.325 angstrom
                   Q00  =   0.054632

H          x = -0.790668  y =  0.791818  z =  3.975115 angstrom
           Maximum rank =  0   Radius =  0.325 angstrom
                   Q00  =   0.044615

Total multipoles referred to origin at
           x =   0.000000,  y =    0.000000,  z =    0.000000 angstrom
                   Q00  =  -1.000000

Finished at 12:8:56 on 27 Apr 2020

  DMA results are available in the Python driver through the
	  variable('DMA DISTRIBUTED MULTIPOLES')
  and
	  variable('DMA TOTAL MULTIPOLES')
  commands.

    Psi4 stopped on: Monday, 27 April 2020 12:08PM
    Psi4 wall time for execution: 0:11:54.30

*** Psi4 exiting successfully. Buy a developer a beer!
