                               Psi4 1.3.2 release

  ==> Input File <==

--------------------------------------------------------------------------
import numpy as np
set {scf_type pk
basis cc-pvdz
d_convergence 10
gdma_switch   0
gdma_limit    0
gdma_origin   [ 0.0,  0.0,  0.0 ]
}
molecule test {
    units Angstrom
    0 1
    --
    0 1
    C                0.704242542714065    -1.300996411541031     2.882224387975707
    C               -0.425757457285935     0.493003588458969     1.540224387975707
    C                0.708242542714065    -0.278996411541031     1.788224387975707
    C               -0.397757457285935     1.479003588458969     0.550224387975707
    C                1.866242542714065    -0.057996411541031     1.044224387975707
    C                0.762242542714065     1.688003588458969    -0.183775612024293
    C                1.895242542714065     0.925003588458969     0.061224387975707
    H               -1.325757457285935     0.338003588458969     2.118224387975707
    H               -1.277757457285935     2.079003588458969     0.357224387975707
    H                1.327242542714065    -2.139996411541031     2.571224387975707
    H               -0.309757457285935    -1.679996411541031     3.009224387975707
    H                2.752242542714065    -0.644996411541031     1.236224387975707
    H                0.779242542714065     2.443003588458969    -0.955775612024293
    H                2.799242542714065     1.096003588458969    -0.505775612024293
    H                1.080379542714065    -0.912636411541031     3.840184387975707
    C               -1.841757457285935    -0.721996411541031    -1.802775612024293
    C               -1.652757457285935    -2.016996411541030    -2.569775612024293
    C               -1.100757457285935     0.298003588458969    -2.655775612024293
    H               -1.420757457285935    -0.796996411541031    -0.800775612024293
    H               -2.901757457285935    -0.467996411541031    -1.753775612024293
    H               -0.684757457285935    -2.458996411541031    -2.330775612024293
    H               -2.468757457285935    -2.702996411541031    -2.341775612024293
    H               -0.026757457285935     0.184003588458969    -2.519775612024293
    H               -1.412757457285935     1.318003588458969    -2.426775612024293
    H               -1.668488257285935    -1.678406411541031    -3.616255612024293
    H               -1.401940257285935    -0.000286411541031    -3.670815612024293

}
e, wfn = energy('scf', return_wfn=True)
gdma(wfn)
dmavals = variable('DMA DISTRIBUTED MULTIPOLES')
charges = np.array(dmavals)
print(charges)
np.save('SSI-007PHE-021PRO-1-dimer.npy', np.array(charges))--------------------------------------------------------------------------

*** tstart() called on ds3
*** at Mon Apr 27 14:14:06 2020

   => Loading Basis Set <=

    Name: CC-PVDZ
    Role: ORBITAL
    Keyword: BASIS
    atoms 1-7, 16-18  entry C          line   138 file /theoryfs2/ds/metcalf/miniconda2/envs/tf2gpu/share/psi4/basis/cc-pvdz.gbs
    atoms 8-15, 19-26 entry H          line    22 file /theoryfs2/ds/metcalf/miniconda2/envs/tf2gpu/share/psi4/basis/cc-pvdz.gbs

         ---------------------------------------------------------
                                   SCF
               by Justin Turney, Rob Parrish, Andy Simmonett
                          and Daniel G. A. Smith
                              RHF Reference
                        1 Threads,    500 MiB Core
         ---------------------------------------------------------

  ==> Geometry <==

    Molecular point group: c1
    Full point group: C1

    Geometry (in Angstrom), charge = 0, multiplicity = 1:

       Center              X                  Y                   Z               Mass
    ------------   -----------------  -----------------  -----------------  -----------------
         C            0.704242542714    -1.300996411541     2.882224387976    12.000000000000
         C           -0.425757457286     0.493003588459     1.540224387976    12.000000000000
         C            0.708242542714    -0.278996411541     1.788224387976    12.000000000000
         C           -0.397757457286     1.479003588459     0.550224387976    12.000000000000
         C            1.866242542714    -0.057996411541     1.044224387976    12.000000000000
         C            0.762242542714     1.688003588459    -0.183775612024    12.000000000000
         C            1.895242542714     0.925003588459     0.061224387976    12.000000000000
         H           -1.325757457286     0.338003588459     2.118224387976     1.007825032230
         H           -1.277757457286     2.079003588459     0.357224387976     1.007825032230
         H            1.327242542714    -2.139996411541     2.571224387976     1.007825032230
         H           -0.309757457286    -1.679996411541     3.009224387976     1.007825032230
         H            2.752242542714    -0.644996411541     1.236224387976     1.007825032230
         H            0.779242542714     2.443003588459    -0.955775612024     1.007825032230
         H            2.799242542714     1.096003588459    -0.505775612024     1.007825032230
         H            1.080379542714    -0.912636411541     3.840184387976     1.007825032230
         C           -1.841757457286    -0.721996411541    -1.802775612024    12.000000000000
         C           -1.652757457286    -2.016996411541    -2.569775612024    12.000000000000
         C           -1.100757457286     0.298003588459    -2.655775612024    12.000000000000
         H           -1.420757457286    -0.796996411541    -0.800775612024     1.007825032230
         H           -2.901757457286    -0.467996411541    -1.753775612024     1.007825032230
         H           -0.684757457286    -2.458996411541    -2.330775612024     1.007825032230
         H           -2.468757457286    -2.702996411541    -2.341775612024     1.007825032230
         H           -0.026757457286     0.184003588459    -2.519775612024     1.007825032230
         H           -1.412757457286     1.318003588459    -2.426775612024     1.007825032230
         H           -1.668488257286    -1.678406411541    -3.616255612024     1.007825032230
         H           -1.401940257286    -0.000286411541    -3.670815612024     1.007825032230

  Running in c1 symmetry.

  Rotational constants: A =      0.05638  B =      0.02387  C =      0.02062 [cm^-1]
  Rotational constants: A =   1690.35739  B =    715.55546  C =    618.26887 [MHz]
  Nuclear repulsion =  502.725014096676944

  Charge       = 0
  Multiplicity = 1
  Electrons    = 76
  Nalpha       = 38
  Nbeta        = 38

  ==> Algorithm <==

  SCF Algorithm Type is PK.
  DIIS enabled.
  MOM disabled.
  Fractional occupation disabled.
  Guess Type is SAD.
  Energy threshold   = 1.00e-06
  Density threshold  = 1.00e-10
  Integral threshold = 0.00e+00

  ==> Primary Basis <==

  Basis Set: CC-PVDZ
    Blend: CC-PVDZ
    Number of shells: 108
    Number of basis function: 220
    Number of Cartesian functions: 230
    Spherical Harmonics?: true
    Max angular momentum: 2

  ==> Pre-Iterations <==

   -------------------------------------------------------
    Irrep   Nso     Nmo     Nalpha   Nbeta   Ndocc  Nsocc
   -------------------------------------------------------
     A        220     220       0       0       0       0
   -------------------------------------------------------
    Total     220     220      38      38      38       0
   -------------------------------------------------------

  ==> Integral Setup <==

  Using integral reordering PK algorithm.
  Sizing the integral batches needed.
  Building batch lookup table.
   Calculation information:
      Number of atoms:                  26
      Number of AO shells:             108
      Number of primitives:            300
      Number of atomic orbitals:       230
      Number of basis functions:       220

      Integral cutoff                 1.00e-12
      Number of threads:                 1

	Batch   1 pq = [       0,    9405] index = [             0,44231715] size =     44231715
	Batch   2 pq = [    9405,   13301] index = [      44231715,88464951] size =     44233236
	Batch   3 pq = [   13301,   16290] index = [      88464951,132690195] size =     44225244
	Batch   4 pq = [   16290,   18810] index = [     132690195,176917455] size =     44227260
	Batch   5 pq = [   18810,   21030] index = [     176917455,221140965] size =     44223510
	Batch   6 pq = [   21030,   23037] index = [     221140965,265363203] size =     44222238
	Batch   7 pq = [   23037,   24310] index = [     265363203,295500205] size =     30137002
  Task number: 27
  Buffer size: 11059200
  Buffer per thread: 2
  We computed 16768506 shell quartets total.
  Whereas there are 17325441 unique shell quartets.

  ==> DiskJK: Disk-Based J/K Matrices <==

    J tasked:                  Yes
    K tasked:                  Yes
    wK tasked:                  No
    Memory [MiB]:              375
    Schwarz Cutoff:          1E-12

    OpenMP threads:              1

  Minimum eigenvalue in the overlap matrix is 3.0894032043E-04.
  Using Symmetric Orthogonalization.

  SCF Guess: Superposition of Atomic Densities via on-the-fly atomic UHF.

  ==> Iterations <==

                        Total Energy        Delta E     RMS |[F,P]|

   @RHF iter SAD:  -387.07345714618748   -3.87073e+02   0.00000e+00
   @RHF iter   1:  -387.74773336040624   -6.74276e-01   2.79441e-03 DIIS
   @RHF iter   2:  -387.96938294158917   -2.21650e-01   1.19700e-03 DIIS
   @RHF iter   3:  -388.00670041980953   -3.73175e-02   2.54858e-04 DIIS
   @RHF iter   4:  -388.00962541088779   -2.92499e-03   5.04757e-05 DIIS
   @RHF iter   5:  -388.00971165683512   -8.62459e-05   1.46811e-05 DIIS
   @RHF iter   6:  -388.00971877363145   -7.11680e-06   4.49562e-06 DIIS
   @RHF iter   7:  -388.00971947793215   -7.04301e-07   1.28847e-06 DIIS
   @RHF iter   8:  -388.00971954796813   -7.00360e-08   3.34014e-07 DIIS
   @RHF iter   9:  -388.00971955871307   -1.07449e-08   1.54020e-07 DIIS
   @RHF iter  10:  -388.00971956151466   -2.80158e-09   7.58390e-08 DIIS
   @RHF iter  11:  -388.00971956242876   -9.14099e-10   2.67882e-08 DIIS
   @RHF iter  12:  -388.00971956253130   -1.02546e-10   8.65438e-09 DIIS
   @RHF iter  13:  -388.00971956253693   -5.62750e-12   2.88930e-09 DIIS
   @RHF iter  14:  -388.00971956253704   -1.13687e-13   8.43362e-10 DIIS
   @RHF iter  15:  -388.00971956253630    7.38964e-13   3.23380e-10 DIIS
   @RHF iter  16:  -388.00971956253721   -9.09495e-13   1.60296e-10 DIIS
   @RHF iter  17:  -388.00971956253784   -6.25278e-13   7.25619e-11 DIIS
  Energy and wave function converged.

  ==> Post-Iterations <==

    Orbital Energies [Eh]
    ---------------------

    Doubly Occupied:

       1A    -11.240494     2A    -11.236149     3A    -11.235803
       4A    -11.231793     5A    -11.231119     6A    -11.230459
       7A    -11.228976     8A    -11.205834     9A    -11.205319
      10A    -11.204778    11A     -1.154430    12A     -1.059372
      13A     -1.046772    14A     -1.012836    15A     -0.931916
      16A     -0.905963    17A     -0.826745    18A     -0.796075
      19A     -0.788860    20A     -0.692021    21A     -0.632848
      22A     -0.632198    23A     -0.631348    24A     -0.604739
      25A     -0.584319    26A     -0.578957    27A     -0.562671
      28A     -0.536017    29A     -0.535367    30A     -0.505424
      31A     -0.487282    32A     -0.486325    33A     -0.481956
      34A     -0.469023    35A     -0.465414    36A     -0.450874
      37A     -0.332447    38A     -0.322360

    Virtual:

      39A      0.132131    40A      0.140240    41A      0.176684
      42A      0.195046    43A      0.204699    44A      0.210056
      45A      0.235866    46A      0.236810    47A      0.246035
      48A      0.254894    49A      0.257912    50A      0.266045
      51A      0.282850    52A      0.285482    53A      0.292605
      54A      0.315341    55A      0.326945    56A      0.341611
      57A      0.360712    58A      0.375918    59A      0.387457
      60A      0.431046    61A      0.454912    62A      0.463822
      63A      0.480779    64A      0.488391    65A      0.561121
      66A      0.571587    67A      0.578852    68A      0.600382
      69A      0.624300    70A      0.640089    71A      0.645417
      72A      0.649750    73A      0.681464    74A      0.685184
      75A      0.702505    76A      0.729636    77A      0.737501
      78A      0.739168    79A      0.756067    80A      0.760282
      81A      0.771540    82A      0.786532    83A      0.809007
      84A      0.822717    85A      0.835801    86A      0.851334
      87A      0.859377    88A      0.861374    89A      0.872478
      90A      0.873377    91A      0.885108    92A      0.894411
      93A      0.896275    94A      0.904438    95A      0.908556
      96A      0.912493    97A      0.917568    98A      0.931002
      99A      0.938489   100A      0.938557   101A      0.948408
     102A      0.960044   103A      0.972949   104A      0.994540
     105A      1.006215   106A      1.014017   107A      1.066187
     108A      1.072196   109A      1.101049   110A      1.132215
     111A      1.133007   112A      1.155667   113A      1.159636
     114A      1.179672   115A      1.194736   116A      1.214730
     117A      1.247235   118A      1.254691   119A      1.261630
     120A      1.277308   121A      1.302077   122A      1.313030
     123A      1.320617   124A      1.339554   125A      1.407057
     126A      1.417993   127A      1.468664   128A      1.489611
     129A      1.507628   130A      1.530239   131A      1.565059
     132A      1.599420   133A      1.623759   134A      1.632404
     135A      1.636717   136A      1.679962   137A      1.703844
     138A      1.734027   139A      1.743816   140A      1.747823
     141A      1.765624   142A      1.779914   143A      1.793664
     144A      1.811253   145A      1.819601   146A      1.868366
     147A      1.875890   148A      1.886515   149A      1.891268
     150A      1.898334   151A      1.907121   152A      1.918780
     153A      1.924213   154A      1.931174   155A      1.939199
     156A      1.943291   157A      1.953711   158A      1.956227
     159A      1.961227   160A      1.984692   161A      1.989042
     162A      1.994500   163A      2.027362   164A      2.037701
     165A      2.041384   166A      2.054593   167A      2.071011
     168A      2.082039   169A      2.085956   170A      2.117609
     171A      2.135798   172A      2.142774   173A      2.151632
     174A      2.156903   175A      2.168724   176A      2.180652
     177A      2.182679   178A      2.187775   179A      2.239763
     180A      2.255951   181A      2.279275   182A      2.291132
     183A      2.302213   184A      2.317551   185A      2.319799
     186A      2.344883   187A      2.355331   188A      2.464327
     189A      2.470968   190A      2.477728   191A      2.486994
     192A      2.497156   193A      2.516693   194A      2.541426
     195A      2.561956   196A      2.621692   197A      2.647733
     198A      2.702753   199A      2.743244   200A      2.760873
     201A      2.766665   202A      2.771626   203A      2.786121
     204A      2.800901   205A      2.805760   206A      2.821273
     207A      2.848761   208A      2.862966   209A      2.877647
     210A      2.892601   211A      2.948373   212A      2.963360
     213A      2.986508   214A      3.019558   215A      3.039455
     216A      3.078210   217A      3.152953   218A      3.206174
     219A      3.301050   220A      3.977343

    Final Occupation by Irrep:
              A
    DOCC [    38 ]

  @RHF Final Energy:  -388.00971956253784

   => Energetics <=

    Nuclear Repulsion Energy =            502.7250140966769436
    One-Electron Energy =               -1519.9389012864130564
    Two-Electron Energy =                 629.2041676271983306
    Total Energy =                       -388.0097195625378390

Computation Completed

Properties will be evaluated at   0.000000,   0.000000,   0.000000 [a0]

Properties computed using the SCF density matrix

  Nuclear Dipole Moment: [e a0]
     X:    -5.7757      Y:    -5.6485      Z:    -7.3029

  Electronic Dipole Moment: [e a0]
     X:     5.8296      Y:     5.6099      Z:     7.5153

  Dipole Moment: [e a0]
     X:     0.0539      Y:    -0.0386      Z:     0.2124     Total:     0.2225

  Dipole Moment: [D]
     X:     0.1370      Y:    -0.0982      Z:     0.5399     Total:     0.5656

*** tstop() called on ds3 at Mon Apr 27 14:16:48 2020
Module time:
	user time   =     115.99 seconds =       1.93 minutes
	system time =      46.11 seconds =       0.77 minutes
	total time  =        162 seconds =       2.70 minutes
Total time:
	user time   =     115.99 seconds =       1.93 minutes
	system time =      46.11 seconds =       0.77 minutes
	total time  =        162 seconds =       2.70 minutes
                                     G D M A

                                 by Anthony Stone

                           version 2.2.06, 22 June 2011

               Distributed Multipoles from Gaussian wavefunctions

Starting at 14:16:48 on 27 Apr 2020

Using SCF density matrix from file ./SSI/SSI-007PHE-021PRO-1-dimer.test.9066.fchk

                         Distributed Multipole Analysis

Standard DMA

Positions and radii in angstrom
Multipole moments in atomic units, ea_0^k for rank k

C          x =  0.704243  y = -1.300996  z =  2.882224 angstrom
           Maximum rank =  0   Radius =  0.650 angstrom
                   Q00  =  -0.195161

C          x = -0.425757  y =  0.493004  z =  1.540224 angstrom
           Maximum rank =  0   Radius =  0.650 angstrom
                   Q00  =  -0.093529

C          x =  0.708243  y = -0.278996  z =  1.788224 angstrom
           Maximum rank =  0   Radius =  0.650 angstrom
                   Q00  =  -0.105698

C          x = -0.397757  y =  1.479004  z =  0.550224 angstrom
           Maximum rank =  0   Radius =  0.650 angstrom
                   Q00  =  -0.063380

C          x =  1.866243  y = -0.057996  z =  1.044224 angstrom
           Maximum rank =  0   Radius =  0.650 angstrom
                   Q00  =  -0.015220

C          x =  0.762243  y =  1.688004  z = -0.183776 angstrom
           Maximum rank =  0   Radius =  0.650 angstrom
                   Q00  =  -0.061636

C          x =  1.895243  y =  0.925004  z =  0.061224 angstrom
           Maximum rank =  0   Radius =  0.650 angstrom
                   Q00  =  -0.068428

H          x = -1.325757  y =  0.338004  z =  2.118224 angstrom
           Maximum rank =  0   Radius =  0.325 angstrom
                   Q00  =   0.058423

H          x = -1.277757  y =  2.079004  z =  0.357224 angstrom
           Maximum rank =  0   Radius =  0.325 angstrom
                   Q00  =   0.065537

H          x =  1.327243  y = -2.139996  z =  2.571224 angstrom
           Maximum rank =  0   Radius =  0.325 angstrom
                   Q00  =   0.096252

H          x = -0.309757  y = -1.679996  z =  3.009224 angstrom
           Maximum rank =  0   Radius =  0.325 angstrom
                   Q00  =   0.097294

H          x =  2.752243  y = -0.644996  z =  1.236224 angstrom
           Maximum rank =  0   Radius =  0.325 angstrom
                   Q00  =   0.056429

H          x =  0.779243  y =  2.443004  z = -0.955776 angstrom
           Maximum rank =  0   Radius =  0.325 angstrom
                   Q00  =   0.061179

H          x =  2.799243  y =  1.096004  z = -0.505776 angstrom
           Maximum rank =  0   Radius =  0.325 angstrom
                   Q00  =   0.064781

H          x =  1.080380  y = -0.912636  z =  3.840184 angstrom
           Maximum rank =  0   Radius =  0.325 angstrom
                   Q00  =   0.105284

C          x = -1.841757  y = -0.721996  z = -1.802776 angstrom
           Maximum rank =  0   Radius =  0.650 angstrom
                   Q00  =  -0.088518

C          x = -1.652757  y = -2.016996  z = -2.569776 angstrom
           Maximum rank =  0   Radius =  0.650 angstrom
                   Q00  =  -0.230972

C          x = -1.100757  y =  0.298004  z = -2.655776 angstrom
           Maximum rank =  0   Radius =  0.650 angstrom
                   Q00  =  -0.210203

H          x = -1.420757  y = -0.796996  z = -0.800776 angstrom
           Maximum rank =  0   Radius =  0.325 angstrom
                   Q00  =   0.069545

H          x = -2.901757  y = -0.467996  z = -1.753776 angstrom
           Maximum rank =  0   Radius =  0.325 angstrom
                   Q00  =   0.043386

H          x = -0.684757  y = -2.458996  z = -2.330776 angstrom
           Maximum rank =  0   Radius =  0.325 angstrom
                   Q00  =   0.079864

H          x = -2.468757  y = -2.702996  z = -2.341776 angstrom
           Maximum rank =  0   Radius =  0.325 angstrom
                   Q00  =   0.077076

H          x = -0.026757  y =  0.184004  z = -2.519776 angstrom
           Maximum rank =  0   Radius =  0.325 angstrom
                   Q00  =   0.085474

H          x = -1.412757  y =  1.318004  z = -2.426776 angstrom
           Maximum rank =  0   Radius =  0.325 angstrom
                   Q00  =   0.072994

H          x = -1.668488  y = -1.678406  z = -3.616256 angstrom
           Maximum rank =  0   Radius =  0.325 angstrom
                   Q00  =   0.055383

H          x = -1.401940  y = -0.000286  z = -3.670816 angstrom
           Maximum rank =  0   Radius =  0.325 angstrom
                   Q00  =   0.043846

Total multipoles referred to origin at
           x =   0.000000,  y =    0.000000,  z =    0.000000 angstrom
                   Q00  =  -0.000000

Finished at 14:16:48 on 27 Apr 2020

  DMA results are available in the Python driver through the
	  variable('DMA DISTRIBUTED MULTIPOLES')
  and
	  variable('DMA TOTAL MULTIPOLES')
  commands.

    Psi4 stopped on: Monday, 27 April 2020 02:16PM
    Psi4 wall time for execution: 0:02:42.60

*** Psi4 exiting successfully. Buy a developer a beer!
