                               Psi4 1.3.2 release

  ==> Input File <==

--------------------------------------------------------------------------
import numpy as np
set {scf_type pk
basis cc-pvdz
d_convergence 10
gdma_switch   0
gdma_limit    0
gdma_origin   [ 0.0,  0.0,  0.0 ]
}
molecule test {
    units Angstrom
    0 1
    --
    0 1
    C                1.443962821926630    -0.221828381147717    -0.977502683333984
    C                2.756962821926630    -0.911828381147717    -0.987502683333985
    H                1.573962821926630     0.861171618852283    -0.962502683333984
    H                0.894962821926630    -0.486828381147717    -1.881502683333985
    H                0.842962821926630    -0.525828381147717    -0.121502683333984
    H                2.582962821926630    -1.985828381147717    -1.056502683333985
    H                3.279312821926630    -0.702888381147717    -0.042252683333984
    H                3.371102821926630    -0.620228381147717    -1.852252683333985
    C               -1.994037178073370     0.637171618852283     0.212497316666016
    C               -2.206037178073370     0.498171618852283     1.752497316666016
    H               -2.923037178073370     0.939171618852283    -0.271502683333984
    H               -1.249037178073370     1.410171618852283     0.019497316666016
    H               -1.649037178073370    -0.306828381147717    -0.209502683333984
    H               -2.679037178073370     1.403171618852283     2.127497316666016
    H               -2.820497178073370    -0.380948381147717     1.996577316666015
    H               -1.234757178073370     0.375611618852283     2.254077316666016

}
e, wfn = energy('scf', return_wfn=True)
gdma(wfn)
dmavals = variable('DMA DISTRIBUTED MULTIPOLES')
charges = np.array(dmavals)
print(charges)
np.save('SSI-069THR-080LEU-1-dimer.npy', np.array(charges))--------------------------------------------------------------------------

*** tstart() called on ds3
*** at Sun Apr 26 17:04:23 2020

   => Loading Basis Set <=

    Name: CC-PVDZ
    Role: ORBITAL
    Keyword: BASIS
    atoms 1-2, 9-10  entry C          line   138 file /theoryfs2/ds/metcalf/miniconda2/envs/tf2gpu/share/psi4/basis/cc-pvdz.gbs
    atoms 3-8, 11-16 entry H          line    22 file /theoryfs2/ds/metcalf/miniconda2/envs/tf2gpu/share/psi4/basis/cc-pvdz.gbs

         ---------------------------------------------------------
                                   SCF
               by Justin Turney, Rob Parrish, Andy Simmonett
                          and Daniel G. A. Smith
                              RHF Reference
                        1 Threads,    500 MiB Core
         ---------------------------------------------------------

  ==> Geometry <==

    Molecular point group: c1
    Full point group: C1

    Geometry (in Angstrom), charge = 0, multiplicity = 1:

       Center              X                  Y                   Z               Mass
    ------------   -----------------  -----------------  -----------------  -----------------
         C            1.443962821927    -0.221828381148    -0.977502683334    12.000000000000
         C            2.756962821927    -0.911828381148    -0.987502683334    12.000000000000
         H            1.573962821927     0.861171618852    -0.962502683334     1.007825032230
         H            0.894962821927    -0.486828381148    -1.881502683334     1.007825032230
         H            0.842962821927    -0.525828381148    -0.121502683334     1.007825032230
         H            2.582962821927    -1.985828381148    -1.056502683334     1.007825032230
         H            3.279312821927    -0.702888381148    -0.042252683334     1.007825032230
         H            3.371102821927    -0.620228381148    -1.852252683334     1.007825032230
         C           -1.994037178073     0.637171618852     0.212497316666    12.000000000000
         C           -2.206037178073     0.498171618852     1.752497316666    12.000000000000
         H           -2.923037178073     0.939171618852    -0.271502683334     1.007825032230
         H           -1.249037178073     1.410171618852     0.019497316666     1.007825032230
         H           -1.649037178073    -0.306828381148    -0.209502683334     1.007825032230
         H           -2.679037178073     1.403171618852     2.127497316666     1.007825032230
         H           -2.820497178073    -0.380948381148     1.996577316666     1.007825032230
         H           -1.234757178073     0.375611618852     2.254077316666     1.007825032230

  Running in c1 symmetry.

  Rotational constants: A =      0.54585  B =      0.04505  C =      0.04304 [cm^-1]
  Rotational constants: A =  16364.08955  B =   1350.58299  C =   1290.28697 [MHz]
  Nuclear repulsion =  121.187747901389628

  Charge       = 0
  Multiplicity = 1
  Electrons    = 36
  Nalpha       = 18
  Nbeta        = 18

  ==> Algorithm <==

  SCF Algorithm Type is PK.
  DIIS enabled.
  MOM disabled.
  Fractional occupation disabled.
  Guess Type is SAD.
  Energy threshold   = 1.00e-06
  Density threshold  = 1.00e-10
  Integral threshold = 0.00e+00

  ==> Primary Basis <==

  Basis Set: CC-PVDZ
    Blend: CC-PVDZ
    Number of shells: 60
    Number of basis function: 116
    Number of Cartesian functions: 120
    Spherical Harmonics?: true
    Max angular momentum: 2

  ==> Pre-Iterations <==

   -------------------------------------------------------
    Irrep   Nso     Nmo     Nalpha   Nbeta   Ndocc  Nsocc
   -------------------------------------------------------
     A        116     116       0       0       0       0
   -------------------------------------------------------
    Total     116     116      18      18      18       0
   -------------------------------------------------------

  ==> Integral Setup <==

  Using integral reordering PK algorithm.
  Sizing the integral batches needed.
  Building batch lookup table.
   Calculation information:
      Number of atoms:                  16
      Number of AO shells:              60
      Number of primitives:            148
      Number of atomic orbitals:       120
      Number of basis functions:       116

      Integral cutoff                 1.00e-12
      Number of threads:                 1

	Batch   1 pq = [       0,    6786] index = [             0,23028291] size =     23028291
  Task number: 3
  Buffer size: 11059200
  Buffer per thread: 2
  We computed 1395921 shell quartets total.
  Whereas there are 1675365 unique shell quartets.

  ==> DiskJK: Disk-Based J/K Matrices <==

    J tasked:                  Yes
    K tasked:                  Yes
    wK tasked:                  No
    Memory [MiB]:              375
    Schwarz Cutoff:          1E-12

    OpenMP threads:              1

  Minimum eigenvalue in the overlap matrix is 6.2584066254E-03.
  Using Symmetric Orthogonalization.

  SCF Guess: Superposition of Atomic Densities via on-the-fly atomic UHF.

  ==> Iterations <==

                        Total Energy        Delta E     RMS |[F,P]|

   @RHF iter SAD:  -157.36676437851440   -1.57367e+02   0.00000e+00
   @RHF iter   1:  -158.30439042441793   -9.37626e-01   4.24226e-03 DIIS
   @RHF iter   2:  -158.43909836014160   -1.34708e-01   1.81917e-03 DIIS
   @RHF iter   3:  -158.46303955982734   -2.39412e-02   3.51477e-04 DIIS
   @RHF iter   4:  -158.46489002083192   -1.85046e-03   3.97219e-05 DIIS
   @RHF iter   5:  -158.46491403983686   -2.40190e-05   8.23048e-06 DIIS
   @RHF iter   6:  -158.46491485228592   -8.12449e-07   2.06173e-06 DIIS
   @RHF iter   7:  -158.46491489166510   -3.93792e-08   2.95482e-07 DIIS
   @RHF iter   8:  -158.46491489270358   -1.03847e-09   4.00360e-08 DIIS
   @RHF iter   9:  -158.46491489272725   -2.36753e-11   1.00027e-08 DIIS
   @RHF iter  10:  -158.46491489272876   -1.50635e-12   2.64638e-09 DIIS
   @RHF iter  11:  -158.46491489272853    2.27374e-13   6.19448e-10 DIIS
   @RHF iter  12:  -158.46491489272844    8.52651e-14   1.22145e-10 DIIS
   @RHF iter  13:  -158.46491489272881   -3.69482e-13   2.31607e-11 DIIS
  Energy and wave function converged.

  ==> Post-Iterations <==

    Orbital Energies [Eh]
    ---------------------

    Doubly Occupied:

       1A    -11.221301     2A    -11.218578     3A    -11.215754
       4A    -11.212919     5A     -1.029670     6A     -1.009758
       7A     -0.840309     8A     -0.831914     9A     -0.604249
      10A     -0.602689    11A     -0.595489    12A     -0.590331
      13A     -0.513054    14A     -0.494137    15A     -0.490515
      16A     -0.484907    17A     -0.480519    18A     -0.478203

    Virtual:

      19A      0.172784    20A      0.196364    21A      0.221209
      22A      0.235926    23A      0.242671    24A      0.253813
      25A      0.265118    26A      0.275753    27A      0.283015
      28A      0.291443    29A      0.297330    30A      0.339489
      31A      0.386497    32A      0.408454    33A      0.563613
      34A      0.592553    35A      0.600538    36A      0.604195
      37A      0.618829    38A      0.631075    39A      0.680836
      40A      0.683195    41A      0.694397    42A      0.777011
      43A      0.826387    44A      0.878318    45A      0.886969
      46A      0.889446    47A      0.893827    48A      0.897185
      49A      0.900411    50A      0.906885    51A      0.914072
      52A      0.921437    53A      0.928607    54A      0.942052
      55A      0.981292    56A      0.999621    57A      1.119575
      58A      1.128809    59A      1.136652    60A      1.149731
      61A      1.225520    62A      1.247347    63A      1.462737
      64A      1.465798    65A      1.485787    66A      1.494494
      67A      1.563670    68A      1.592086    69A      1.679837
      70A      1.685139    71A      1.693423    72A      1.698234
      73A      1.848645    74A      1.863831    75A      1.871230
      76A      1.874181    77A      1.884040    78A      1.925242
      79A      1.928094    80A      1.937790    81A      1.942853
      82A      1.950469    83A      1.953777    84A      1.961563
      85A      1.966773    86A      1.975144    87A      1.980571
      88A      2.051518    89A      2.086352    90A      2.108557
      91A      2.117070    92A      2.129378    93A      2.291816
      94A      2.306311    95A      2.326651    96A      2.333219
      97A      2.441890    98A      2.453773    99A      2.461524
     100A      2.480274   101A      2.559644   102A      2.561949
     103A      2.573366   104A      2.581524   105A      2.756708
     106A      2.761573   107A      2.787697   108A      2.789310
     109A      2.837352   110A      2.853945   111A      2.859103
     112A      2.883249   113A      2.943389   114A      2.950792
     115A      2.957021   116A      2.977254

    Final Occupation by Irrep:
              A
    DOCC [    18 ]

  @RHF Final Energy:  -158.46491489272881

   => Energetics <=

    Nuclear Repulsion Energy =            121.1877479013896277
    One-Electron Energy =                -451.4767306496459582
    Two-Electron Energy =                 171.8240678555275167
    Total Energy =                       -158.4649148927288138

Computation Completed

Properties will be evaluated at   0.000000,   0.000000,   0.000000 [a0]

Properties computed using the SCF density matrix

  Nuclear Dipole Moment: [e a0]
     X:    -0.0095      Y:    -0.0188      Z:     0.0001

  Electronic Dipole Moment: [e a0]
     X:     0.0014      Y:     0.0206      Z:    -0.0118

  Dipole Moment: [e a0]
     X:    -0.0081      Y:     0.0018      Z:    -0.0117     Total:     0.0143

  Dipole Moment: [D]
     X:    -0.0206      Y:     0.0045      Z:    -0.0297     Total:     0.0364

*** tstop() called on ds3 at Sun Apr 26 17:04:37 2020
Module time:
	user time   =      10.14 seconds =       0.17 minutes
	system time =       3.98 seconds =       0.07 minutes
	total time  =         14 seconds =       0.23 minutes
Total time:
	user time   =      10.14 seconds =       0.17 minutes
	system time =       3.98 seconds =       0.07 minutes
	total time  =         14 seconds =       0.23 minutes
                                     G D M A

                                 by Anthony Stone

                           version 2.2.06, 22 June 2011

               Distributed Multipoles from Gaussian wavefunctions

Starting at 17:4:37 on 26 Apr 2020

Using SCF density matrix from file ./SSI/SSI-069THR-080LEU-1-dimer.test.17432.fchk

                         Distributed Multipole Analysis

Standard DMA

Positions and radii in angstrom
Multipole moments in atomic units, ea_0^k for rank k

C          x =  1.443963  y = -0.221828  z = -0.977503 angstrom
           Maximum rank =  0   Radius =  0.650 angstrom
                   Q00  =  -0.214762

C          x =  2.756963  y = -0.911828  z = -0.987503 angstrom
           Maximum rank =  0   Radius =  0.650 angstrom
                   Q00  =  -0.233985

H          x =  1.573963  y =  0.861172  z = -0.962503 angstrom
           Maximum rank =  0   Radius =  0.325 angstrom
                   Q00  =   0.074612

H          x =  0.894963  y = -0.486828  z = -1.881503 angstrom
           Maximum rank =  0   Radius =  0.325 angstrom
                   Q00  =   0.071966

H          x =  0.842963  y = -0.525828  z = -0.121503 angstrom
           Maximum rank =  0   Radius =  0.325 angstrom
                   Q00  =   0.077473

H          x =  2.582963  y = -1.985828  z = -1.056503 angstrom
           Maximum rank =  0   Radius =  0.325 angstrom
                   Q00  =   0.073297

H          x =  3.279313  y = -0.702888  z = -0.042253 angstrom
           Maximum rank =  0   Radius =  0.325 angstrom
                   Q00  =   0.073295

H          x =  3.371103  y = -0.620228  z = -1.852253 angstrom
           Maximum rank =  0   Radius =  0.325 angstrom
                   Q00  =   0.077489

C          x = -1.994037  y =  0.637172  z =  0.212497 angstrom
           Maximum rank =  0   Radius =  0.650 angstrom
                   Q00  =  -0.249178

C          x = -2.206037  y =  0.498172  z =  1.752497 angstrom
           Maximum rank =  0   Radius =  0.650 angstrom
                   Q00  =  -0.241336

H          x = -2.923037  y =  0.939172  z = -0.271503 angstrom
           Maximum rank =  0   Radius =  0.325 angstrom
                   Q00  =   0.081381

H          x = -1.249037  y =  1.410172  z =  0.019497 angstrom
           Maximum rank =  0   Radius =  0.325 angstrom
                   Q00  =   0.082725

H          x = -1.649037  y = -0.306828  z = -0.209503 angstrom
           Maximum rank =  0   Radius =  0.325 angstrom
                   Q00  =   0.083544

H          x = -2.679037  y =  1.403172  z =  2.127497 angstrom
           Maximum rank =  0   Radius =  0.325 angstrom
                   Q00  =   0.083171

H          x = -2.820497  y = -0.380948  z =  1.996577 angstrom
           Maximum rank =  0   Radius =  0.325 angstrom
                   Q00  =   0.081818

H          x = -1.234757  y =  0.375612  z =  2.254077 angstrom
           Maximum rank =  0   Radius =  0.325 angstrom
                   Q00  =   0.078491

Total multipoles referred to origin at
           x =   0.000000,  y =    0.000000,  z =    0.000000 angstrom
                   Q00  =  -0.000000

Finished at 17:4:37 on 26 Apr 2020

  DMA results are available in the Python driver through the
	  variable('DMA DISTRIBUTED MULTIPOLES')
  and
	  variable('DMA TOTAL MULTIPOLES')
  commands.

    Psi4 stopped on: Sunday, 26 April 2020 05:04PM
    Psi4 wall time for execution: 0:00:14.03

*** Psi4 exiting successfully. Buy a developer a beer!
