                               Psi4 1.3.2 release

  ==> Input File <==

--------------------------------------------------------------------------
import numpy as np
set {scf_type pk
basis cc-pvdz
d_convergence 10
gdma_switch   0
gdma_limit    0
gdma_origin   [ 0.0,  0.0,  0.0 ]
}
molecule test {
    units Angstrom
    0 1
    --
    0 1
    C                0.774821541987267    -1.846862875887104     0.359989671569250
    C                0.328821541987267    -3.129862875887103    -0.347010328430750
    H                1.573821541987267    -1.328862875887104    -0.169010328430750
    H               -0.082178458012733    -1.181862875887103     0.466989671569250
    H                1.124821541987267    -2.113862875887103     1.356989671569250
    H               -0.339178458012733    -3.674862875887103     0.319989671569250
    H                1.186771541987267    -3.772262875887103    -0.594470328430750
    H               -0.235788458012733    -2.872662875887103    -1.255340328430750
    C               -0.310178458012733     1.784137124112897    -0.201010328430750
    C               -0.788178458012733     3.195137124112897     0.182989671569250
    H                0.620821541987267     1.843137124112896    -0.770010328430750
    H               -0.144178458012733     1.186137124112897     0.695989671569250
    H               -1.067178458012733     1.293137124112897    -0.814010328430750
    H               -1.682178458012733     3.110137124112896     0.804989671569250
    H               -1.017928458012733     3.765347124112897    -0.729190328430750
    H               -0.000568458012733     3.716137124112897     0.747109671569250

}
e, wfn = energy('scf', return_wfn=True)
gdma(wfn)
dmavals = variable('DMA DISTRIBUTED MULTIPOLES')
charges = np.array(dmavals)
print(charges)
np.save('SSI-184THR-220ALA-1-dimer.npy', np.array(charges))--------------------------------------------------------------------------

*** tstart() called on ds3
*** at Sun Apr 26 20:41:24 2020

   => Loading Basis Set <=

    Name: CC-PVDZ
    Role: ORBITAL
    Keyword: BASIS
    atoms 1-2, 9-10  entry C          line   138 file /theoryfs2/ds/metcalf/miniconda2/envs/tf2gpu/share/psi4/basis/cc-pvdz.gbs
    atoms 3-8, 11-16 entry H          line    22 file /theoryfs2/ds/metcalf/miniconda2/envs/tf2gpu/share/psi4/basis/cc-pvdz.gbs

         ---------------------------------------------------------
                                   SCF
               by Justin Turney, Rob Parrish, Andy Simmonett
                          and Daniel G. A. Smith
                              RHF Reference
                        1 Threads,    500 MiB Core
         ---------------------------------------------------------

  ==> Geometry <==

    Molecular point group: c1
    Full point group: C1

    Geometry (in Angstrom), charge = 0, multiplicity = 1:

       Center              X                  Y                   Z               Mass
    ------------   -----------------  -----------------  -----------------  -----------------
         C            0.774821541987    -1.846862875887     0.359989671569    12.000000000000
         C            0.328821541987    -3.129862875887    -0.347010328431    12.000000000000
         H            1.573821541987    -1.328862875887    -0.169010328431     1.007825032230
         H           -0.082178458013    -1.181862875887     0.466989671569     1.007825032230
         H            1.124821541987    -2.113862875887     1.356989671569     1.007825032230
         H           -0.339178458013    -3.674862875887     0.319989671569     1.007825032230
         H            1.186771541987    -3.772262875887    -0.594470328431     1.007825032230
         H           -0.235788458013    -2.872662875887    -1.255340328431     1.007825032230
         C           -0.310178458013     1.784137124113    -0.201010328431    12.000000000000
         C           -0.788178458013     3.195137124113     0.182989671569    12.000000000000
         H            0.620821541987     1.843137124113    -0.770010328431     1.007825032230
         H           -0.144178458013     1.186137124113     0.695989671569     1.007825032230
         H           -1.067178458013     1.293137124113    -0.814010328431     1.007825032230
         H           -1.682178458013     3.110137124113     0.804989671569     1.007825032230
         H           -1.017928458013     3.765347124113    -0.729190328431     1.007825032230
         H           -0.000568458013     3.716137124113     0.747109671569     1.007825032230

  Running in c1 symmetry.

  Rotational constants: A =      0.76843  B =      0.03896  C =      0.03835 [cm^-1]
  Rotational constants: A =  23036.84052  B =   1167.98026  C =   1149.68341 [MHz]
  Nuclear repulsion =  119.088924845971562

  Charge       = 0
  Multiplicity = 1
  Electrons    = 36
  Nalpha       = 18
  Nbeta        = 18

  ==> Algorithm <==

  SCF Algorithm Type is PK.
  DIIS enabled.
  MOM disabled.
  Fractional occupation disabled.
  Guess Type is SAD.
  Energy threshold   = 1.00e-06
  Density threshold  = 1.00e-10
  Integral threshold = 0.00e+00

  ==> Primary Basis <==

  Basis Set: CC-PVDZ
    Blend: CC-PVDZ
    Number of shells: 60
    Number of basis function: 116
    Number of Cartesian functions: 120
    Spherical Harmonics?: true
    Max angular momentum: 2

  ==> Pre-Iterations <==

   -------------------------------------------------------
    Irrep   Nso     Nmo     Nalpha   Nbeta   Ndocc  Nsocc
   -------------------------------------------------------
     A        116     116       0       0       0       0
   -------------------------------------------------------
    Total     116     116      18      18      18       0
   -------------------------------------------------------

  ==> Integral Setup <==

  Using integral reordering PK algorithm.
  Sizing the integral batches needed.
  Building batch lookup table.
   Calculation information:
      Number of atoms:                  16
      Number of AO shells:              60
      Number of primitives:            148
      Number of atomic orbitals:       120
      Number of basis functions:       116

      Integral cutoff                 1.00e-12
      Number of threads:                 1

	Batch   1 pq = [       0,    6786] index = [             0,23028291] size =     23028291
  Task number: 3
  Buffer size: 11059200
  Buffer per thread: 2
  We computed 1323744 shell quartets total.
  Whereas there are 1675365 unique shell quartets.

  ==> DiskJK: Disk-Based J/K Matrices <==

    J tasked:                  Yes
    K tasked:                  Yes
    wK tasked:                  No
    Memory [MiB]:              375
    Schwarz Cutoff:          1E-12

    OpenMP threads:              1

  Minimum eigenvalue in the overlap matrix is 6.7306617426E-03.
  Using Symmetric Orthogonalization.

  SCF Guess: Superposition of Atomic Densities via on-the-fly atomic UHF.

  ==> Iterations <==

                        Total Energy        Delta E     RMS |[F,P]|

   @RHF iter SAD:  -157.31959112069063   -1.57320e+02   0.00000e+00
   @RHF iter   1:  -158.30904654343652   -9.89455e-01   4.19196e-03 DIIS
   @RHF iter   2:  -158.44141625557822   -1.32370e-01   1.78457e-03 DIIS
   @RHF iter   3:  -158.46456000196679   -2.31437e-02   3.48646e-04 DIIS
   @RHF iter   4:  -158.46638195141006   -1.82195e-03   3.88375e-05 DIIS
   @RHF iter   5:  -158.46640572224536   -2.37708e-05   6.66551e-06 DIIS
   @RHF iter   6:  -158.46640637446947   -6.52224e-07   1.12814e-06 DIIS
   @RHF iter   7:  -158.46640638677712   -1.23077e-08   3.16948e-07 DIIS
   @RHF iter   8:  -158.46640638765467   -8.77549e-10   3.61439e-08 DIIS
   @RHF iter   9:  -158.46640638767315   -1.84741e-11   6.33044e-09 DIIS
   @RHF iter  10:  -158.46640638767391   -7.67386e-13   1.49833e-09 DIIS
   @RHF iter  11:  -158.46640638767411   -1.98952e-13   4.54622e-10 DIIS
   @RHF iter  12:  -158.46640638767403    8.52651e-14   1.32592e-10 DIIS
   @RHF iter  13:  -158.46640638767414   -1.13687e-13   1.79988e-11 DIIS
  Energy and wave function converged.

  ==> Post-Iterations <==

    Orbital Energies [Eh]
    ---------------------

    Doubly Occupied:

       1A    -11.220329     2A    -11.218812     3A    -11.217659
       4A    -11.215582     5A     -1.017207     6A     -1.015151
       7A     -0.838791     8A     -0.833656     9A     -0.600455
      10A     -0.596492    11A     -0.595937    12A     -0.594901
      13A     -0.503548    14A     -0.494840    15A     -0.490379
      16A     -0.485918    17A     -0.483249    18A     -0.480272

    Virtual:

      19A      0.176416    20A      0.192994    21A      0.223208
      22A      0.237371    23A      0.241406    24A      0.260151
      25A      0.264018    26A      0.280059    27A      0.284237
      28A      0.286422    29A      0.299591    30A      0.318992
      31A      0.390026    32A      0.401191    33A      0.570456
      34A      0.592675    35A      0.597435    36A      0.602626
      37A      0.608385    38A      0.635773    39A      0.683752
      40A      0.684762    41A      0.699588    42A      0.746434
      43A      0.845278    44A      0.875308    45A      0.885710
      46A      0.891807    47A      0.892580    48A      0.894891
      49A      0.895398    50A      0.906809    51A      0.910656
      52A      0.916858    53A      0.930097    54A      0.934414
      55A      0.967148    56A      0.987125    57A      1.122756
      58A      1.126548    59A      1.126929    60A      1.147819
      61A      1.228765    62A      1.239512    63A      1.465005
      64A      1.474567    65A      1.474886    66A      1.488740
      67A      1.575264    68A      1.583510    69A      1.677989
      70A      1.681707    71A      1.692153    72A      1.695879
      73A      1.850129    74A      1.860901    75A      1.863505
      76A      1.873263    77A      1.885000    78A      1.919297
      79A      1.935370    80A      1.939385    81A      1.941312
      82A      1.945697    83A      1.947994    84A      1.951526
      85A      1.952850    86A      1.963963    87A      1.980381
      88A      2.026809    89A      2.100604    90A      2.102954
      91A      2.107299    92A      2.136437    93A      2.291191
      94A      2.304110    95A      2.310325    96A      2.315126
      97A      2.447400    98A      2.451856    99A      2.457591
     100A      2.470199   101A      2.559955   102A      2.565020
     103A      2.570808   104A      2.577859   105A      2.757702
     106A      2.760584   107A      2.780517   108A      2.786598
     109A      2.836942   110A      2.843358   111A      2.847268
     112A      2.860300   113A      2.940687   114A      2.946526
     115A      2.955143   116A      2.962226

    Final Occupation by Irrep:
              A
    DOCC [    18 ]

  @RHF Final Energy:  -158.46640638767414

   => Energetics <=

    Nuclear Repulsion Energy =            119.0889248459715617
    One-Electron Energy =                -447.3043033375594177
    Two-Electron Energy =                 169.7489721039137009
    Total Energy =                       -158.4664063876741409

Computation Completed

Properties will be evaluated at   0.000000,   0.000000,   0.000000 [a0]

Properties computed using the SCF density matrix

  Nuclear Dipole Moment: [e a0]
     X:    -0.0590      Y:    -0.0284      Z:     0.0563

  Electronic Dipole Moment: [e a0]
     X:     0.0516      Y:     0.0321      Z:    -0.0418

  Dipole Moment: [e a0]
     X:    -0.0074      Y:     0.0036      Z:     0.0145     Total:     0.0167

  Dipole Moment: [D]
     X:    -0.0188      Y:     0.0092      Z:     0.0368     Total:     0.0423

*** tstop() called on ds3 at Sun Apr 26 20:41:36 2020
Module time:
	user time   =       7.61 seconds =       0.13 minutes
	system time =       4.16 seconds =       0.07 minutes
	total time  =         12 seconds =       0.20 minutes
Total time:
	user time   =       7.61 seconds =       0.13 minutes
	system time =       4.16 seconds =       0.07 minutes
	total time  =         12 seconds =       0.20 minutes
                                     G D M A

                                 by Anthony Stone

                           version 2.2.06, 22 June 2011

               Distributed Multipoles from Gaussian wavefunctions

Starting at 20:41:36 on 26 Apr 2020

Using SCF density matrix from file ./SSI/SSI-184THR-220ALA-1-dimer.test.9823.fchk

                         Distributed Multipole Analysis

Standard DMA

Positions and radii in angstrom
Multipole moments in atomic units, ea_0^k for rank k

C          x =  0.774822  y = -1.846863  z =  0.359990 angstrom
           Maximum rank =  0   Radius =  0.650 angstrom
                   Q00  =  -0.235332

C          x =  0.328822  y = -3.129863  z = -0.347010 angstrom
           Maximum rank =  0   Radius =  0.650 angstrom
                   Q00  =  -0.238133

H          x =  1.573822  y = -1.328863  z = -0.169010 angstrom
           Maximum rank =  0   Radius =  0.325 angstrom
                   Q00  =   0.082251

H          x = -0.082178  y = -1.181863  z =  0.466990 angstrom
           Maximum rank =  0   Radius =  0.325 angstrom
                   Q00  =   0.080990

H          x =  1.124822  y = -2.113863  z =  1.356990 angstrom
           Maximum rank =  0   Radius =  0.325 angstrom
                   Q00  =   0.074834

H          x = -0.339178  y = -3.674863  z =  0.319990 angstrom
           Maximum rank =  0   Radius =  0.325 angstrom
                   Q00  =   0.078258

H          x =  1.186772  y = -3.772263  z = -0.594470 angstrom
           Maximum rank =  0   Radius =  0.325 angstrom
                   Q00  =   0.080335

H          x = -0.235788  y = -2.872663  z = -1.255340 angstrom
           Maximum rank =  0   Radius =  0.325 angstrom
                   Q00  =   0.076717

C          x = -0.310178  y =  1.784137  z = -0.201010 angstrom
           Maximum rank =  0   Radius =  0.650 angstrom
                   Q00  =  -0.230657

C          x = -0.788178  y =  3.195137  z =  0.182990 angstrom
           Maximum rank =  0   Radius =  0.650 angstrom
                   Q00  =  -0.248316

H          x =  0.620822  y =  1.843137  z = -0.770010 angstrom
           Maximum rank =  0   Radius =  0.325 angstrom
                   Q00  =   0.080714

H          x = -0.144178  y =  1.186137  z =  0.695990 angstrom
           Maximum rank =  0   Radius =  0.325 angstrom
                   Q00  =   0.080878

H          x = -1.067178  y =  1.293137  z = -0.814010 angstrom
           Maximum rank =  0   Radius =  0.325 angstrom
                   Q00  =   0.077807

H          x = -1.682178  y =  3.110137  z =  0.804990 angstrom
           Maximum rank =  0   Radius =  0.325 angstrom
                   Q00  =   0.080333

H          x = -1.017928  y =  3.765347  z = -0.729190 angstrom
           Maximum rank =  0   Radius =  0.325 angstrom
                   Q00  =   0.079415

H          x = -0.000568  y =  3.716137  z =  0.747110 angstrom
           Maximum rank =  0   Radius =  0.325 angstrom
                   Q00  =   0.079906

Total multipoles referred to origin at
           x =   0.000000,  y =    0.000000,  z =    0.000000 angstrom
                   Q00  =  -0.000000

Finished at 20:41:36 on 26 Apr 2020

  DMA results are available in the Python driver through the
	  variable('DMA DISTRIBUTED MULTIPOLES')
  and
	  variable('DMA TOTAL MULTIPOLES')
  commands.

    Psi4 stopped on: Sunday, 26 April 2020 08:41PM
    Psi4 wall time for execution: 0:00:11.49

*** Psi4 exiting successfully. Buy a developer a beer!
