                               Psi4 1.3.2 release

  ==> Input File <==

--------------------------------------------------------------------------
import numpy as np
set {scf_type pk
basis cc-pvdz
d_convergence 10
gdma_switch   0
gdma_limit    0
gdma_origin   [ 0.0,  0.0,  0.0 ]
}
molecule test {
    units Angstrom
    0 1
    --
    0 1
    C               -0.665091936764846    -1.768688056846378     2.179289116714075
    C                0.433908063235154    -0.288688056846378     0.358289116714075
    C               -0.058091936764846    -0.522688056846378     1.602289116714075
    C                0.600908063235154     1.577311943153622     1.519289116714075
    N                0.821908063235154     1.039311943153622     0.324289116714075
    N               -0.000091936764846     0.671311943153622     2.285289116714075
    H                0.507908063235154    -1.012688056846378    -0.440710883285925
    H                1.207908063235154     1.537311943153622    -0.471710883285925
    H               -0.085091936764846    -2.094688056846377     3.031289116714075
    H               -0.594091936764846    -2.557688056846377     1.432289116714075
    H                0.780908063235154     2.612311943153622     1.784289116714075
    H               -1.713351936764846    -1.634424056846377     2.484439116714075
    C               -0.387091936764846    -0.202688056846378    -3.008710883285925
    C               -0.644091936764846    -0.378688056846378    -4.468710883285925
    H               -1.149091936764846    -0.703688056846378    -2.411710883285925
    H                0.578908063235154    -0.645688056846378    -2.767710883285925
    H               -0.356091936764846     0.857311943153622    -2.755710883285925
    H               -0.758091936764846    -1.437688056846377    -4.692710883285924
    H                0.244908063235154    -0.020688056846378    -4.982710883285924
    H               -1.515751936764846     0.194241943153622    -4.817950883285925

}
e, wfn = energy('scf', return_wfn=True)
gdma(wfn)
dmavals = variable('DMA DISTRIBUTED MULTIPOLES')
charges = np.array(dmavals)
print(charges)
np.save('SSI-180HIE-224ILE-1-dimer.npy', np.array(charges))--------------------------------------------------------------------------

*** tstart() called on ds3
*** at Mon Apr 27 01:39:11 2020

   => Loading Basis Set <=

    Name: CC-PVDZ
    Role: ORBITAL
    Keyword: BASIS
    atoms 1-4, 13-14  entry C          line   138 file /theoryfs2/ds/metcalf/miniconda2/envs/tf2gpu/share/psi4/basis/cc-pvdz.gbs
    atoms 5-6         entry N          line   168 file /theoryfs2/ds/metcalf/miniconda2/envs/tf2gpu/share/psi4/basis/cc-pvdz.gbs
    atoms 7-12, 15-20 entry H          line    22 file /theoryfs2/ds/metcalf/miniconda2/envs/tf2gpu/share/psi4/basis/cc-pvdz.gbs

         ---------------------------------------------------------
                                   SCF
               by Justin Turney, Rob Parrish, Andy Simmonett
                          and Daniel G. A. Smith
                              RHF Reference
                        1 Threads,    500 MiB Core
         ---------------------------------------------------------

  ==> Geometry <==

    Molecular point group: c1
    Full point group: C1

    Geometry (in Angstrom), charge = 0, multiplicity = 1:

       Center              X                  Y                   Z               Mass
    ------------   -----------------  -----------------  -----------------  -----------------
         C           -0.665091936765    -1.768688056846     2.179289116714    12.000000000000
         C            0.433908063235    -0.288688056846     0.358289116714    12.000000000000
         C           -0.058091936765    -0.522688056846     1.602289116714    12.000000000000
         C            0.600908063235     1.577311943154     1.519289116714    12.000000000000
         N            0.821908063235     1.039311943154     0.324289116714    14.003074004430
         N           -0.000091936765     0.671311943154     2.285289116714    14.003074004430
         H            0.507908063235    -1.012688056846    -0.440710883286     1.007825032230
         H            1.207908063235     1.537311943154    -0.471710883286     1.007825032230
         H           -0.085091936765    -2.094688056846     3.031289116714     1.007825032230
         H           -0.594091936765    -2.557688056846     1.432289116714     1.007825032230
         H            0.780908063235     2.612311943154     1.784289116714     1.007825032230
         H           -1.713351936765    -1.634424056846     2.484439116714     1.007825032230
         C           -0.387091936765    -0.202688056846    -3.008710883286    12.000000000000
         C           -0.644091936765    -0.378688056846    -4.468710883286    12.000000000000
         H           -1.149091936765    -0.703688056846    -2.411710883286     1.007825032230
         H            0.578908063235    -0.645688056846    -2.767710883286     1.007825032230
         H           -0.356091936765     0.857311943154    -2.755710883286     1.007825032230
         H           -0.758091936765    -1.437688056846    -4.692710883286     1.007825032230
         H            0.244908063235    -0.020688056846    -4.982710883286     1.007825032230
         H           -1.515751936765     0.194241943154    -4.817950883286     1.007825032230

  Running in c1 symmetry.

  Rotational constants: A =      0.10825  B =      0.02507  C =      0.02105 [cm^-1]
  Rotational constants: A =   3245.19883  B =    751.47358  C =    630.93253 [MHz]
  Nuclear repulsion =  349.551793783040466

  Charge       = 0
  Multiplicity = 1
  Electrons    = 62
  Nalpha       = 31
  Nbeta        = 31

  ==> Algorithm <==

  SCF Algorithm Type is PK.
  DIIS enabled.
  MOM disabled.
  Fractional occupation disabled.
  Guess Type is SAD.
  Energy threshold   = 1.00e-06
  Density threshold  = 1.00e-10
  Integral threshold = 0.00e+00

  ==> Primary Basis <==

  Basis Set: CC-PVDZ
    Blend: CC-PVDZ
    Number of shells: 84
    Number of basis function: 172
    Number of Cartesian functions: 180
    Spherical Harmonics?: true
    Max angular momentum: 2

  ==> Pre-Iterations <==

   -------------------------------------------------------
    Irrep   Nso     Nmo     Nalpha   Nbeta   Ndocc  Nsocc
   -------------------------------------------------------
     A        172     172       0       0       0       0
   -------------------------------------------------------
    Total     172     172      31      31      31       0
   -------------------------------------------------------

  ==> Integral Setup <==

  Using integral reordering PK algorithm.
  Sizing the integral batches needed.
  Building batch lookup table.
   Calculation information:
      Number of atoms:                  20
      Number of AO shells:              84
      Number of primitives:            236
      Number of atomic orbitals:       180
      Number of basis functions:       172

      Integral cutoff                 1.00e-12
      Number of threads:                 1

	Batch   1 pq = [       0,    9405] index = [             0,44231715] size =     44231715
	Batch   2 pq = [    9405,   13301] index = [      44231715,88464951] size =     44233236
	Batch   3 pq = [   13301,   14878] index = [      88464951,110684881] size =     22219930
  Task number: 11
  Buffer size: 11059200
  Buffer per thread: 2
  We computed 4974238 shell quartets total.
  Whereas there are 6374235 unique shell quartets.

  ==> DiskJK: Disk-Based J/K Matrices <==

    J tasked:                  Yes
    K tasked:                  Yes
    wK tasked:                  No
    Memory [MiB]:              375
    Schwarz Cutoff:          1E-12

    OpenMP threads:              1

  Minimum eigenvalue in the overlap matrix is 1.1905888228E-03.
  Using Symmetric Orthogonalization.

  SCF Guess: Superposition of Atomic Densities via on-the-fly atomic UHF.

  ==> Iterations <==

                        Total Energy        Delta E     RMS |[F,P]|

   @RHF iter SAD:  -342.27645084757279   -3.42276e+02   0.00000e+00
   @RHF iter   1:  -342.87945319343584   -6.03002e-01   3.41074e-03 DIIS
   @RHF iter   2:  -343.05495488905535   -1.75502e-01   1.74177e-03 DIIS
   @RHF iter   3:  -343.09737022480533   -4.24153e-02   4.38161e-04 DIIS
   @RHF iter   4:  -343.10092336304990   -3.55314e-03   1.85270e-04 DIIS
   @RHF iter   5:  -343.10150583743081   -5.82474e-04   2.71053e-05 DIIS
   @RHF iter   6:  -343.10152798476906   -2.21473e-05   1.18711e-05 DIIS
   @RHF iter   7:  -343.10153178890778   -3.80414e-06   4.34650e-06 DIIS
   @RHF iter   8:  -343.10153266599883   -8.77091e-07   1.72448e-06 DIIS
   @RHF iter   9:  -343.10153285432557   -1.88327e-07   6.14461e-07 DIIS
   @RHF iter  10:  -343.10153287225705   -1.79315e-08   1.86256e-07 DIIS
   @RHF iter  11:  -343.10153287419166   -1.93461e-09   8.55262e-08 DIIS
   @RHF iter  12:  -343.10153287446394   -2.72280e-10   3.24313e-08 DIIS
   @RHF iter  13:  -343.10153287451215   -4.82032e-11   9.01659e-09 DIIS
   @RHF iter  14:  -343.10153287451635   -4.20641e-12   3.30048e-09 DIIS
   @RHF iter  15:  -343.10153287451737   -1.02318e-12   1.36488e-09 DIIS
   @RHF iter  16:  -343.10153287451772   -3.41061e-13   4.26112e-10 DIIS
   @RHF iter  17:  -343.10153287451755    1.70530e-13   1.24564e-10 DIIS
   @RHF iter  18:  -343.10153287451652    1.02318e-12   4.59361e-11 DIIS
  Energy and wave function converged.

  ==> Post-Iterations <==

    Orbital Energies [Eh]
    ---------------------

    Doubly Occupied:

       1A    -15.618649     2A    -15.524657     3A    -11.290905
       4A    -11.247855     5A    -11.239120     6A    -11.223979
       7A    -11.222034     8A    -11.221992     9A     -1.337467
      10A     -1.149840    11A     -1.037534    12A     -1.028437
      13A     -0.939454    14A     -0.843444    15A     -0.815289
      16A     -0.757829    17A     -0.738939    18A     -0.614334
      19A     -0.610987    20A     -0.607698    21A     -0.600247
      22A     -0.593163    23A     -0.550752    24A     -0.541712
      25A     -0.520294    26A     -0.515462    27A     -0.493679
      28A     -0.488553    29A     -0.406710    30A     -0.374423
      31A     -0.307649

    Virtual:

      32A      0.161909    33A      0.186919    34A      0.189359
      35A      0.201606    36A      0.222375    37A      0.224188
      38A      0.233381    39A      0.244858    40A      0.260192
      41A      0.268802    42A      0.275916    43A      0.288941
      44A      0.303668    45A      0.325056    46A      0.373296
      47A      0.392037    48A      0.407052    49A      0.423358
      50A      0.473956    51A      0.493972    52A      0.590952
      53A      0.598384    54A      0.600582    55A      0.614074
      56A      0.618582    57A      0.647014    58A      0.673807
      59A      0.692925    60A      0.698249    61A      0.706262
      62A      0.716502    63A      0.757098    64A      0.779868
      65A      0.795010    66A      0.820507    67A      0.832889
      68A      0.846737    69A      0.873898    70A      0.879811
      71A      0.883397    72A      0.892710    73A      0.896440
      74A      0.907395    75A      0.913162    76A      0.934471
      77A      0.936983    78A      0.944914    79A      0.963246
      80A      0.983155    81A      1.016066    82A      1.036414
      83A      1.064440    84A      1.099208    85A      1.107691
      86A      1.117756    87A      1.130314    88A      1.135533
      89A      1.152306    90A      1.175358    91A      1.246981
      92A      1.264725    93A      1.312085    94A      1.315101
      95A      1.330201    96A      1.356372    97A      1.426678
      98A      1.444631    99A      1.475368   100A      1.483612
     101A      1.492122   102A      1.525197   103A      1.572072
     104A      1.586648   105A      1.608798   106A      1.631171
     107A      1.672458   108A      1.685971   109A      1.691709
     110A      1.706258   111A      1.774826   112A      1.811116
     113A      1.821231   114A      1.840859   115A      1.861971
     116A      1.871189   117A      1.903861   118A      1.913488
     119A      1.925495   120A      1.939095   121A      1.943343
     122A      1.950518   123A      1.959660   124A      1.972677
     125A      1.979490   126A      1.981224   127A      2.002803
     128A      2.025941   129A      2.056108   130A      2.094267
     131A      2.096378   132A      2.114995   133A      2.130171
     134A      2.136313   135A      2.167664   136A      2.214751
     137A      2.231157   138A      2.308065   139A      2.316259
     140A      2.345273   141A      2.349880   142A      2.393774
     143A      2.442058   144A      2.451180   145A      2.457190
     146A      2.473532   147A      2.490659   148A      2.550785
     149A      2.566859   150A      2.580473   151A      2.609370
     152A      2.693661   153A      2.741852   154A      2.749373
     155A      2.763729   156A      2.781186   157A      2.784835
     158A      2.800764   159A      2.826735   160A      2.845263
     161A      2.863963   162A      2.887625   163A      2.906025
     164A      2.910496   165A      2.948128   166A      2.958446
     167A      2.965147   168A      3.059798   169A      3.168193
     170A      3.243043   171A      3.477681   172A      3.792913

    Final Occupation by Irrep:
              A
    DOCC [    31 ]

  @RHF Final Energy:  -343.10153287451652

   => Energetics <=

    Nuclear Repulsion Energy =            349.5517937830404662
    One-Electron Energy =               -1156.3804788117290627
    Two-Electron Energy =                 463.7271521541720745
    Total Energy =                       -343.1015328745165220

Computation Completed

Properties will be evaluated at   0.000000,   0.000000,   0.000000 [a0]

Properties computed using the SCF density matrix

  Nuclear Dipole Moment: [e a0]
     X:    -2.6751      Y:    -4.6043      Z:   -13.7027

  Electronic Dipole Moment: [e a0]
     X:     3.1668      Y:     4.8561      Z:    12.4449

  Dipole Moment: [e a0]
     X:     0.4916      Y:     0.2519      Z:    -1.2578     Total:     1.3738

  Dipole Moment: [D]
     X:     1.2496      Y:     0.6402      Z:    -3.1971     Total:     3.4918

*** tstop() called on ds3 at Mon Apr 27 01:40:00 2020
Module time:
	user time   =      32.95 seconds =       0.55 minutes
	system time =      16.98 seconds =       0.28 minutes
	total time  =         49 seconds =       0.82 minutes
Total time:
	user time   =      32.95 seconds =       0.55 minutes
	system time =      16.98 seconds =       0.28 minutes
	total time  =         49 seconds =       0.82 minutes
                                     G D M A

                                 by Anthony Stone

                           version 2.2.06, 22 June 2011

               Distributed Multipoles from Gaussian wavefunctions

Starting at 1:40:0 on 27 Apr 2020

Using SCF density matrix from file ./SSI/SSI-180HIE-224ILE-1-dimer.test.12788.fchk

                         Distributed Multipole Analysis

Standard DMA

Positions and radii in angstrom
Multipole moments in atomic units, ea_0^k for rank k

C          x = -0.665092  y = -1.768688  z =  2.179289 angstrom
           Maximum rank =  0   Radius =  0.650 angstrom
                   Q00  =  -0.192085

C          x =  0.433908  y = -0.288688  z =  0.358289 angstrom
           Maximum rank =  0   Radius =  0.650 angstrom
                   Q00  =  -0.000412

C          x = -0.058092  y = -0.522688  z =  1.602289 angstrom
           Maximum rank =  0   Radius =  0.650 angstrom
                   Q00  =   0.227139

C          x =  0.600908  y =  1.577312  z =  1.519289 angstrom
           Maximum rank =  0   Radius =  0.650 angstrom
                   Q00  =   0.465852

N          x =  0.821908  y =  1.039312  z =  0.324289 angstrom
           Maximum rank =  0   Radius =  0.650 angstrom
                   Q00  =  -0.486756

N          x = -0.000092  y =  0.671312  z =  2.285289 angstrom
           Maximum rank =  0   Radius =  0.650 angstrom
                   Q00  =  -0.772089

H          x =  0.507908  y = -1.012688  z = -0.440711 angstrom
           Maximum rank =  0   Radius =  0.325 angstrom
                   Q00  =   0.103683

H          x =  1.207908  y =  1.537312  z = -0.471711 angstrom
           Maximum rank =  0   Radius =  0.325 angstrom
                   Q00  =   0.220139

H          x = -0.085092  y = -2.094688  z =  3.031289 angstrom
           Maximum rank =  0   Radius =  0.325 angstrom
                   Q00  =   0.110695

H          x = -0.594092  y = -2.557688  z =  1.432289 angstrom
           Maximum rank =  0   Radius =  0.325 angstrom
                   Q00  =   0.088960

H          x =  0.780908  y =  2.612312  z =  1.784289 angstrom
           Maximum rank =  0   Radius =  0.325 angstrom
                   Q00  =   0.123189

H          x = -1.713352  y = -1.634424  z =  2.484439 angstrom
           Maximum rank =  0   Radius =  0.325 angstrom
                   Q00  =   0.111417

C          x = -0.387092  y = -0.202688  z = -3.008711 angstrom
           Maximum rank =  0   Radius =  0.650 angstrom
                   Q00  =  -0.235927

C          x = -0.644092  y = -0.378688  z = -4.468711 angstrom
           Maximum rank =  0   Radius =  0.650 angstrom
                   Q00  =  -0.215037

H          x = -1.149092  y = -0.703688  z = -2.411711 angstrom
           Maximum rank =  0   Radius =  0.325 angstrom
                   Q00  =   0.082210

H          x =  0.578908  y = -0.645688  z = -2.767711 angstrom
           Maximum rank =  0   Radius =  0.325 angstrom
                   Q00  =   0.064310

H          x = -0.356092  y =  0.857312  z = -2.755711 angstrom
           Maximum rank =  0   Radius =  0.325 angstrom
                   Q00  =   0.070637

H          x = -0.758092  y = -1.437688  z = -4.692711 angstrom
           Maximum rank =  0   Radius =  0.325 angstrom
                   Q00  =   0.080495

H          x =  0.244908  y = -0.020688  z = -4.982711 angstrom
           Maximum rank =  0   Radius =  0.325 angstrom
                   Q00  =   0.071813

H          x = -1.515752  y =  0.194242  z = -4.817951 angstrom
           Maximum rank =  0   Radius =  0.325 angstrom
                   Q00  =   0.081766

Total multipoles referred to origin at
           x =   0.000000,  y =    0.000000,  z =    0.000000 angstrom
                   Q00  =  -0.000000

Finished at 1:40:0 on 27 Apr 2020

  DMA results are available in the Python driver through the
	  variable('DMA DISTRIBUTED MULTIPOLES')
  and
	  variable('DMA TOTAL MULTIPOLES')
  commands.

    Psi4 stopped on: Monday, 27 April 2020 01:40AM
    Psi4 wall time for execution: 0:00:49.00

*** Psi4 exiting successfully. Buy a developer a beer!
