                               Psi4 1.3.2 release

  ==> Input File <==

--------------------------------------------------------------------------
import numpy as np
set {scf_type pk
basis cc-pvdz
d_convergence 10
gdma_switch   0
gdma_limit    0
gdma_origin   [ 0.0,  0.0,  0.0 ]
}
molecule test {
    units Angstrom
    0 1
    --
    0 1
    C                1.132485032223163     2.264669409405716     1.121728541353982
    C                0.010485032223163     1.579669409405716     0.343728541353982
    O               -1.171514967776837     1.717669409405716     0.729728541353982
    O                0.309485032223163     0.908669409405716    -0.669271458646018
    H                1.155485032223163     3.327669409405716     0.871728541353982
    H                2.092485032223164     1.830669409405716     0.829728541353982
    H                1.010575032223163     2.155749409405716     2.209508541353982
    C               -0.260514967776837    -2.210330590594284     0.067728541353982
    C                1.119485032223163    -2.608330590594284    -0.442271458646018
    N               -1.027514967776837    -1.495330590594284    -0.988271458646018
    H               -0.793514967776837    -3.116330590594284     0.378728541353982
    H               -0.147514967776837    -1.562330590594284     0.943728541353982
    H                1.648485032223163    -1.711330590594284    -0.776271458646018
    H                1.004485032223163    -3.282330590594283    -1.295271458646018
    H               -0.943514967776837    -1.915330590594284    -1.911271458646018
    H               -2.000514967776837    -1.369330590594284    -0.730271458646018
    H               -0.622514967776837    -0.553330590594284    -1.072271458646018
    H                1.716995032223163    -3.107940590594284     0.334498541353982

}
e, wfn = energy('scf', return_wfn=True)
gdma(wfn)
dmavals = variable('DMA DISTRIBUTED MULTIPOLES')
charges = np.array(dmavals)
print(charges)
np.save('SSI-139GLU-144LYS-1-dimer.npy', np.array(charges))--------------------------------------------------------------------------

*** tstart() called on ds3
*** at Tue Apr 28 16:42:14 2020

   => Loading Basis Set <=

    Name: CC-PVDZ
    Role: ORBITAL
    Keyword: BASIS
    atoms 1-2, 8-9   entry C          line   138 file /theoryfs2/ds/metcalf/miniconda2/envs/tf2gpu/share/psi4/basis/cc-pvdz.gbs
    atoms 3-4        entry O          line   198 file /theoryfs2/ds/metcalf/miniconda2/envs/tf2gpu/share/psi4/basis/cc-pvdz.gbs
    atoms 5-7, 11-18 entry H          line    22 file /theoryfs2/ds/metcalf/miniconda2/envs/tf2gpu/share/psi4/basis/cc-pvdz.gbs
    atoms 10         entry N          line   168 file /theoryfs2/ds/metcalf/miniconda2/envs/tf2gpu/share/psi4/basis/cc-pvdz.gbs

         ---------------------------------------------------------
                                   SCF
               by Justin Turney, Rob Parrish, Andy Simmonett
                          and Daniel G. A. Smith
                              RHF Reference
                        1 Threads,    500 MiB Core
         ---------------------------------------------------------

  ==> Geometry <==

    Molecular point group: c1
    Full point group: C1

    Geometry (in Angstrom), charge = 0, multiplicity = 1:

       Center              X                  Y                   Z               Mass
    ------------   -----------------  -----------------  -----------------  -----------------
         C            1.132485032223     2.264669409406     1.121728541354    12.000000000000
         C            0.010485032223     1.579669409406     0.343728541354    12.000000000000
         O           -1.171514967777     1.717669409406     0.729728541354    15.994914619570
         O            0.309485032223     0.908669409406    -0.669271458646    15.994914619570
         H            1.155485032223     3.327669409406     0.871728541354     1.007825032230
         H            2.092485032223     1.830669409406     0.829728541354     1.007825032230
         H            1.010575032223     2.155749409406     2.209508541354     1.007825032230
         C           -0.260514967777    -2.210330590594     0.067728541354    12.000000000000
         C            1.119485032223    -2.608330590594    -0.442271458646    12.000000000000
         N           -1.027514967777    -1.495330590594    -0.988271458646    14.003074004430
         H           -0.793514967777    -3.116330590594     0.378728541354     1.007825032230
         H           -0.147514967777    -1.562330590594     0.943728541354     1.007825032230
         H            1.648485032223    -1.711330590594    -0.776271458646     1.007825032230
         H            1.004485032223    -3.282330590594    -1.295271458646     1.007825032230
         H           -0.943514967777    -1.915330590594    -1.911271458646     1.007825032230
         H           -2.000514967777    -1.369330590594    -0.730271458646     1.007825032230
         H           -0.622514967777    -0.553330590594    -1.072271458646     1.007825032230
         H            1.716995032223    -3.107940590594     0.334498541354     1.007825032230

  Running in c1 symmetry.

  Rotational constants: A =      0.13423  B =      0.03784  C =      0.03354 [cm^-1]
  Rotational constants: A =   4024.06949  B =   1134.45708  C =   1005.39748 [MHz]
  Nuclear repulsion =  314.380198036124455

  Charge       = 0
  Multiplicity = 1
  Electrons    = 58
  Nalpha       = 29
  Nbeta        = 29

  ==> Algorithm <==

  SCF Algorithm Type is PK.
  DIIS enabled.
  MOM disabled.
  Fractional occupation disabled.
  Guess Type is SAD.
  Energy threshold   = 1.00e-06
  Density threshold  = 1.00e-10
  Integral threshold = 0.00e+00

  ==> Primary Basis <==

  Basis Set: CC-PVDZ
    Blend: CC-PVDZ
    Number of shells: 75
    Number of basis function: 153
    Number of Cartesian functions: 160
    Spherical Harmonics?: true
    Max angular momentum: 2

  ==> Pre-Iterations <==

   -------------------------------------------------------
    Irrep   Nso     Nmo     Nalpha   Nbeta   Ndocc  Nsocc
   -------------------------------------------------------
     A        153     153       0       0       0       0
   -------------------------------------------------------
    Total     153     153      29      29      29       0
   -------------------------------------------------------

  ==> Integral Setup <==

  Using integral reordering PK algorithm.
  Sizing the integral batches needed.
  Building batch lookup table.
   Calculation information:
      Number of atoms:                  18
      Number of AO shells:              75
      Number of primitives:            209
      Number of atomic orbitals:       160
      Number of basis functions:       153

      Integral cutoff                 1.00e-12
      Number of threads:                 1

	Batch   1 pq = [       0,    9405] index = [             0,44231715] size =     44231715
	Batch   2 pq = [    9405,   11781] index = [      44231715,69401871] size =     25170156
  Task number: 7
  Buffer size: 11059200
  Buffer per thread: 2
  We computed 3683734 shell quartets total.
  Whereas there are 4062675 unique shell quartets.

  ==> DiskJK: Disk-Based J/K Matrices <==

    J tasked:                  Yes
    K tasked:                  Yes
    wK tasked:                  No
    Memory [MiB]:              375
    Schwarz Cutoff:          1E-12

    OpenMP threads:              1

  Minimum eigenvalue in the overlap matrix is 5.3087181451E-03.
  Using Symmetric Orthogonalization.

  SCF Guess: Superposition of Atomic Densities via on-the-fly atomic UHF.

  ==> Iterations <==

                        Total Energy        Delta E     RMS |[F,P]|

   @RHF iter SAD:  -360.73481543842865   -3.60735e+02   0.00000e+00
   @RHF iter   1:  -361.80131777992790   -1.06650e+00   4.62376e-03 DIIS
   @RHF iter   2:  -361.99887521225099   -1.97557e-01   2.50826e-03 DIIS
   @RHF iter   3:  -362.05230120598895   -5.34260e-02   4.35517e-04 DIIS
   @RHF iter   4:  -362.05525751967571   -2.95631e-03   1.52759e-04 DIIS
   @RHF iter   5:  -362.05560958605065   -3.52066e-04   3.02383e-05 DIIS
   @RHF iter   6:  -362.05562656613142   -1.69801e-05   1.60958e-05 DIIS
   @RHF iter   7:  -362.05562980618129   -3.24005e-06   3.45104e-06 DIIS
   @RHF iter   8:  -362.05563028478059   -4.78599e-07   1.62507e-06 DIIS
   @RHF iter   9:  -362.05563038046455   -9.56840e-08   5.28495e-07 DIIS
   @RHF iter  10:  -362.05563039084728   -1.03827e-08   1.55976e-07 DIIS
   @RHF iter  11:  -362.05563039161632   -7.69035e-10   3.43567e-08 DIIS
   @RHF iter  12:  -362.05563039165042   -3.41061e-11   7.90657e-09 DIIS
   @RHF iter  13:  -362.05563039165304   -2.61480e-12   2.03625e-09 DIIS
   @RHF iter  14:  -362.05563039165185    1.19371e-12   7.37499e-10 DIIS
   @RHF iter  15:  -362.05563039165418   -2.33058e-12   2.49120e-10 DIIS
   @RHF iter  16:  -362.05563039165304    1.13687e-12   1.14501e-10 DIIS
   @RHF iter  17:  -362.05563039165497   -1.93268e-12   4.77211e-11 DIIS
  Energy and wave function converged.

  ==> Post-Iterations <==

    Orbital Energies [Eh]
    ---------------------

    Doubly Occupied:

       1A    -20.437423     2A    -20.412470     3A    -15.716934
       4A    -11.332614     5A    -11.272788     6A    -11.271628
       7A    -11.177068     8A     -1.345234     9A     -1.315064
      10A     -1.197986    11A     -1.071796    12A     -0.925507
      13A     -0.907983    14A     -0.800228    15A     -0.794222
      16A     -0.702313    17A     -0.655993    18A     -0.640987
      19A     -0.586659    20A     -0.562785    21A     -0.559951
      22A     -0.551193    23A     -0.543188    24A     -0.541317
      25A     -0.483915    26A     -0.458388    27A     -0.351394
      28A     -0.327595    29A     -0.326722

    Virtual:

      30A      0.112427    31A      0.163049    32A      0.167469
      33A      0.203066    34A      0.218328    35A      0.232659
      36A      0.252234    37A      0.261714    38A      0.273721
      39A      0.303250    40A      0.309766    41A      0.331794
      42A      0.348702    43A      0.368633    44A      0.449634
      45A      0.518738    46A      0.534218    47A      0.543364
      48A      0.562256    49A      0.583418    50A      0.603457
      51A      0.639611    52A      0.697128    53A      0.733803
      54A      0.747470    55A      0.763066    56A      0.788545
      57A      0.806640    58A      0.819711    59A      0.826746
      60A      0.843696    61A      0.849630    62A      0.857733
      63A      0.876841    64A      0.891567    65A      0.893228
      66A      0.911574    67A      0.930059    68A      0.956573
      69A      0.976711    70A      0.990455    71A      1.011046
      72A      1.020393    73A      1.082064    74A      1.094337
      75A      1.108918    76A      1.162844    77A      1.208918
      78A      1.222835    79A      1.313709    80A      1.352363
      81A      1.377761    82A      1.427494    83A      1.432018
      84A      1.448223    85A      1.455906    86A      1.466055
      87A      1.527820    88A      1.572256    89A      1.582598
      90A      1.596236    91A      1.627904    92A      1.650151
      93A      1.673704    94A      1.701800    95A      1.723553
      96A      1.791458    97A      1.801608    98A      1.840726
      99A      1.861015   100A      1.878012   101A      1.900425
     102A      1.918696   103A      1.921039   104A      1.934623
     105A      1.949209   106A      1.958065   107A      1.964576
     108A      1.997113   109A      2.042323   110A      2.050873
     111A      2.071976   112A      2.092737   113A      2.119524
     114A      2.171635   115A      2.188552   116A      2.209545
     117A      2.231039   118A      2.254975   119A      2.289001
     120A      2.317971   121A      2.325857   122A      2.350960
     123A      2.408996   124A      2.452411   125A      2.508434
     126A      2.524221   127A      2.535579   128A      2.568182
     129A      2.621002   130A      2.659342   131A      2.681334
     132A      2.713971   133A      2.729241   134A      2.766823
     135A      2.792467   136A      2.816470   137A      2.846868
     138A      2.857269   139A      2.908873   140A      2.957142
     141A      2.997411   142A      3.090830   143A      3.117694
     144A      3.138851   145A      3.198602   146A      3.293192
     147A      3.370055   148A      3.479134   149A      3.615964
     150A      3.682732   151A      3.918413   152A      3.922382
     153A      4.050496

    Final Occupation by Irrep:
              A
    DOCC [    29 ]

  @RHF Final Energy:  -362.05563039165497

   => Energetics <=

    Nuclear Repulsion Energy =            314.3801980361244546
    One-Electron Energy =               -1118.3289698075645902
    Two-Electron Energy =                 441.8931413797851064
    Total Energy =                       -362.0556303916549723

Computation Completed

Properties will be evaluated at   0.000000,   0.000000,   0.000000 [a0]

Properties computed using the SCF density matrix

  Nuclear Dipole Moment: [e a0]
     X:     3.8621      Y:    -8.7054      Z:    -0.2007

  Electronic Dipole Moment: [e a0]
     X:    -4.0884      Y:     4.5893      Z:    -0.8564

  Dipole Moment: [e a0]
     X:    -0.2263      Y:    -4.1161      Z:    -1.0571     Total:     4.2557

  Dipole Moment: [D]
     X:    -0.5753      Y:   -10.4621      Z:    -2.6868     Total:    10.8169

*** tstop() called on ds3 at Tue Apr 28 16:43:58 2020
Module time:
	user time   =      24.16 seconds =       0.40 minutes
	system time =       9.14 seconds =       0.15 minutes
	total time  =        104 seconds =       1.73 minutes
Total time:
	user time   =      24.16 seconds =       0.40 minutes
	system time =       9.14 seconds =       0.15 minutes
	total time  =        104 seconds =       1.73 minutes
                                     G D M A

                                 by Anthony Stone

                           version 2.2.06, 22 June 2011

               Distributed Multipoles from Gaussian wavefunctions

Starting at 16:43:58 on 28 Apr 2020

Using SCF density matrix from file ./SSI/SSI-139GLU-144LYS-1-dimer.test.17191.fchk

                         Distributed Multipole Analysis

Standard DMA

Positions and radii in angstrom
Multipole moments in atomic units, ea_0^k for rank k

C          x =  1.132485  y =  2.264669  z =  1.121729 angstrom
           Maximum rank =  0   Radius =  0.650 angstrom
                   Q00  =  -0.274355

C          x =  0.010485  y =  1.579669  z =  0.343729 angstrom
           Maximum rank =  0   Radius =  0.650 angstrom
                   Q00  =   0.895737

O          x = -1.171515  y =  1.717669  z =  0.729729 angstrom
           Maximum rank =  0   Radius =  0.650 angstrom
                   Q00  =  -0.887084

O          x =  0.309485  y =  0.908669  z = -0.669271 angstrom
           Maximum rank =  0   Radius =  0.650 angstrom
                   Q00  =  -0.972227

H          x =  1.155485  y =  3.327669  z =  0.871729 angstrom
           Maximum rank =  0   Radius =  0.325 angstrom
                   Q00  =   0.113135

H          x =  2.092485  y =  1.830669  z =  0.829729 angstrom
           Maximum rank =  0   Radius =  0.325 angstrom
                   Q00  =   0.068474

H          x =  1.010575  y =  2.155749  z =  2.209509 angstrom
           Maximum rank =  0   Radius =  0.325 angstrom
                   Q00  =   0.086810

C          x = -0.260515  y = -2.210331  z =  0.067729 angstrom
           Maximum rank =  0   Radius =  0.650 angstrom
                   Q00  =   0.002445

C          x =  1.119485  y = -2.608331  z = -0.442271 angstrom
           Maximum rank =  0   Radius =  0.650 angstrom
                   Q00  =  -0.231107

N          x = -1.027515  y = -1.495331  z = -0.988271 angstrom
           Maximum rank =  0   Radius =  0.650 angstrom
                   Q00  =  -0.130255

H          x = -0.793515  y = -3.116331  z =  0.378729 angstrom
           Maximum rank =  0   Radius =  0.325 angstrom
                   Q00  =   0.080754

H          x = -0.147515  y = -1.562331  z =  0.943729 angstrom
           Maximum rank =  0   Radius =  0.325 angstrom
                   Q00  =   0.145714

H          x =  1.648485  y = -1.711331  z = -0.776271 angstrom
           Maximum rank =  0   Radius =  0.325 angstrom
                   Q00  =   0.115986

H          x =  1.004485  y = -3.282331  z = -1.295271 angstrom
           Maximum rank =  0   Radius =  0.325 angstrom
                   Q00  =   0.073955

H          x = -0.943515  y = -1.915331  z = -1.911271 angstrom
           Maximum rank =  0   Radius =  0.325 angstrom
                   Q00  =   0.217907

H          x = -2.000515  y = -1.369331  z = -0.730271 angstrom
           Maximum rank =  0   Radius =  0.325 angstrom
                   Q00  =   0.240206

H          x = -0.622515  y = -0.553331  z = -1.072271 angstrom
           Maximum rank =  0   Radius =  0.325 angstrom
                   Q00  =   0.330291

H          x =  1.716995  y = -3.107941  z =  0.334499 angstrom
           Maximum rank =  0   Radius =  0.325 angstrom
                   Q00  =   0.123615

Total multipoles referred to origin at
           x =   0.000000,  y =    0.000000,  z =    0.000000 angstrom
                   Q00  =  -0.000000

Finished at 16:43:58 on 28 Apr 2020

  DMA results are available in the Python driver through the
	  variable('DMA DISTRIBUTED MULTIPOLES')
  and
	  variable('DMA TOTAL MULTIPOLES')
  commands.

    Psi4 stopped on: Tuesday, 28 April 2020 04:43PM
    Psi4 wall time for execution: 0:01:43.35

*** Psi4 exiting successfully. Buy a developer a beer!
