                               Psi4 1.3.2 release

  ==> Input File <==

--------------------------------------------------------------------------
import numpy as np
set {scf_type pk
basis cc-pvdz
d_convergence 10
gdma_switch   0
gdma_limit    0
gdma_origin   [ 0.0,  0.0,  0.0 ]
}
molecule test {
    units Angstrom
    -1 1
    --
    -1 1
    C               -0.862700634281969     2.014012518384421    -0.861631895065228
    C               -1.524700634281969     0.684012518384421    -1.042631895065228
    C               -1.860700634281969    -1.470987481615579    -0.747631895065228
    C               -2.567700634281969     0.310012518384421    -1.830631895065228
    N               -1.106700634281969    -0.449987481615579    -0.376631895065228
    N               -2.759700634281969    -1.039987481615579    -1.626631895065228
    H               -1.736700634281969    -2.494987481615579    -0.413631895065228
    H               -0.057700634281969     2.102012518384421    -1.580631895065228
    H               -0.403700634281969     1.987012518384421     0.123368104934772
    H               -3.442700634281969    -1.625987481615579    -2.092631895065228
    H               -3.136700634281969     0.951012518384421    -2.481631895065228
    H               -1.534320634281969     2.882662518384421    -0.927786895065228
    C                3.087299365718031    -1.287987481615579     1.890368104934772
    C                2.431299365718031     0.043012518384421     1.489368104934772
    O                1.355299365718031     0.060012518384421     0.855368104934772
    O                3.029299365718031     1.093012518384421     1.815368104934772
    H                3.356299365718031    -1.310987481615579     2.921368104934772
    H                4.032299365718031    -1.372987481615579     1.364368104934772
    H                2.503178365718031    -2.192548481615579     1.665485104934772

}
e, wfn = energy('scf', return_wfn=True)
gdma(wfn)
dmavals = variable('DMA DISTRIBUTED MULTIPOLES')
charges = np.array(dmavals)
print(charges)
np.save('SSI-196HIE-218GLU-1-dimer.npy', np.array(charges))--------------------------------------------------------------------------

*** tstart() called on ds3
*** at Mon Apr 27 22:00:56 2020

   => Loading Basis Set <=

    Name: CC-PVDZ
    Role: ORBITAL
    Keyword: BASIS
    atoms 1-4, 13-14  entry C          line   138 file /theoryfs2/ds/metcalf/miniconda2/envs/tf2gpu/share/psi4/basis/cc-pvdz.gbs
    atoms 5-6         entry N          line   168 file /theoryfs2/ds/metcalf/miniconda2/envs/tf2gpu/share/psi4/basis/cc-pvdz.gbs
    atoms 7-12, 17-19 entry H          line    22 file /theoryfs2/ds/metcalf/miniconda2/envs/tf2gpu/share/psi4/basis/cc-pvdz.gbs
    atoms 15-16       entry O          line   198 file /theoryfs2/ds/metcalf/miniconda2/envs/tf2gpu/share/psi4/basis/cc-pvdz.gbs

         ---------------------------------------------------------
                                   SCF
               by Justin Turney, Rob Parrish, Andy Simmonett
                          and Daniel G. A. Smith
                              RHF Reference
                        1 Threads,    500 MiB Core
         ---------------------------------------------------------

  ==> Geometry <==

    Molecular point group: c1
    Full point group: C1

    Geometry (in Angstrom), charge = -1, multiplicity = 1:

       Center              X                  Y                   Z               Mass
    ------------   -----------------  -----------------  -----------------  -----------------
         C           -0.862700634282     2.014012518384    -0.861631895065    12.000000000000
         C           -1.524700634282     0.684012518384    -1.042631895065    12.000000000000
         C           -1.860700634282    -1.470987481616    -0.747631895065    12.000000000000
         C           -2.567700634282     0.310012518384    -1.830631895065    12.000000000000
         N           -1.106700634282    -0.449987481616    -0.376631895065    14.003074004430
         N           -2.759700634282    -1.039987481616    -1.626631895065    14.003074004430
         H           -1.736700634282    -2.494987481616    -0.413631895065     1.007825032230
         H           -0.057700634282     2.102012518384    -1.580631895065     1.007825032230
         H           -0.403700634282     1.987012518384     0.123368104935     1.007825032230
         H           -3.442700634282    -1.625987481616    -2.092631895065     1.007825032230
         H           -3.136700634282     0.951012518384    -2.481631895065     1.007825032230
         H           -1.534320634282     2.882662518384    -0.927786895065     1.007825032230
         C            3.087299365718    -1.287987481616     1.890368104935    12.000000000000
         C            2.431299365718     0.043012518384     1.489368104935    12.000000000000
         O            1.355299365718     0.060012518384     0.855368104935    15.994914619570
         O            3.029299365718     1.093012518384     1.815368104935    15.994914619570
         H            3.356299365718    -1.310987481616     2.921368104935     1.007825032230
         H            4.032299365718    -1.372987481616     1.364368104935     1.007825032230
         H            2.503178365718    -2.192548481616     1.665485104935     1.007825032230

  Running in c1 symmetry.

  Rotational constants: A =      0.09326  B =      0.01735  C =      0.01476 [cm^-1]
  Rotational constants: A =   2795.73995  B =    520.18121  C =    442.52882 [MHz]
  Nuclear repulsion =  481.930225437961610

  Charge       = -1
  Multiplicity = 1
  Electrons    = 76
  Nalpha       = 38
  Nbeta        = 38

  ==> Algorithm <==

  SCF Algorithm Type is PK.
  DIIS enabled.
  MOM disabled.
  Fractional occupation disabled.
  Guess Type is SAD.
  Energy threshold   = 1.00e-06
  Density threshold  = 1.00e-10
  Integral threshold = 0.00e+00

  ==> Primary Basis <==

  Basis Set: CC-PVDZ
    Blend: CC-PVDZ
    Number of shells: 87
    Number of basis function: 185
    Number of Cartesian functions: 195
    Spherical Harmonics?: true
    Max angular momentum: 2

  ==> Pre-Iterations <==

   -------------------------------------------------------
    Irrep   Nso     Nmo     Nalpha   Nbeta   Ndocc  Nsocc
   -------------------------------------------------------
     A        185     185       0       0       0       0
   -------------------------------------------------------
    Total     185     185      38      38      38       0
   -------------------------------------------------------

  ==> Integral Setup <==

  Using integral reordering PK algorithm.
  Sizing the integral batches needed.
  Building batch lookup table.
   Calculation information:
      Number of atoms:                  19
      Number of AO shells:              87
      Number of primitives:            265
      Number of atomic orbitals:       195
      Number of basis functions:       185

      Integral cutoff                 1.00e-12
      Number of threads:                 1

	Batch   1 pq = [       0,    9405] index = [             0,44231715] size =     44231715
	Batch   2 pq = [    9405,   13301] index = [      44231715,88464951] size =     44233236
	Batch   3 pq = [   13301,   16290] index = [      88464951,132690195] size =     44225244
	Batch   4 pq = [   16290,   17205] index = [     132690195,148014615] size =     15324420
  Task number: 14
  Buffer size: 11059200
  Buffer per thread: 2
  We computed 5261505 shell quartets total.
  Whereas there are 7328706 unique shell quartets.

  ==> DiskJK: Disk-Based J/K Matrices <==

    J tasked:                  Yes
    K tasked:                  Yes
    wK tasked:                  No
    Memory [MiB]:              375
    Schwarz Cutoff:          1E-12

    OpenMP threads:              1

  Minimum eigenvalue in the overlap matrix is 1.1871420183E-03.
  Using Symmetric Orthogonalization.

  SCF Guess: Superposition of Atomic Densities via on-the-fly atomic UHF.

  ==> Iterations <==

                        Total Energy        Delta E     RMS |[F,P]|

   @RHF iter SAD:  -489.70404542217784   -4.89704e+02   0.00000e+00
   @RHF iter   1:  -490.74012216719643   -1.03608e+00   4.42380e-03 DIIS
   @RHF iter   2:  -490.98440731682746   -2.44285e-01   2.72535e-03 DIIS
   @RHF iter   3:  -491.08282598491780   -9.84187e-02   4.63023e-04 DIIS
   @RHF iter   4:  -491.08715550003177   -4.32952e-03   1.91287e-04 DIIS
   @RHF iter   5:  -491.08793168856624   -7.76189e-04   4.38809e-05 DIIS
   @RHF iter   6:  -491.08797923793406   -4.75494e-05   1.78890e-05 DIIS
   @RHF iter   7:  -491.08798854715536   -9.30922e-06   5.25311e-06 DIIS
   @RHF iter   8:  -491.08798990955677   -1.36240e-06   2.31307e-06 DIIS
   @RHF iter   9:  -491.08799018686489   -2.77308e-07   1.08207e-06 DIIS
   @RHF iter  10:  -491.08799025322816   -6.63633e-08   3.26105e-07 DIIS
   @RHF iter  11:  -491.08799025886600   -5.63784e-09   1.42357e-07 DIIS
   @RHF iter  12:  -491.08799025984479   -9.78787e-10   5.19644e-08 DIIS
   @RHF iter  13:  -491.08799025998940   -1.44610e-10   1.61243e-08 DIIS
   @RHF iter  14:  -491.08799026000366   -1.42677e-11   4.78983e-09 DIIS
   @RHF iter  15:  -491.08799026000509   -1.42109e-12   2.00727e-09 DIIS
   @RHF iter  16:  -491.08799026000372    1.36424e-12   7.24082e-10 DIIS
   @RHF iter  17:  -491.08799026000474   -1.02318e-12   3.37873e-10 DIIS
   @RHF iter  18:  -491.08799026000531   -5.68434e-13   7.92451e-11 DIIS
  Energy and wave function converged.

  ==> Post-Iterations <==

    Orbital Energies [Eh]
    ---------------------

    Doubly Occupied:

       1A    -20.240499     2A    -20.237247     3A    -15.509672
       4A    -15.400874     5A    -11.173657     6A    -11.137015
       7A    -11.124726     8A    -11.099377     9A    -11.092068
      10A    -11.037422    11A     -1.227267    12A     -1.130595
      13A     -1.035507    14A     -1.014850    15A     -0.912576
      16A     -0.820527    17A     -0.785480    18A     -0.702475
      19A     -0.647260    20A     -0.626660    21A     -0.495160
      22A     -0.490047    23A     -0.488136    24A     -0.482645
      25A     -0.430012    26A     -0.416658    27A     -0.395909
      28A     -0.393345    29A     -0.390403    30A     -0.386604
      31A     -0.329060    32A     -0.287657    33A     -0.269776
      34A     -0.255294    35A     -0.196506    36A     -0.166206
      37A     -0.149883    38A     -0.140349

    Virtual:

      39A      0.265834    40A      0.298062    41A      0.307918
      42A      0.325986    43A      0.349273    44A      0.356509
      45A      0.363354    46A      0.405264    47A      0.409623
      48A      0.423584    49A      0.445164    50A      0.484579
      51A      0.502115    52A      0.503843    53A      0.540288
      54A      0.584943    55A      0.589363    56A      0.598828
      57A      0.703067    58A      0.713094    59A      0.721966
      60A      0.757465    61A      0.761899    62A      0.786016
      63A      0.806589    64A      0.823934    65A      0.824403
      66A      0.864795    67A      0.873704    68A      0.882321
      69A      0.907568    70A      0.937639    71A      0.954876
      72A      0.962659    73A      0.971032    74A      0.977405
      75A      1.011879    76A      1.018741    77A      1.034233
      78A      1.048908    79A      1.049911    80A      1.052933
      81A      1.060862    82A      1.084212    83A      1.096377
      84A      1.126143    85A      1.152276    86A      1.153611
      87A      1.156689    88A      1.202149    89A      1.208043
      90A      1.240068    91A      1.254136    92A      1.256949
      93A      1.292163    94A      1.356894    95A      1.360276
      96A      1.367973    97A      1.386477    98A      1.414995
      99A      1.432531   100A      1.441494   101A      1.511098
     102A      1.542390   103A      1.546870   104A      1.571491
     105A      1.580571   106A      1.600959   107A      1.622882
     108A      1.629334   109A      1.674579   110A      1.683927
     111A      1.702933   112A      1.735777   113A      1.746945
     114A      1.763028   115A      1.800072   116A      1.824020
     117A      1.835336   118A      1.864884   119A      1.877033
     120A      1.895301   121A      1.924107   122A      1.956142
     123A      1.969382   124A      2.029456   125A      2.043348
     126A      2.056586   127A      2.065195   128A      2.068971
     129A      2.075793   130A      2.092840   131A      2.107324
     132A      2.139375   133A      2.143452   134A      2.157098
     135A      2.176966   136A      2.220755   137A      2.235705
     138A      2.272338   139A      2.273974   140A      2.319995
     141A      2.325342   142A      2.348915   143A      2.354085
     144A      2.420810   145A      2.439368   146A      2.461505
     147A      2.487888   148A      2.513223   149A      2.541551
     150A      2.561861   151A      2.612331   152A      2.614923
     153A      2.658675   154A      2.681395   155A      2.721633
     156A      2.748287   157A      2.798484   158A      2.815365
     159A      2.861753   160A      2.895343   161A      2.921161
     162A      2.926541   163A      2.937481   164A      2.967573
     165A      2.986663   166A      3.007612   167A      3.010991
     168A      3.035649   169A      3.043800   170A      3.085276
     171A      3.187853   172A      3.262338   173A      3.284032
     174A      3.300493   175A      3.314022   176A      3.358746
     177A      3.380541   178A      3.597051   179A      3.660228
     180A      3.808178   181A      3.842351   182A      3.908443
     183A      4.083838   184A      4.129624   185A      4.226303

    Final Occupation by Irrep:
              A
    DOCC [    38 ]

  @RHF Final Energy:  -491.08799026000531

   => Energetics <=

    Nuclear Repulsion Energy =            481.9302254379616102
    One-Electron Energy =               -1639.7976262729478094
    Two-Electron Energy =                 666.7794105749809432
    Total Energy =                       -491.0879902600053128

Computation Completed

Properties will be evaluated at   0.000000,   0.000000,   0.000000 [a0]

Properties computed using the SCF density matrix

  Nuclear Dipole Moment: [e a0]
     X:    -0.3615      Y:    -0.9977      Z:    -1.3142

  Electronic Dipole Moment: [e a0]
     X:    -4.0897      Y:    -0.6700      Z:    -1.5339

  Dipole Moment: [e a0]
     X:    -4.4512      Y:    -1.6678      Z:    -2.8481     Total:     5.5413

  Dipole Moment: [D]
     X:   -11.3138      Y:    -4.2390      Z:    -7.2391     Total:    14.0846

*** tstop() called on ds3 at Mon Apr 27 22:02:01 2020
Module time:
	user time   =      45.06 seconds =       0.75 minutes
	system time =      23.14 seconds =       0.39 minutes
	total time  =         65 seconds =       1.08 minutes
Total time:
	user time   =      45.06 seconds =       0.75 minutes
	system time =      23.14 seconds =       0.39 minutes
	total time  =         65 seconds =       1.08 minutes
                                     G D M A

                                 by Anthony Stone

                           version 2.2.06, 22 June 2011

               Distributed Multipoles from Gaussian wavefunctions

Starting at 22:2:2 on 27 Apr 2020

Using SCF density matrix from file ./SSI/SSI-196HIE-218GLU-1-dimer.test.30330.fchk

                         Distributed Multipole Analysis

Standard DMA

Positions and radii in angstrom
Multipole moments in atomic units, ea_0^k for rank k

C          x = -0.862701  y =  2.014013  z = -0.861632 angstrom
           Maximum rank =  0   Radius =  0.650 angstrom
                   Q00  =  -0.207139

C          x = -1.524701  y =  0.684013  z = -1.042632 angstrom
           Maximum rank =  0   Radius =  0.650 angstrom
                   Q00  =   0.276710

C          x = -1.860701  y = -1.470987  z = -0.747632 angstrom
           Maximum rank =  0   Radius =  0.650 angstrom
                   Q00  =   0.432543

C          x = -2.567701  y =  0.310013  z = -1.830632 angstrom
           Maximum rank =  0   Radius =  0.650 angstrom
                   Q00  =  -0.046372

N          x = -1.106701  y = -0.449987  z = -0.376632 angstrom
           Maximum rank =  0   Radius =  0.650 angstrom
                   Q00  =  -0.724395

N          x = -2.759701  y = -1.039987  z = -1.626632 angstrom
           Maximum rank =  0   Radius =  0.650 angstrom
                   Q00  =  -0.449363

H          x = -1.736701  y = -2.494987  z = -0.413632 angstrom
           Maximum rank =  0   Radius =  0.325 angstrom
                   Q00  =   0.107215

H          x = -0.057701  y =  2.102013  z = -1.580632 angstrom
           Maximum rank =  0   Radius =  0.325 angstrom
                   Q00  =   0.114843

H          x = -0.403701  y =  1.987013  z =  0.123368 angstrom
           Maximum rank =  0   Radius =  0.325 angstrom
                   Q00  =   0.169638

H          x = -3.442701  y = -1.625987  z = -2.092632 angstrom
           Maximum rank =  0   Radius =  0.325 angstrom
                   Q00  =   0.186403

H          x = -3.136701  y =  0.951013  z = -2.481632 angstrom
           Maximum rank =  0   Radius =  0.325 angstrom
                   Q00  =   0.079578

H          x = -1.534321  y =  2.882663  z = -0.927787 angstrom
           Maximum rank =  0   Radius =  0.325 angstrom
                   Q00  =   0.044541

C          x =  3.087299  y = -1.287987  z =  1.890368 angstrom
           Maximum rank =  0   Radius =  0.650 angstrom
                   Q00  =  -0.286893

C          x =  2.431299  y =  0.043013  z =  1.489368 angstrom
           Maximum rank =  0   Radius =  0.650 angstrom
                   Q00  =   0.971787

O          x =  1.355299  y =  0.060013  z =  0.855368 angstrom
           Maximum rank =  0   Radius =  0.650 angstrom
                   Q00  =  -0.904113

O          x =  3.029299  y =  1.093013  z =  1.815368 angstrom
           Maximum rank =  0   Radius =  0.650 angstrom
                   Q00  =  -0.936847

H          x =  3.356299  y = -1.310987  z =  2.921368 angstrom
           Maximum rank =  0   Radius =  0.325 angstrom
                   Q00  =   0.064273

H          x =  4.032299  y = -1.372987  z =  1.364368 angstrom
           Maximum rank =  0   Radius =  0.325 angstrom
                   Q00  =   0.065713

H          x =  2.503178  y = -2.192548  z =  1.665485 angstrom
           Maximum rank =  0   Radius =  0.325 angstrom
                   Q00  =   0.041877

Total multipoles referred to origin at
           x =   0.000000,  y =    0.000000,  z =    0.000000 angstrom
                   Q00  =  -1.000000

Finished at 22:2:2 on 27 Apr 2020

  DMA results are available in the Python driver through the
	  variable('DMA DISTRIBUTED MULTIPOLES')
  and
	  variable('DMA TOTAL MULTIPOLES')
  commands.

    Psi4 stopped on: Monday, 27 April 2020 10:02PM
    Psi4 wall time for execution: 0:01:06.09

*** Psi4 exiting successfully. Buy a developer a beer!
