                               Psi4 1.3.2 release

  ==> Input File <==

--------------------------------------------------------------------------
import numpy as np
set {scf_type pk
basis cc-pvdz
d_convergence 10
gdma_switch   0
gdma_limit    0
gdma_origin   [ 0.0,  0.0,  0.0 ]
}
molecule test {
    units Angstrom
    0 1
    --
    0 1
    C               -0.727200145578644     1.149229997669219     1.025818073297074
    C               -1.093200145578644     1.969229997669219     2.254818073297074
    H               -1.127200145578644     0.137229997669219     1.110818073297074
    H               -1.141200145578644     1.621229997669219     0.132818073297074
    H                0.355799854421356     1.109229997669219     0.912818073297074
    H               -0.610200145578644     2.946229997669219     2.196818073297074
    H               -0.771850145578644     1.447209997669219     3.168178073297075
    H               -2.183710145578643     2.112979997669219     2.265638073297074
    C                0.470799854421356    -1.156770002330781    -1.166181926702926
    C                1.353799854421357    -1.965770002330781    -2.108181926702926
    H                1.081799854421356    -0.692770002330781    -0.392181926702926
    H               -0.043200145578644    -0.375770002330781    -1.727181926702926
    H               -0.294200145578643    -1.786770002330781    -0.715181926702926
    H                0.719799854421357    -2.575770002330781    -2.754181926702926
    H                2.029029854421357    -2.617320002330781    -1.534121926702926
    H                1.935129854421357    -1.277130002330781    -2.738921926702926

}
e, wfn = energy('scf', return_wfn=True)
gdma(wfn)
dmavals = variable('DMA DISTRIBUTED MULTIPOLES')
charges = np.array(dmavals)
print(charges)
np.save('SSI-050THR-143THR-1-dimer.npy', np.array(charges))--------------------------------------------------------------------------

*** tstart() called on ds3
*** at Tue Apr 28 03:59:35 2020

   => Loading Basis Set <=

    Name: CC-PVDZ
    Role: ORBITAL
    Keyword: BASIS
    atoms 1-2, 9-10  entry C          line   138 file /theoryfs2/ds/metcalf/miniconda2/envs/tf2gpu/share/psi4/basis/cc-pvdz.gbs
    atoms 3-8, 11-16 entry H          line    22 file /theoryfs2/ds/metcalf/miniconda2/envs/tf2gpu/share/psi4/basis/cc-pvdz.gbs

         ---------------------------------------------------------
                                   SCF
               by Justin Turney, Rob Parrish, Andy Simmonett
                          and Daniel G. A. Smith
                              RHF Reference
                        1 Threads,    500 MiB Core
         ---------------------------------------------------------

  ==> Geometry <==

    Molecular point group: c1
    Full point group: C1

    Geometry (in Angstrom), charge = 0, multiplicity = 1:

       Center              X                  Y                   Z               Mass
    ------------   -----------------  -----------------  -----------------  -----------------
         C           -0.727200145579     1.149229997669     1.025818073297    12.000000000000
         C           -1.093200145579     1.969229997669     2.254818073297    12.000000000000
         H           -1.127200145579     0.137229997669     1.110818073297     1.007825032230
         H           -1.141200145579     1.621229997669     0.132818073297     1.007825032230
         H            0.355799854421     1.109229997669     0.912818073297     1.007825032230
         H           -0.610200145579     2.946229997669     2.196818073297     1.007825032230
         H           -0.771850145579     1.447209997669     3.168178073297     1.007825032230
         H           -2.183710145579     2.112979997669     2.265638073297     1.007825032230
         C            0.470799854421    -1.156770002331    -1.166181926703    12.000000000000
         C            1.353799854421    -1.965770002331    -2.108181926703    12.000000000000
         H            1.081799854421    -0.692770002331    -0.392181926703     1.007825032230
         H           -0.043200145579    -0.375770002331    -1.727181926703     1.007825032230
         H           -0.294200145579    -1.786770002331    -0.715181926703     1.007825032230
         H            0.719799854421    -2.575770002331    -2.754181926703     1.007825032230
         H            2.029029854421    -2.617320002331    -1.534121926703     1.007825032230
         H            1.935129854421    -1.277130002331    -2.738921926703     1.007825032230

  Running in c1 symmetry.

  Rotational constants: A =      1.14926  B =      0.04155  C =      0.04145 [cm^-1]
  Rotational constants: A =  34453.98253  B =   1245.74280  C =   1242.72592 [MHz]
  Nuclear repulsion =  121.669660652073645

  Charge       = 0
  Multiplicity = 1
  Electrons    = 36
  Nalpha       = 18
  Nbeta        = 18

  ==> Algorithm <==

  SCF Algorithm Type is PK.
  DIIS enabled.
  MOM disabled.
  Fractional occupation disabled.
  Guess Type is SAD.
  Energy threshold   = 1.00e-06
  Density threshold  = 1.00e-10
  Integral threshold = 0.00e+00

  ==> Primary Basis <==

  Basis Set: CC-PVDZ
    Blend: CC-PVDZ
    Number of shells: 60
    Number of basis function: 116
    Number of Cartesian functions: 120
    Spherical Harmonics?: true
    Max angular momentum: 2

  ==> Pre-Iterations <==

   -------------------------------------------------------
    Irrep   Nso     Nmo     Nalpha   Nbeta   Ndocc  Nsocc
   -------------------------------------------------------
     A        116     116       0       0       0       0
   -------------------------------------------------------
    Total     116     116      18      18      18       0
   -------------------------------------------------------

  ==> Integral Setup <==

  Using integral reordering PK algorithm.
  Sizing the integral batches needed.
  Building batch lookup table.
   Calculation information:
      Number of atoms:                  16
      Number of AO shells:              60
      Number of primitives:            148
      Number of atomic orbitals:       120
      Number of basis functions:       116

      Integral cutoff                 1.00e-12
      Number of threads:                 1

	Batch   1 pq = [       0,    6786] index = [             0,23028291] size =     23028291
  Task number: 3
  Buffer size: 11059200
  Buffer per thread: 2
  We computed 1376274 shell quartets total.
  Whereas there are 1675365 unique shell quartets.

  ==> DiskJK: Disk-Based J/K Matrices <==

    J tasked:                  Yes
    K tasked:                  Yes
    wK tasked:                  No
    Memory [MiB]:              375
    Schwarz Cutoff:          1E-12

    OpenMP threads:              1

  Minimum eigenvalue in the overlap matrix is 5.2112459451E-03.
  Using Symmetric Orthogonalization.

  SCF Guess: Superposition of Atomic Densities via on-the-fly atomic UHF.

  ==> Iterations <==

                        Total Energy        Delta E     RMS |[F,P]|

   @RHF iter SAD:  -157.37959721716837   -1.57380e+02   0.00000e+00
   @RHF iter   1:  -158.30440858155055   -9.24811e-01   4.23406e-03 DIIS
   @RHF iter   2:  -158.43945102975010   -1.35042e-01   1.80016e-03 DIIS
   @RHF iter   3:  -158.46297396775662   -2.35229e-02   3.52209e-04 DIIS
   @RHF iter   4:  -158.46482513040300   -1.85116e-03   3.92475e-05 DIIS
   @RHF iter   5:  -158.46484899089705   -2.38605e-05   7.08140e-06 DIIS
   @RHF iter   6:  -158.46484969958371   -7.08687e-07   1.30775e-06 DIIS
   @RHF iter   7:  -158.46484971517930   -1.55956e-08   3.24166e-07 DIIS
   @RHF iter   8:  -158.46484971620541   -1.02611e-09   3.93054e-08 DIIS
   @RHF iter   9:  -158.46484971623076   -2.53522e-11   6.42894e-09 DIIS
   @RHF iter  10:  -158.46484971623204   -1.27898e-12   1.54545e-09 DIIS
   @RHF iter  11:  -158.46484971623173    3.12639e-13   3.44486e-10 DIIS
   @RHF iter  12:  -158.46484971623110    6.25278e-13   8.73780e-11 DIIS
  Energy and wave function converged.

  ==> Post-Iterations <==

    Orbital Energies [Eh]
    ---------------------

    Doubly Occupied:

       1A    -11.217865     2A    -11.217746     3A    -11.214706
       4A    -11.214102     5A     -1.020139     6A     -1.016919
       7A     -0.839724     8A     -0.828783     9A     -0.602130
      10A     -0.599515    11A     -0.595292    12A     -0.594787
      13A     -0.508047    14A     -0.492168    15A     -0.489432
      16A     -0.486605    17A     -0.480172    18A     -0.476623

    Virtual:

      19A      0.177070    20A      0.194442    21A      0.222144
      22A      0.234400    23A      0.236704    24A      0.264323
      25A      0.264908    26A      0.279220    27A      0.280216
      28A      0.296886    29A      0.317812    30A      0.340144
      31A      0.372560    32A      0.431281    33A      0.563449
      34A      0.593463    35A      0.598853    36A      0.601507
      37A      0.607408    38A      0.658903    39A      0.666010
      40A      0.703571    41A      0.723323    42A      0.755138
      43A      0.848078    44A      0.879073    45A      0.888550
      46A      0.892781    47A      0.895785    48A      0.896733
      49A      0.904840    50A      0.914183    51A      0.919499
      52A      0.929199    53A      0.943667    54A      0.953101
      55A      0.976277    56A      1.019598    57A      1.120043
      58A      1.125540    59A      1.132260    60A      1.148431
      61A      1.200245    62A      1.319813    63A      1.476743
      64A      1.479728    65A      1.489280    66A      1.492925
      67A      1.577112    68A      1.594167    69A      1.678388
      70A      1.680389    71A      1.694274    72A      1.695366
      73A      1.839758    74A      1.842349    75A      1.881803
      76A      1.886823    77A      1.908559    78A      1.927242
      79A      1.934295    80A      1.938638    81A      1.941253
      82A      1.950127    83A      1.951441    84A      1.956613
      85A      1.961067    86A      1.981774    87A      2.014784
      88A      2.091289    89A      2.105752    90A      2.118977
      91A      2.124502    92A      2.132845    93A      2.298713
      94A      2.308925    95A      2.309922    96A      2.405657
      97A      2.443791    98A      2.450669    99A      2.462637
     100A      2.477140   101A      2.567042   102A      2.571528
     103A      2.575111   104A      2.586480   105A      2.759539
     106A      2.768476   107A      2.788676   108A      2.791026
     109A      2.837042   110A      2.840265   111A      2.856133
     112A      2.859789   113A      2.938051   114A      2.950937
     115A      2.964019   116A      2.969985

    Final Occupation by Irrep:
              A
    DOCC [    18 ]

  @RHF Final Energy:  -158.46484971623110

   => Energetics <=

    Nuclear Repulsion Energy =            121.6696606520736452
    One-Electron Energy =                -452.4795139061225768
    Two-Electron Energy =                 172.3450035378178029
    Total Energy =                       -158.4648497162311003

Computation Completed

Properties will be evaluated at   0.000000,   0.000000,   0.000000 [a0]

Properties computed using the SCF density matrix

  Nuclear Dipole Moment: [e a0]
     X:    -0.0469      Y:     0.0455      Z:    -0.0700

  Electronic Dipole Moment: [e a0]
     X:     0.0388      Y:    -0.0378      Z:     0.0618

  Dipole Moment: [e a0]
     X:    -0.0081      Y:     0.0078      Z:    -0.0082     Total:     0.0139

  Dipole Moment: [D]
     X:    -0.0206      Y:     0.0197      Z:    -0.0209     Total:     0.0354

*** tstop() called on ds3 at Tue Apr 28 03:59:55 2020
Module time:
	user time   =       7.09 seconds =       0.12 minutes
	system time =       2.53 seconds =       0.04 minutes
	total time  =         20 seconds =       0.33 minutes
Total time:
	user time   =       7.09 seconds =       0.12 minutes
	system time =       2.53 seconds =       0.04 minutes
	total time  =         20 seconds =       0.33 minutes
                                     G D M A

                                 by Anthony Stone

                           version 2.2.06, 22 June 2011

               Distributed Multipoles from Gaussian wavefunctions

Starting at 3:59:55 on 28 Apr 2020

Using SCF density matrix from file ./SSI/SSI-050THR-143THR-1-dimer.test.27122.fchk

                         Distributed Multipole Analysis

Standard DMA

Positions and radii in angstrom
Multipole moments in atomic units, ea_0^k for rank k

C          x = -0.727200  y =  1.149230  z =  1.025818 angstrom
           Maximum rank =  0   Radius =  0.650 angstrom
                   Q00  =  -0.230564

C          x = -1.093200  y =  1.969230  z =  2.254818 angstrom
           Maximum rank =  0   Radius =  0.650 angstrom
                   Q00  =  -0.236194

H          x = -1.127200  y =  0.137230  z =  1.110818 angstrom
           Maximum rank =  0   Radius =  0.325 angstrom
                   Q00  =   0.078603

H          x = -1.141200  y =  1.621230  z =  0.132818 angstrom
           Maximum rank =  0   Radius =  0.325 angstrom
                   Q00  =   0.077336

H          x =  0.355800  y =  1.109230  z =  0.912818 angstrom
           Maximum rank =  0   Radius =  0.325 angstrom
                   Q00  =   0.075509

H          x = -0.610200  y =  2.946230  z =  2.196818 angstrom
           Maximum rank =  0   Radius =  0.325 angstrom
                   Q00  =   0.079643

H          x = -0.771850  y =  1.447210  z =  3.168178 angstrom
           Maximum rank =  0   Radius =  0.325 angstrom
                   Q00  =   0.078777

H          x = -2.183710  y =  2.112980  z =  2.265638 angstrom
           Maximum rank =  0   Radius =  0.325 angstrom
                   Q00  =   0.076774

C          x =  0.470800  y = -1.156770  z = -1.166182 angstrom
           Maximum rank =  0   Radius =  0.650 angstrom
                   Q00  =  -0.234218

C          x =  1.353800  y = -1.965770  z = -2.108182 angstrom
           Maximum rank =  0   Radius =  0.650 angstrom
                   Q00  =  -0.232566

H          x =  1.081800  y = -0.692770  z = -0.392182 angstrom
           Maximum rank =  0   Radius =  0.325 angstrom
                   Q00  =   0.077607

H          x = -0.043200  y = -0.375770  z = -1.727182 angstrom
           Maximum rank =  0   Radius =  0.325 angstrom
                   Q00  =   0.076276

H          x = -0.294200  y = -1.786770  z = -0.715182 angstrom
           Maximum rank =  0   Radius =  0.325 angstrom
                   Q00  =   0.077969

H          x =  0.719800  y = -2.575770  z = -2.754182 angstrom
           Maximum rank =  0   Radius =  0.325 angstrom
                   Q00  =   0.078800

H          x =  2.029030  y = -2.617320  z = -1.534122 angstrom
           Maximum rank =  0   Radius =  0.325 angstrom
                   Q00  =   0.078795

H          x =  1.935130  y = -1.277130  z = -2.738922 angstrom
           Maximum rank =  0   Radius =  0.325 angstrom
                   Q00  =   0.077452

Total multipoles referred to origin at
           x =   0.000000,  y =    0.000000,  z =    0.000000 angstrom
                   Q00  =  -0.000000

Finished at 3:59:55 on 28 Apr 2020

  DMA results are available in the Python driver through the
	  variable('DMA DISTRIBUTED MULTIPOLES')
  and
	  variable('DMA TOTAL MULTIPOLES')
  commands.

    Psi4 stopped on: Tuesday, 28 April 2020 03:59AM
    Psi4 wall time for execution: 0:00:19.52

*** Psi4 exiting successfully. Buy a developer a beer!
