                               Psi4 1.3.2 release

  ==> Input File <==

--------------------------------------------------------------------------
import numpy as np
set {scf_type pk
basis cc-pvdz
d_convergence 10
gdma_switch   0
gdma_limit    0
gdma_origin   [ 0.0,  0.0,  0.0 ]
}
molecule test {
    units Angstrom
    1 1
    --
    1 1
    C               -0.306663912798850     1.244624475780451     1.772818856176444
    C               -0.688663912798850     2.723624475780451     1.612818856176444
    O                1.103336087201150     1.127624475780451     1.463818856176444
    H               -0.483663912798850     0.936624475780451     2.803818856176445
    H               -0.902663912798850     0.631624475780451     1.100818856176444
    H               -0.068663912798850     3.272624475780451     2.318818856176444
    H                1.445336087201150     0.325624475780451     1.889818856176444
    H               -1.742163912798850     2.923404475780450     1.858238856176444
    H               -0.407653912798850     3.045304475780450     0.599138856176445
    C                0.088336087201150     0.148624475780451    -2.578181143823556
    C               -0.071663912798850    -1.326375524219549    -0.626181143823555
    N                0.668336087201150    -0.654375524219549    -1.510181143823556
    N               -1.394663912798850    -1.284375524219550    -0.670181143823555
    N                0.517336087201150    -2.050375524219549     0.311818856176444
    H                1.682336087201150    -0.687375524219549    -1.419181143823556
    H               -1.861663912798850    -0.581375524219549    -1.213181143823555
    H               -1.937663912798850    -1.851375524219550    -0.033181143823556
    H                1.523336087201150    -2.138375524219549     0.319818856176445
    H               -0.026663912798850    -2.597375524219550     0.962818856176444
    H               -0.195663912798850     1.132624475780450    -2.209181143823555
    H               -0.764663912798850    -0.367375524219549    -2.985181143823556
    H                0.785866087201150     0.259544475780451    -3.421471143823556

}
e, wfn = energy('scf', return_wfn=True)
gdma(wfn)
dmavals = variable('DMA DISTRIBUTED MULTIPOLES')
charges = np.array(dmavals)
print(charges)
np.save('SSI-119SER-123ARG-1-dimer.npy', np.array(charges))--------------------------------------------------------------------------

*** tstart() called on ds3
*** at Tue Apr 28 22:03:16 2020

   => Loading Basis Set <=

    Name: CC-PVDZ
    Role: ORBITAL
    Keyword: BASIS
    atoms 1-2, 10-11 entry C          line   138 file /theoryfs2/ds/metcalf/miniconda2/envs/tf2gpu/share/psi4/basis/cc-pvdz.gbs
    atoms 3          entry O          line   198 file /theoryfs2/ds/metcalf/miniconda2/envs/tf2gpu/share/psi4/basis/cc-pvdz.gbs
    atoms 4-9, 15-22 entry H          line    22 file /theoryfs2/ds/metcalf/miniconda2/envs/tf2gpu/share/psi4/basis/cc-pvdz.gbs
    atoms 12-14      entry N          line   168 file /theoryfs2/ds/metcalf/miniconda2/envs/tf2gpu/share/psi4/basis/cc-pvdz.gbs

         ---------------------------------------------------------
                                   SCF
               by Justin Turney, Rob Parrish, Andy Simmonett
                          and Daniel G. A. Smith
                              RHF Reference
                        1 Threads,    500 MiB Core
         ---------------------------------------------------------

  ==> Geometry <==

    Molecular point group: c1
    Full point group: C1

    Geometry (in Angstrom), charge = 1, multiplicity = 1:

       Center              X                  Y                   Z               Mass
    ------------   -----------------  -----------------  -----------------  -----------------
         C           -0.306663912799     1.244624475780     1.772818856176    12.000000000000
         C           -0.688663912799     2.723624475780     1.612818856176    12.000000000000
         O            1.103336087201     1.127624475780     1.463818856176    15.994914619570
         H           -0.483663912799     0.936624475780     2.803818856176     1.007825032230
         H           -0.902663912799     0.631624475780     1.100818856176     1.007825032230
         H           -0.068663912799     3.272624475780     2.318818856176     1.007825032230
         H            1.445336087201     0.325624475780     1.889818856176     1.007825032230
         H           -1.742163912799     2.923404475780     1.858238856176     1.007825032230
         H           -0.407653912799     3.045304475780     0.599138856176     1.007825032230
         C            0.088336087201     0.148624475780    -2.578181143824    12.000000000000
         C           -0.071663912799    -1.326375524220    -0.626181143824    12.000000000000
         N            0.668336087201    -0.654375524220    -1.510181143824    14.003074004430
         N           -1.394663912799    -1.284375524220    -0.670181143824    14.003074004430
         N            0.517336087201    -2.050375524220     0.311818856176    14.003074004430
         H            1.682336087201    -0.687375524220    -1.419181143824     1.007825032230
         H           -1.861663912799    -0.581375524220    -1.213181143824     1.007825032230
         H           -1.937663912799    -1.851375524220    -0.033181143824     1.007825032230
         H            1.523336087201    -2.138375524220     0.319818856176     1.007825032230
         H           -0.026663912799    -2.597375524220     0.962818856176     1.007825032230
         H           -0.195663912799     1.132624475780    -2.209181143824     1.007825032230
         H           -0.764663912799    -0.367375524220    -2.985181143824     1.007825032230
         H            0.785866087201     0.259544475780    -3.421471143824     1.007825032230

  Running in c1 symmetry.

  Rotational constants: A =      0.07569  B =      0.03319  C =      0.02983 [cm^-1]
  Rotational constants: A =   2269.18071  B =    994.88955  C =    894.23899 [MHz]
  Nuclear repulsion =  411.322221495226700

  Charge       = 1
  Multiplicity = 1
  Electrons    = 66
  Nalpha       = 33
  Nbeta        = 33

  ==> Algorithm <==

  SCF Algorithm Type is PK.
  DIIS enabled.
  MOM disabled.
  Fractional occupation disabled.
  Guess Type is SAD.
  Energy threshold   = 1.00e-06
  Density threshold  = 1.00e-10
  Integral threshold = 0.00e+00

  ==> Primary Basis <==

  Basis Set: CC-PVDZ
    Blend: CC-PVDZ
    Number of shells: 90
    Number of basis function: 182
    Number of Cartesian functions: 190
    Spherical Harmonics?: true
    Max angular momentum: 2

  ==> Pre-Iterations <==

   -------------------------------------------------------
    Irrep   Nso     Nmo     Nalpha   Nbeta   Ndocc  Nsocc
   -------------------------------------------------------
     A        182     182       0       0       0       0
   -------------------------------------------------------
    Total     182     182      33      33      33       0
   -------------------------------------------------------

  ==> Integral Setup <==

  Using integral reordering PK algorithm.
  Sizing the integral batches needed.
  Building batch lookup table.
   Calculation information:
      Number of atoms:                  22
      Number of AO shells:              90
      Number of primitives:            246
      Number of atomic orbitals:       190
      Number of basis functions:       182

      Integral cutoff                 1.00e-12
      Number of threads:                 1

	Batch   1 pq = [       0,    9405] index = [             0,44231715] size =     44231715
	Batch   2 pq = [    9405,   13301] index = [      44231715,88464951] size =     44233236
	Batch   3 pq = [   13301,   16290] index = [      88464951,132690195] size =     44225244
	Batch   4 pq = [   16290,   16653] index = [     132690195,138669531] size =      5979336
  Task number: 13
  Buffer size: 11059200
  Buffer per thread: 2
  We computed 7855577 shell quartets total.
  Whereas there are 8386560 unique shell quartets.

  ==> DiskJK: Disk-Based J/K Matrices <==

    J tasked:                  Yes
    K tasked:                  Yes
    wK tasked:                  No
    Memory [MiB]:              375
    Schwarz Cutoff:          1E-12

    OpenMP threads:              1

  Minimum eigenvalue in the overlap matrix is 3.5264291742E-03.
  Using Symmetric Orthogonalization.

  SCF Guess: Superposition of Atomic Densities via on-the-fly atomic UHF.

  ==> Iterations <==

                        Total Energy        Delta E     RMS |[F,P]|

   @RHF iter SAD:  -396.76734313299522   -3.96767e+02   0.00000e+00
   @RHF iter   1:  -397.44830003937528   -6.80957e-01   3.45392e-03 DIIS
   @RHF iter   2:  -397.63592241793657   -1.87622e-01   1.52424e-03 DIIS
   @RHF iter   3:  -397.66834440828944   -3.24220e-02   3.51506e-04 DIIS
   @RHF iter   4:  -397.67120124395569   -2.85684e-03   9.75975e-05 DIIS
   @RHF iter   5:  -397.67137945583397   -1.78212e-04   2.38861e-05 DIIS
   @RHF iter   6:  -397.67139654576056   -1.70899e-05   6.32174e-06 DIIS
   @RHF iter   7:  -397.67139779546432   -1.24970e-06   1.82727e-06 DIIS
   @RHF iter   8:  -397.67139791445845   -1.18994e-07   5.71559e-07 DIIS
   @RHF iter   9:  -397.67139792404254   -9.58408e-09   1.11169e-07 DIIS
   @RHF iter  10:  -397.67139792444721   -4.04668e-10   4.16797e-08 DIIS
   @RHF iter  11:  -397.67139792449547   -4.82601e-11   1.08708e-08 DIIS
   @RHF iter  12:  -397.67139792450070   -5.22959e-12   3.57996e-09 DIIS
   @RHF iter  13:  -397.67139792450109   -3.97904e-13   1.26627e-09 DIIS
   @RHF iter  14:  -397.67139792450041    6.82121e-13   3.00426e-10 DIIS
   @RHF iter  15:  -397.67139792449825    2.16005e-12   1.06640e-10 DIIS
   @RHF iter  16:  -397.67139792450035   -2.10321e-12   3.44139e-11 DIIS
  Energy and wave function converged.

  ==> Post-Iterations <==

    Orbital Energies [Eh]
    ---------------------

    Doubly Occupied:

       1A    -20.670502     2A    -15.791361     3A    -15.791023
       4A    -15.785731     5A    -11.592810     6A    -11.434967
       7A    -11.394074     8A    -11.323936     9A     -1.543612
      10A     -1.460999    11A     -1.401504    12A     -1.393026
      13A     -1.139113    14A     -1.115750    15A     -1.040131
      16A     -0.977808    17A     -0.943826    18A     -0.941855
      19A     -0.862262    20A     -0.860443    21A     -0.824381
      22A     -0.803106    23A     -0.793691    24A     -0.756759
      25A     -0.741069    26A     -0.715273    27A     -0.670306
      28A     -0.645952    29A     -0.623026    30A     -0.621858
      31A     -0.590296    32A     -0.584495    33A     -0.556185

    Virtual:

      34A     -0.015383    35A      0.018349    36A      0.023169
      37A      0.030145    38A      0.055356    39A      0.075511
      40A      0.087417    41A      0.102588    42A      0.118230
      43A      0.121719    44A      0.133225    45A      0.152237
      46A      0.163914    47A      0.186879    48A      0.196604
      49A      0.211924    50A      0.251623    51A      0.273453
      52A      0.295825    53A      0.328425    54A      0.334597
      55A      0.441531    56A      0.465934    57A      0.494666
      58A      0.501159    59A      0.513054    60A      0.522298
      61A      0.536164    62A      0.550996    63A      0.552945
      64A      0.574578    65A      0.594099    66A      0.628559
      67A      0.673020    68A      0.681094    69A      0.699858
      70A      0.703270    71A      0.719030    72A      0.726416
      73A      0.741835    74A      0.753566    75A      0.761841
      76A      0.777441    77A      0.783715    78A      0.793181
      79A      0.810580    80A      0.814631    81A      0.833005
      82A      0.848340    83A      0.866075    84A      0.884835
      85A      0.913438    86A      0.926528    87A      0.953280
      88A      0.990316    89A      1.024619    90A      1.039129
      91A      1.052650    92A      1.102304    93A      1.118903
      94A      1.120445    95A      1.147957    96A      1.175394
      97A      1.199297    98A      1.220672    99A      1.227730
     100A      1.235986   101A      1.286164   102A      1.325403
     103A      1.367203   104A      1.392132   105A      1.408807
     106A      1.433197   107A      1.486306   108A      1.516720
     109A      1.525345   110A      1.544640   111A      1.574695
     112A      1.579992   113A      1.591234   114A      1.614590
     115A      1.643474   116A      1.663790   117A      1.683168
     118A      1.718315   119A      1.737884   120A      1.741313
     121A      1.756059   122A      1.768570   123A      1.778606
     124A      1.790901   125A      1.796950   126A      1.814338
     127A      1.820871   128A      1.851279   129A      1.861990
     130A      1.870971   131A      1.873907   132A      1.886440
     133A      1.888841   134A      1.909960   135A      1.993796
     136A      2.016585   137A      2.021758   138A      2.047148
     139A      2.088641   140A      2.112414   141A      2.139061
     142A      2.145422   143A      2.155351   144A      2.177252
     145A      2.192159   146A      2.247450   147A      2.273341
     148A      2.290451   149A      2.316522   150A      2.334012
     151A      2.353183   152A      2.362219   153A      2.424551
     154A      2.436770   155A      2.449108   156A      2.460442
     157A      2.480899   158A      2.552713   159A      2.592281
     160A      2.605677   161A      2.628149   162A      2.658497
     163A      2.676884   164A      2.703514   165A      2.738805
     166A      2.761829   167A      2.772496   168A      2.785730
     169A      2.816108   170A      2.835351   171A      2.848394
     172A      2.881360   173A      3.064663   174A      3.086304
     175A      3.115233   176A      3.197609   177A      3.274924
     178A      3.322793   179A      3.479971   180A      3.551113
     181A      3.628415   182A      3.996463

    Final Occupation by Irrep:
              A
    DOCC [    33 ]

  @RHF Final Energy:  -397.67139792450035

   => Energetics <=

    Nuclear Repulsion Energy =            411.3222214952266995
    One-Electron Energy =               -1345.2049830101309453
    Two-Electron Energy =                 536.2113635904039484
    Total Energy =                       -397.6713979245002974

Computation Completed

Properties will be evaluated at   0.000000,   0.000000,   0.000000 [a0]

Properties computed using the SCF density matrix

  Nuclear Dipole Moment: [e a0]
     X:    -2.7636      Y:     4.0520      Z:     0.5486

  Electronic Dipole Moment: [e a0]
     X:     2.2899      Y:    -6.5365      Z:    -1.4312

  Dipole Moment: [e a0]
     X:    -0.4737      Y:    -2.4846      Z:    -0.8826     Total:     2.6789

  Dipole Moment: [D]
     X:    -1.2040      Y:    -6.3151      Z:    -2.2434     Total:     6.8090

*** tstop() called on ds3 at Tue Apr 28 22:04:24 2020
Module time:
	user time   =      51.00 seconds =       0.85 minutes
	system time =      19.59 seconds =       0.33 minutes
	total time  =         68 seconds =       1.13 minutes
Total time:
	user time   =      51.00 seconds =       0.85 minutes
	system time =      19.59 seconds =       0.33 minutes
	total time  =         68 seconds =       1.13 minutes
                                     G D M A

                                 by Anthony Stone

                           version 2.2.06, 22 June 2011

               Distributed Multipoles from Gaussian wavefunctions

Starting at 22:4:24 on 28 Apr 2020

Using SCF density matrix from file ./SSI/SSI-119SER-123ARG-1-dimer.test.11745.fchk

                         Distributed Multipole Analysis

Standard DMA

Positions and radii in angstrom
Multipole moments in atomic units, ea_0^k for rank k

C          x = -0.306664  y =  1.244624  z =  1.772819 angstrom
           Maximum rank =  0   Radius =  0.650 angstrom
                   Q00  =   0.056556

C          x = -0.688664  y =  2.723624  z =  1.612819 angstrom
           Maximum rank =  0   Radius =  0.650 angstrom
                   Q00  =  -0.226128

O          x =  1.103336  y =  1.127624  z =  1.463819 angstrom
           Maximum rank =  0   Radius =  0.650 angstrom
                   Q00  =  -0.597589

H          x = -0.483664  y =  0.936624  z =  2.803819 angstrom
           Maximum rank =  0   Radius =  0.325 angstrom
                   Q00  =   0.072781

H          x = -0.902664  y =  0.631624  z =  1.100819 angstrom
           Maximum rank =  0   Radius =  0.325 angstrom
                   Q00  =   0.002244

H          x = -0.068664  y =  3.272624  z =  2.318819 angstrom
           Maximum rank =  0   Radius =  0.325 angstrom
                   Q00  =   0.112285

H          x =  1.445336  y =  0.325624  z =  1.889819 angstrom
           Maximum rank =  0   Radius =  0.325 angstrom
                   Q00  =   0.386317

H          x = -1.742164  y =  2.923404  z =  1.858239 angstrom
           Maximum rank =  0   Radius =  0.325 angstrom
                   Q00  =   0.099682

H          x = -0.407654  y =  3.045304  z =  0.599139 angstrom
           Maximum rank =  0   Radius =  0.325 angstrom
                   Q00  =   0.087161

C          x =  0.088336  y =  0.148624  z = -2.578181 angstrom
           Maximum rank =  0   Radius =  0.650 angstrom
                   Q00  =  -0.127826

C          x = -0.071664  y = -1.326376  z = -0.626181 angstrom
           Maximum rank =  0   Radius =  0.650 angstrom
                   Q00  =   1.049993

N          x =  0.668336  y = -0.654376  z = -1.510181 angstrom
           Maximum rank =  0   Radius =  0.650 angstrom
                   Q00  =  -0.477147

N          x = -1.394664  y = -1.284376  z = -0.670181 angstrom
           Maximum rank =  0   Radius =  0.650 angstrom
                   Q00  =  -0.571014

N          x =  0.517336  y = -2.050376  z =  0.311819 angstrom
           Maximum rank =  0   Radius =  0.650 angstrom
                   Q00  =  -0.583231

H          x =  1.682336  y = -0.687376  z = -1.419181 angstrom
           Maximum rank =  0   Radius =  0.325 angstrom
                   Q00  =   0.245878

H          x = -1.861664  y = -0.581376  z = -1.213181 angstrom
           Maximum rank =  0   Radius =  0.325 angstrom
                   Q00  =   0.274767

H          x = -1.937664  y = -1.851376  z = -0.033181 angstrom
           Maximum rank =  0   Radius =  0.325 angstrom
                   Q00  =   0.266245

H          x =  1.523336  y = -2.138376  z =  0.319819 angstrom
           Maximum rank =  0   Radius =  0.325 angstrom
                   Q00  =   0.264438

H          x = -0.026664  y = -2.597376  z =  0.962819 angstrom
           Maximum rank =  0   Radius =  0.325 angstrom
                   Q00  =   0.265168

H          x = -0.195664  y =  1.132624  z = -2.209181 angstrom
           Maximum rank =  0   Radius =  0.325 angstrom
                   Q00  =   0.124884

H          x = -0.764664  y = -0.367376  z = -2.985181 angstrom
           Maximum rank =  0   Radius =  0.325 angstrom
                   Q00  =   0.111628

H          x =  0.785866  y =  0.259544  z = -3.421471 angstrom
           Maximum rank =  0   Radius =  0.325 angstrom
                   Q00  =   0.162906

Total multipoles referred to origin at
           x =   0.000000,  y =    0.000000,  z =    0.000000 angstrom
                   Q00  =   1.000000

Finished at 22:4:24 on 28 Apr 2020

  DMA results are available in the Python driver through the
	  variable('DMA DISTRIBUTED MULTIPOLES')
  and
	  variable('DMA TOTAL MULTIPOLES')
  commands.

    Psi4 stopped on: Tuesday, 28 April 2020 10:04PM
    Psi4 wall time for execution: 0:01:08.51

*** Psi4 exiting successfully. Buy a developer a beer!
