                               Psi4 1.3.2 release

  ==> Input File <==

--------------------------------------------------------------------------
import numpy as np
set {scf_type pk
basis cc-pvdz
d_convergence 10
gdma_switch   0
gdma_limit    0
gdma_origin   [ 0.0,  0.0,  0.0 ]
}
molecule test {
    units Angstrom
    1 1
    --
    1 1
    C               -0.401327230436606     2.737763895911276    -0.407382088943922
    C                0.413672769563394     3.271763895911277     0.759617911056078
    N                0.019672769563394     3.375763895911276    -1.683382088943922
    H               -0.263327230436606     1.652763895911276    -0.464382088943922
    H               -1.460327230436606     2.939763895911276    -0.222382088943922
    H                0.355672769563394     4.362763895911277     0.773617911056078
    H                1.457672769563394     2.975763895911276     0.630617911056078
    H                1.002672769563394     3.221763895911276    -1.871382088943922
    H               -0.502327230436606     3.005763895911277    -2.469382088943922
    H               -0.142327230436606     4.375763895911276    -1.660382088943922
    H                0.038749769563394     2.883833895911276     1.718237911056078
    C               -2.354327230436606    -0.518236104088724    -0.471382088943922
    C               -3.259327230436606    -1.752236104088724    -0.570382088943922
    C               -0.925327230436606    -0.823236104088724    -0.078382088943922
    C                0.031672769563394    -1.125236104088724    -1.046382088943922
    C               -0.540327230436606    -0.798236104088724     1.260617911056078
    C                1.346672769563394    -1.401236104088724    -0.685382088943922
    C                0.772672769563394    -1.074236104088724     1.630617911056078
    C                1.716672769563394    -1.375236104088724     0.654617911056078
    O                3.002672769563394    -1.645236104088724     1.014617911056078
    H               -2.355327230436606    -0.009236104088724    -1.436382088943922
    H               -2.761327230436606     0.178763895911276     0.256617911056078
    H               -2.914327230436606    -2.358236104088724    -1.410382088943922
    H               -0.251327230436606    -1.148236104088724    -2.092382088943922
    H               -1.268327230436606    -0.550236104088724     2.020617911056078
    H                2.078672769563394    -1.632236104088724    -1.448382088943922
    H                1.066672769563394    -1.051236104088724     2.670617911056078
    H                3.571672769563394    -1.785236104088724     0.248617911056078
    H               -4.301754030436607    -1.450086104088724    -0.749412088943922
    H               -3.185836230436606    -2.371146104088724     0.336007911056078

}
e, wfn = energy('scf', return_wfn=True)
gdma(wfn)
dmavals = variable('DMA DISTRIBUTED MULTIPOLES')
charges = np.array(dmavals)
print(charges)
np.save('SSI-023LYS-064TYR-1-dimer.npy', np.array(charges))--------------------------------------------------------------------------

*** tstart() called on ds3
*** at Sun Apr 26 16:56:23 2020

   => Loading Basis Set <=

    Name: CC-PVDZ
    Role: ORBITAL
    Keyword: BASIS
    atoms 1-2, 12-19  entry C          line   138 file /theoryfs2/ds/metcalf/miniconda2/envs/tf2gpu/share/psi4/basis/cc-pvdz.gbs
    atoms 3           entry N          line   168 file /theoryfs2/ds/metcalf/miniconda2/envs/tf2gpu/share/psi4/basis/cc-pvdz.gbs
    atoms 4-11, 21-30 entry H          line    22 file /theoryfs2/ds/metcalf/miniconda2/envs/tf2gpu/share/psi4/basis/cc-pvdz.gbs
    atoms 20          entry O          line   198 file /theoryfs2/ds/metcalf/miniconda2/envs/tf2gpu/share/psi4/basis/cc-pvdz.gbs

         ---------------------------------------------------------
                                   SCF
               by Justin Turney, Rob Parrish, Andy Simmonett
                          and Daniel G. A. Smith
                              RHF Reference
                        1 Threads,    500 MiB Core
         ---------------------------------------------------------

  ==> Geometry <==

    Molecular point group: c1
    Full point group: C1

    Geometry (in Angstrom), charge = 1, multiplicity = 1:

       Center              X                  Y                   Z               Mass
    ------------   -----------------  -----------------  -----------------  -----------------
         C           -0.401327230437     2.737763895911    -0.407382088944    12.000000000000
         C            0.413672769563     3.271763895911     0.759617911056    12.000000000000
         N            0.019672769563     3.375763895911    -1.683382088944    14.003074004430
         H           -0.263327230437     1.652763895911    -0.464382088944     1.007825032230
         H           -1.460327230437     2.939763895911    -0.222382088944     1.007825032230
         H            0.355672769563     4.362763895911     0.773617911056     1.007825032230
         H            1.457672769563     2.975763895911     0.630617911056     1.007825032230
         H            1.002672769563     3.221763895911    -1.871382088944     1.007825032230
         H           -0.502327230437     3.005763895911    -2.469382088944     1.007825032230
         H           -0.142327230437     4.375763895911    -1.660382088944     1.007825032230
         H            0.038749769563     2.883833895911     1.718237911056     1.007825032230
         C           -2.354327230437    -0.518236104089    -0.471382088944    12.000000000000
         C           -3.259327230437    -1.752236104089    -0.570382088944    12.000000000000
         C           -0.925327230437    -0.823236104089    -0.078382088944    12.000000000000
         C            0.031672769563    -1.125236104089    -1.046382088944    12.000000000000
         C           -0.540327230437    -0.798236104089     1.260617911056    12.000000000000
         C            1.346672769563    -1.401236104089    -0.685382088944    12.000000000000
         C            0.772672769563    -1.074236104089     1.630617911056    12.000000000000
         C            1.716672769563    -1.375236104089     0.654617911056    12.000000000000
         O            3.002672769563    -1.645236104089     1.014617911056    15.994914619570
         H           -2.355327230437    -0.009236104089    -1.436382088944     1.007825032230
         H           -2.761327230437     0.178763895911     0.256617911056     1.007825032230
         H           -2.914327230437    -2.358236104089    -1.410382088944     1.007825032230
         H           -0.251327230437    -1.148236104089    -2.092382088944     1.007825032230
         H           -1.268327230437    -0.550236104089     2.020617911056     1.007825032230
         H            2.078672769563    -1.632236104089    -1.448382088944     1.007825032230
         H            1.066672769563    -1.051236104089     2.670617911056     1.007825032230
         H            3.571672769563    -1.785236104089     0.248617911056     1.007825032230
         H           -4.301754030437    -1.450086104089    -0.749412088944     1.007825032230
         H           -3.185836230437    -2.371146104089     0.336007911056     1.007825032230

  Running in c1 symmetry.

  Rotational constants: A =      0.02593  B =      0.02028  C =      0.01396 [cm^-1]
  Rotational constants: A =    777.44804  B =    608.10908  C =    418.65645 [MHz]
  Nuclear repulsion =  701.265872392882784

  Charge       = 1
  Multiplicity = 1
  Electrons    = 92
  Nalpha       = 46
  Nbeta        = 46

  ==> Algorithm <==

  SCF Algorithm Type is PK.
  DIIS enabled.
  MOM disabled.
  Fractional occupation disabled.
  Guess Type is SAD.
  Energy threshold   = 1.00e-06
  Density threshold  = 1.00e-10
  Integral threshold = 0.00e+00

  ==> Primary Basis <==

  Basis Set: CC-PVDZ
    Blend: CC-PVDZ
    Number of shells: 126
    Number of basis function: 258
    Number of Cartesian functions: 270
    Spherical Harmonics?: true
    Max angular momentum: 2

  ==> Pre-Iterations <==

   -------------------------------------------------------
    Irrep   Nso     Nmo     Nalpha   Nbeta   Ndocc  Nsocc
   -------------------------------------------------------
     A        258     258       0       0       0       0
   -------------------------------------------------------
    Total     258     258      46      46      46       0
   -------------------------------------------------------

  ==> Integral Setup <==

  Using integral reordering PK algorithm.
  Sizing the integral batches needed.
  Building batch lookup table.
   Calculation information:
      Number of atoms:                  30
      Number of AO shells:             126
      Number of primitives:            354
      Number of atomic orbitals:       270
      Number of basis functions:       258

      Integral cutoff                 1.00e-12
      Number of threads:                 1

	Batch   1 pq = [       0,    9405] index = [             0,44231715] size =     44231715
	Batch   2 pq = [    9405,   13301] index = [      44231715,88464951] size =     44233236
	Batch   3 pq = [   13301,   16290] index = [      88464951,132690195] size =     44225244
	Batch   4 pq = [   16290,   18810] index = [     132690195,176917455] size =     44227260
	Batch   5 pq = [   18810,   21030] index = [     176917455,221140965] size =     44223510
	Batch   6 pq = [   21030,   23037] index = [     221140965,265363203] size =     44222238
	Batch   7 pq = [   23037,   24883] index = [     265363203,309594286] size =     44231083
	Batch   8 pq = [   24883,   26601] index = [     309594286,353819901] size =     44225615
	Batch   9 pq = [   26601,   28214] index = [     353819901,398029005] size =     44209104
	Batch  10 pq = [   28214,   29740] index = [     398029005,442248670] size =     44219665
	Batch  11 pq = [   29740,   31191] index = [     442248670,486454836] size =     44206166
	Batch  12 pq = [   31191,   32578] index = [     486454836,530679331] size =     44224495
	Batch  13 pq = [   32578,   33411] index = [     530679331,558164166] size =     27484835
  Task number: 51
  Buffer size: 11059200
  Buffer per thread: 2
  We computed 32960506 shell quartets total.
  Whereas there are 32012001 unique shell quartets.
     2.96 percent of shell quartets recomputed by reordering.

  ==> DiskJK: Disk-Based J/K Matrices <==

    J tasked:                  Yes
    K tasked:                  Yes
    wK tasked:                  No
    Memory [MiB]:              375
    Schwarz Cutoff:          1E-12

    OpenMP threads:              1

  Minimum eigenvalue in the overlap matrix is 3.1659809217E-04.
  Using Symmetric Orthogonalization.

  SCF Guess: Superposition of Atomic Densities via on-the-fly atomic UHF.

  ==> Iterations <==

                        Total Energy        Delta E     RMS |[F,P]|

   @RHF iter SAD:  -517.53354488455977   -5.17534e+02   0.00000e+00
   @RHF iter   1:  -518.00365461607043   -4.70110e-01   2.57077e-03 DIIS
   @RHF iter   2:  -518.25853732899009   -2.54883e-01   1.02838e-03 DIIS
   @RHF iter   3:  -518.29438876911456   -3.58514e-02   2.72948e-04 DIIS
   @RHF iter   4:  -518.29807673216590   -3.68796e-03   1.01156e-04 DIIS
   @RHF iter   5:  -518.29847317584415   -3.96444e-04   2.11818e-05 DIIS
   @RHF iter   6:  -518.29849944997227   -2.62741e-05   5.42902e-06 DIIS
   @RHF iter   7:  -518.29850128677276   -1.83680e-06   2.07773e-06 DIIS
   @RHF iter   8:  -518.29850154612700   -2.59354e-07   6.91059e-07 DIIS
   @RHF iter   9:  -518.29850158146292   -3.53359e-08   1.95275e-07 DIIS
   @RHF iter  10:  -518.29850158526949   -3.80658e-09   8.56063e-08 DIIS
   @RHF iter  11:  -518.29850158629495   -1.02546e-09   4.17416e-08 DIIS
   @RHF iter  12:  -518.29850158659235   -2.97405e-10   1.85633e-08 DIIS
   @RHF iter  13:  -518.29850158665829   -6.59384e-11   7.70215e-09 DIIS
   @RHF iter  14:  -518.29850158666954   -1.12550e-11   1.92994e-09 DIIS
   @RHF iter  15:  -518.29850158667296   -3.41061e-12   6.62888e-10 DIIS
   @RHF iter  16:  -518.29850158666943    3.52429e-12   2.35630e-10 DIIS
   @RHF iter  17:  -518.29850158667227   -2.84217e-12   9.11923e-11 DIIS
  Energy and wave function converged.

  ==> Post-Iterations <==

    Orbital Energies [Eh]
    ---------------------

    Doubly Occupied:

       1A    -20.676946     2A    -15.898828     3A    -11.467078
       4A    -11.401590     5A    -11.396829     6A    -11.345682
       7A    -11.342540     8A    -11.337364     9A    -11.336942
      10A    -11.334460    11A    -11.332808    12A    -11.312797
      13A     -1.519333    14A     -1.493827    15A     -1.258512
      16A     -1.211794    17A     -1.159476    18A     -1.122951
      19A     -1.076011    20A     -1.047460    21A     -0.976340
      22A     -0.961990    23A     -0.959722    24A     -0.946728
      25A     -0.894037    26A     -0.853198    27A     -0.831712
      28A     -0.788441    29A     -0.772737    30A     -0.747658
      31A     -0.714965    32A     -0.714558    33A     -0.694619
      34A     -0.692854    35A     -0.687885    36A     -0.682024
      37A     -0.676209    38A     -0.663137    39A     -0.644502
      40A     -0.618480    41A     -0.595316    42A     -0.577543
      43A     -0.575604    44A     -0.566792    45A     -0.445166
      46A     -0.405896

    Virtual:

      47A     -0.045203    48A      0.013848    49A      0.020479
      50A      0.027026    51A      0.041960    52A      0.051952
      53A      0.085966    54A      0.088670    55A      0.094334
      56A      0.103637    57A      0.125385    58A      0.126878
      59A      0.138270    60A      0.141945    61A      0.150085
      62A      0.157687    63A      0.169435    64A      0.178847
      65A      0.183193    66A      0.206848    67A      0.213246
      68A      0.222501    69A      0.250508    70A      0.278604
      71A      0.313539    72A      0.330667    73A      0.365436
      74A      0.381256    75A      0.382333    76A      0.395210
      77A      0.397260    78A      0.407850    79A      0.433589
      80A      0.440685    81A      0.451471    82A      0.497874
      83A      0.523567    84A      0.547020    85A      0.551456
      86A      0.569899    87A      0.577900    88A      0.596206
      89A      0.601070    90A      0.605078    91A      0.616256
      92A      0.622331    93A      0.633888    94A      0.637246
      95A      0.652896    96A      0.658331    97A      0.669275
      98A      0.676096    99A      0.692466   100A      0.701482
     101A      0.708366   102A      0.719504   103A      0.734108
     104A      0.737234   105A      0.752086   106A      0.765676
     107A      0.769309   108A      0.775817   109A      0.784302
     110A      0.787066   111A      0.796453   112A      0.799387
     113A      0.801968   114A      0.808023   115A      0.815991
     116A      0.834456   117A      0.840618   118A      0.849441
     119A      0.855263   120A      0.859494   121A      0.874212
     122A      0.883030   123A      0.910398   124A      0.924749
     125A      0.936221   126A      0.942620   127A      0.952348
     128A      0.989785   129A      1.019782   130A      1.037465
     131A      1.043224   132A      1.065369   133A      1.092818
     134A      1.125473   135A      1.135933   136A      1.164248
     137A      1.166092   138A      1.186873   139A      1.190378
     140A      1.203483   141A      1.206982   142A      1.222574
     143A      1.252572   144A      1.256180   145A      1.270206
     146A      1.282313   147A      1.316196   148A      1.328668
     149A      1.330871   150A      1.386130   151A      1.402722
     152A      1.412282   153A      1.445291   154A      1.468569
     155A      1.476546   156A      1.514698   157A      1.515864
     158A      1.527941   159A      1.536632   160A      1.570235
     161A      1.592943   162A      1.602906   163A      1.624341
     164A      1.639620   165A      1.669042   166A      1.685063
     167A      1.689186   168A      1.706671   169A      1.719961
     170A      1.743100   171A      1.757675   172A      1.764684
     173A      1.770218   174A      1.782293   175A      1.786466
     176A      1.788011   177A      1.792906   178A      1.804475
     179A      1.806844   180A      1.811334   181A      1.818983
     182A      1.829077   183A      1.833440   184A      1.844273
     185A      1.857489   186A      1.871256   187A      1.883149
     188A      1.897321   189A      1.900745   190A      1.905539
     191A      1.913072   192A      1.930965   193A      1.933772
     194A      1.948721   195A      1.963917   196A      1.972083
     197A      1.979365   198A      1.998929   199A      2.002636
     200A      2.010806   201A      2.035935   202A      2.045217
     203A      2.051519   204A      2.054678   205A      2.093810
     206A      2.130888   207A      2.136355   208A      2.153479
     209A      2.166630   210A      2.166966   211A      2.185092
     212A      2.208086   213A      2.222449   214A      2.252388
     215A      2.268963   216A      2.317367   217A      2.332403
     218A      2.349064   219A      2.359342   220A      2.369117
     221A      2.377177   222A      2.397783   223A      2.400512
     224A      2.431454   225A      2.443975   226A      2.457477
     227A      2.467233   228A      2.520639   229A      2.535287
     230A      2.545423   231A      2.565099   232A      2.603958
     233A      2.635276   234A      2.658784   235A      2.673141
     236A      2.691000   237A      2.693750   238A      2.708094
     239A      2.753975   240A      2.770121   241A      2.784414
     242A      2.798609   243A      2.806651   244A      2.865032
     245A      2.881001   246A      2.907494   247A      2.930103
     248A      2.990757   249A      3.062784   250A      3.104418
     251A      3.140020   252A      3.156619   253A      3.182299
     254A      3.253945   255A      3.478864   256A      3.577377
     257A      3.875847   258A      4.097585

    Final Occupation by Irrep:
              A
    DOCC [    46 ]

  @RHF Final Energy:  -518.29850158667227

   => Energetics <=

    Nuclear Repulsion Energy =            701.2658723928827840
    One-Electron Energy =               -2081.6060622440991210
    Two-Electron Energy =                 862.0416882645440637
    Total Energy =                       -518.2985015866722733

Computation Completed

Properties will be evaluated at   0.000000,   0.000000,   0.000000 [a0]

Properties computed using the SCF density matrix

  Nuclear Dipole Moment: [e a0]
     X:    -9.2054      Y:    12.3954      Z:    -4.8369

  Electronic Dipole Moment: [e a0]
     X:     9.2372      Y:    -6.8331      Z:     1.9860

  Dipole Moment: [e a0]
     X:     0.0318      Y:     5.5622      Z:    -2.8508     Total:     6.2503

  Dipole Moment: [D]
     X:     0.0809      Y:    14.1378      Z:    -7.2460     Total:    15.8868

*** tstop() called on ds3 at Sun Apr 26 17:03:16 2020
Module time:
	user time   =     252.20 seconds =       4.20 minutes
	system time =      97.12 seconds =       1.62 minutes
	total time  =        413 seconds =       6.88 minutes
Total time:
	user time   =     252.20 seconds =       4.20 minutes
	system time =      97.12 seconds =       1.62 minutes
	total time  =        413 seconds =       6.88 minutes
                                     G D M A

                                 by Anthony Stone

                           version 2.2.06, 22 June 2011

               Distributed Multipoles from Gaussian wavefunctions

Starting at 17:3:16 on 26 Apr 2020

Using SCF density matrix from file ./SSI/SSI-023LYS-064TYR-1-dimer.test.16957.fchk

                         Distributed Multipole Analysis

Standard DMA

Positions and radii in angstrom
Multipole moments in atomic units, ea_0^k for rank k

C          x = -0.401327  y =  2.737764  z = -0.407382 angstrom
           Maximum rank =  0   Radius =  0.650 angstrom
                   Q00  =  -0.038307

C          x =  0.413673  y =  3.271764  z =  0.759618 angstrom
           Maximum rank =  0   Radius =  0.650 angstrom
                   Q00  =  -0.225716

N          x =  0.019673  y =  3.375764  z = -1.683382 angstrom
           Maximum rank =  0   Radius =  0.650 angstrom
                   Q00  =  -0.139071

H          x = -0.263327  y =  1.652764  z = -0.464382 angstrom
           Maximum rank =  0   Radius =  0.325 angstrom
                   Q00  =   0.166494

H          x = -1.460327  y =  2.939764  z = -0.222382 angstrom
           Maximum rank =  0   Radius =  0.325 angstrom
                   Q00  =   0.123381

H          x =  0.355673  y =  4.362764  z =  0.773618 angstrom
           Maximum rank =  0   Radius =  0.325 angstrom
                   Q00  =   0.091653

H          x =  1.457673  y =  2.975764  z =  0.630618 angstrom
           Maximum rank =  0   Radius =  0.325 angstrom
                   Q00  =   0.105576

H          x =  1.002673  y =  3.221764  z = -1.871382 angstrom
           Maximum rank =  0   Radius =  0.325 angstrom
                   Q00  =   0.256927

H          x = -0.502327  y =  3.005764  z = -2.469382 angstrom
           Maximum rank =  0   Radius =  0.325 angstrom
                   Q00  =   0.255971

H          x = -0.142327  y =  4.375764  z = -1.660382 angstrom
           Maximum rank =  0   Radius =  0.325 angstrom
                   Q00  =   0.253154

H          x =  0.038750  y =  2.883834  z =  1.718238 angstrom
           Maximum rank =  0   Radius =  0.325 angstrom
                   Q00  =   0.154835

C          x = -2.354327  y = -0.518236  z = -0.471382 angstrom
           Maximum rank =  0   Radius =  0.650 angstrom
                   Q00  =  -0.032913

C          x = -3.259327  y = -1.752236  z = -0.570382 angstrom
           Maximum rank =  0   Radius =  0.650 angstrom
                   Q00  =  -0.220596

C          x = -0.925327  y = -0.823236  z = -0.078382 angstrom
           Maximum rank =  0   Radius =  0.650 angstrom
                   Q00  =  -0.190620

C          x =  0.031673  y = -1.125236  z = -1.046382 angstrom
           Maximum rank =  0   Radius =  0.650 angstrom
                   Q00  =  -0.058541

C          x = -0.540327  y = -0.798236  z =  1.260618 angstrom
           Maximum rank =  0   Radius =  0.650 angstrom
                   Q00  =   0.027098

C          x =  1.346673  y = -1.401236  z = -0.685382 angstrom
           Maximum rank =  0   Radius =  0.650 angstrom
                   Q00  =  -0.202737

C          x =  0.772673  y = -1.074236  z =  1.630618 angstrom
           Maximum rank =  0   Radius =  0.650 angstrom
                   Q00  =  -0.112421

C          x =  1.716673  y = -1.375236  z =  0.654618 angstrom
           Maximum rank =  0   Radius =  0.650 angstrom
                   Q00  =   0.346321

O          x =  3.002673  y = -1.645236  z =  1.014618 angstrom
           Maximum rank =  0   Radius =  0.650 angstrom
                   Q00  =  -0.675954

H          x = -2.355327  y = -0.009236  z = -1.436382 angstrom
           Maximum rank =  0   Radius =  0.325 angstrom
                   Q00  =   0.036889

H          x = -2.761327  y =  0.178764  z =  0.256618 angstrom
           Maximum rank =  0   Radius =  0.325 angstrom
                   Q00  =   0.057487

H          x = -2.914327  y = -2.358236  z = -1.410382 angstrom
           Maximum rank =  0   Radius =  0.325 angstrom
                   Q00  =   0.088315

H          x = -0.251327  y = -1.148236  z = -2.092382 angstrom
           Maximum rank =  0   Radius =  0.325 angstrom
                   Q00  =   0.068259

H          x = -1.268327  y = -0.550236  z =  2.020618 angstrom
           Maximum rank =  0   Radius =  0.325 angstrom
                   Q00  =   0.072293

H          x =  2.078673  y = -1.632236  z = -1.448382 angstrom
           Maximum rank =  0   Radius =  0.325 angstrom
                   Q00  =   0.083443

H          x =  1.066673  y = -1.051236  z =  2.670618 angstrom
           Maximum rank =  0   Radius =  0.325 angstrom
                   Q00  =   0.097939

H          x =  3.571673  y = -1.785236  z =  0.248618 angstrom
           Maximum rank =  0   Radius =  0.325 angstrom
                   Q00  =   0.416043

H          x = -4.301754  y = -1.450086  z = -0.749412 angstrom
           Maximum rank =  0   Radius =  0.325 angstrom
                   Q00  =   0.096467

H          x = -3.185836  y = -2.371146  z =  0.336008 angstrom
           Maximum rank =  0   Radius =  0.325 angstrom
                   Q00  =   0.098332

Total multipoles referred to origin at
           x =   0.000000,  y =    0.000000,  z =    0.000000 angstrom
                   Q00  =   1.000000

Finished at 17:3:16 on 26 Apr 2020

  DMA results are available in the Python driver through the
	  variable('DMA DISTRIBUTED MULTIPOLES')
  and
	  variable('DMA TOTAL MULTIPOLES')
  commands.

    Psi4 stopped on: Sunday, 26 April 2020 05:03PM
    Psi4 wall time for execution: 0:06:52.97

*** Psi4 exiting successfully. Buy a developer a beer!
