                               Psi4 1.3.2 release

  ==> Input File <==

--------------------------------------------------------------------------
import numpy as np
set {scf_type pk
basis cc-pvdz
d_convergence 10
gdma_switch   0
gdma_limit    0
gdma_origin   [ 0.0,  0.0,  0.0 ]
}
molecule test {
    units Angstrom
    0 1
    --
    0 1
    C               -0.808211387177344    -1.817674463411957    -2.195941533902034
    C               -0.548211387177344    -0.767674463411957     0.072058466097966
    C               -0.131211387177344    -1.717674463411958    -0.859941533902034
    C                0.072788612822656    -0.671674463411958     1.318058466097966
    C                0.914788612822656    -2.576674463411957    -0.533941533902034
    C                1.120788612822655    -1.532674463411957     1.639058466097966
    C                1.541788612822655    -2.488674463411958     0.711058466097966
    H               -1.377211387177344    -0.117674463411957    -0.156941533902034
    H               -0.272211387177344     0.053325536588043     2.042058466097966
    H               -0.171211387177344    -2.364674463411957    -2.890941533902034
    H               -0.926211387177344    -0.806674463411957    -2.584941533902033
    H                1.231788612822655    -3.331674463411958    -1.237941533902034
    H                1.579788612822655    -1.461674463411958     2.610058466097966
    H                2.318788612822655    -3.193674463411957     0.951058466097966
    H               -1.793481387177345    -2.305634463411957    -2.162111533902034
    C               -0.433211387177344     2.777325536588042     0.181058466097966
    C               -1.878211387177344     3.256325536588042    -0.001941533902034
    O                0.496788612822656     3.811325536588043    -0.107941533902034
    H               -0.287211387177345     2.442325536588042     1.205058466097966
    H               -0.243211387177344     1.934325536588043    -0.482941533902034
    H               -2.558211387177344     2.560325536588043     0.492058466097966
    H                0.498788612822656     4.461325536588044     0.619058466097966
    H               -2.127761387177344     3.343295536588042    -1.069721533902034
    H               -1.983871387177345     4.251015536588043     0.455688466097966

}
e, wfn = energy('scf', return_wfn=True)
gdma(wfn)
dmavals = variable('DMA DISTRIBUTED MULTIPOLES')
charges = np.array(dmavals)
print(charges)
np.save('SSI-005PHE-155SER-1-dimer.npy', np.array(charges))--------------------------------------------------------------------------

*** tstart() called on ds3
*** at Sun Apr 26 17:43:06 2020

   => Loading Basis Set <=

    Name: CC-PVDZ
    Role: ORBITAL
    Keyword: BASIS
    atoms 1-7, 16-17  entry C          line   138 file /theoryfs2/ds/metcalf/miniconda2/envs/tf2gpu/share/psi4/basis/cc-pvdz.gbs
    atoms 8-15, 19-24 entry H          line    22 file /theoryfs2/ds/metcalf/miniconda2/envs/tf2gpu/share/psi4/basis/cc-pvdz.gbs
    atoms 18          entry O          line   198 file /theoryfs2/ds/metcalf/miniconda2/envs/tf2gpu/share/psi4/basis/cc-pvdz.gbs

         ---------------------------------------------------------
                                   SCF
               by Justin Turney, Rob Parrish, Andy Simmonett
                          and Daniel G. A. Smith
                              RHF Reference
                        1 Threads,    500 MiB Core
         ---------------------------------------------------------

  ==> Geometry <==

    Molecular point group: c1
    Full point group: C1

    Geometry (in Angstrom), charge = 0, multiplicity = 1:

       Center              X                  Y                   Z               Mass
    ------------   -----------------  -----------------  -----------------  -----------------
         C           -0.808211387177    -1.817674463412    -2.195941533902    12.000000000000
         C           -0.548211387177    -0.767674463412     0.072058466098    12.000000000000
         C           -0.131211387177    -1.717674463412    -0.859941533902    12.000000000000
         C            0.072788612823    -0.671674463412     1.318058466098    12.000000000000
         C            0.914788612823    -2.576674463412    -0.533941533902    12.000000000000
         C            1.120788612823    -1.532674463412     1.639058466098    12.000000000000
         C            1.541788612823    -2.488674463412     0.711058466098    12.000000000000
         H           -1.377211387177    -0.117674463412    -0.156941533902     1.007825032230
         H           -0.272211387177     0.053325536588     2.042058466098     1.007825032230
         H           -0.171211387177    -2.364674463412    -2.890941533902     1.007825032230
         H           -0.926211387177    -0.806674463412    -2.584941533902     1.007825032230
         H            1.231788612823    -3.331674463412    -1.237941533902     1.007825032230
         H            1.579788612823    -1.461674463412     2.610058466098     1.007825032230
         H            2.318788612823    -3.193674463412     0.951058466098     1.007825032230
         H           -1.793481387177    -2.305634463412    -2.162111533902     1.007825032230
         C           -0.433211387177     2.777325536588     0.181058466098    12.000000000000
         C           -1.878211387177     3.256325536588    -0.001941533902    12.000000000000
         O            0.496788612823     3.811325536588    -0.107941533902    15.994914619570
         H           -0.287211387177     2.442325536588     1.205058466098     1.007825032230
         H           -0.243211387177     1.934325536588    -0.482941533902     1.007825032230
         H           -2.558211387177     2.560325536588     0.492058466098     1.007825032230
         H            0.498788612823     4.461325536588     0.619058466098     1.007825032230
         H           -2.127761387177     3.343295536588    -1.069721533902     1.007825032230
         H           -1.983871387177     4.251015536588     0.455688466098     1.007825032230

  Running in c1 symmetry.

  Rotational constants: A =      0.06092  B =      0.01827  C =      0.01574 [cm^-1]
  Rotational constants: A =   1826.34246  B =    547.63906  C =    471.99459 [MHz]
  Nuclear repulsion =  483.787605761697364

  Charge       = 0
  Multiplicity = 1
  Electrons    = 76
  Nalpha       = 38
  Nbeta        = 38

  ==> Algorithm <==

  SCF Algorithm Type is PK.
  DIIS enabled.
  MOM disabled.
  Fractional occupation disabled.
  Guess Type is SAD.
  Energy threshold   = 1.00e-06
  Density threshold  = 1.00e-10
  Integral threshold = 0.00e+00

  ==> Primary Basis <==

  Basis Set: CC-PVDZ
    Blend: CC-PVDZ
    Number of shells: 102
    Number of basis function: 210
    Number of Cartesian functions: 220
    Spherical Harmonics?: true
    Max angular momentum: 2

  ==> Pre-Iterations <==

   -------------------------------------------------------
    Irrep   Nso     Nmo     Nalpha   Nbeta   Ndocc  Nsocc
   -------------------------------------------------------
     A        210     210       0       0       0       0
   -------------------------------------------------------
    Total     210     210      38      38      38       0
   -------------------------------------------------------

  ==> Integral Setup <==

  Using integral reordering PK algorithm.
  Sizing the integral batches needed.
  Building batch lookup table.
   Calculation information:
      Number of atoms:                  24
      Number of AO shells:             102
      Number of primitives:            290
      Number of atomic orbitals:       220
      Number of basis functions:       210

      Integral cutoff                 1.00e-12
      Number of threads:                 1

	Batch   1 pq = [       0,    9405] index = [             0,44231715] size =     44231715
	Batch   2 pq = [    9405,   13301] index = [      44231715,88464951] size =     44233236
	Batch   3 pq = [   13301,   16290] index = [      88464951,132690195] size =     44225244
	Batch   4 pq = [   16290,   18810] index = [     132690195,176917455] size =     44227260
	Batch   5 pq = [   18810,   21030] index = [     176917455,221140965] size =     44223510
	Batch   6 pq = [   21030,   22155] index = [     221140965,245433090] size =     24292125
  Task number: 23
  Buffer size: 11059200
  Buffer per thread: 2
  We computed 11525642 shell quartets total.
  Whereas there are 13799631 unique shell quartets.

  ==> DiskJK: Disk-Based J/K Matrices <==

    J tasked:                  Yes
    K tasked:                  Yes
    wK tasked:                  No
    Memory [MiB]:              375
    Schwarz Cutoff:          1E-12

    OpenMP threads:              1

  Minimum eigenvalue in the overlap matrix is 3.1009460830E-04.
  Using Symmetric Orthogonalization.

  SCF Guess: Superposition of Atomic Densities via on-the-fly atomic UHF.

  ==> Iterations <==

                        Total Energy        Delta E     RMS |[F,P]|

   @RHF iter SAD:  -422.57608973614708   -4.22576e+02   0.00000e+00
   @RHF iter   1:  -423.59930272552867   -1.02321e+00   2.94108e-03 DIIS
   @RHF iter   2:  -423.80809783826828   -2.08795e-01   1.31154e-03 DIIS
   @RHF iter   3:  -423.84319976057196   -3.51019e-02   2.85861e-04 DIIS
   @RHF iter   4:  -423.84601385409712   -2.81409e-03   8.88514e-05 DIIS
   @RHF iter   5:  -423.84620562340359   -1.91769e-04   1.81637e-05 DIIS
   @RHF iter   6:  -423.84621631979468   -1.06964e-05   5.09427e-06 DIIS
   @RHF iter   7:  -423.84621724407242   -9.24278e-07   1.92251e-06 DIIS
   @RHF iter   8:  -423.84621736532154   -1.21249e-07   4.91990e-07 DIIS
   @RHF iter   9:  -423.84621737891746   -1.35959e-08   1.94231e-07 DIIS
   @RHF iter  10:  -423.84621738095007   -2.03261e-09   5.69079e-08 DIIS
   @RHF iter  11:  -423.84621738131165   -3.61581e-10   2.31969e-08 DIIS
   @RHF iter  12:  -423.84621738138378   -7.21343e-11   1.26378e-08 DIIS
   @RHF iter  13:  -423.84621738140237   -1.85878e-11   5.27788e-09 DIIS
   @RHF iter  14:  -423.84621738140549   -3.12639e-12   1.73792e-09 DIIS
   @RHF iter  15:  -423.84621738140476    7.38964e-13   5.73658e-10 DIIS
   @RHF iter  16:  -423.84621738140657   -1.81899e-12   1.88176e-10 DIIS
   @RHF iter  17:  -423.84621738140612    4.54747e-13   8.92577e-11 DIIS
  Energy and wave function converged.

  ==> Post-Iterations <==

    Orbital Energies [Eh]
    ---------------------

    Doubly Occupied:

       1A    -20.544889     2A    -11.272349     3A    -11.241609
       4A    -11.238257     5A    -11.237489     6A    -11.233425
       7A    -11.232255     8A    -11.231607     9A    -11.229634
      10A    -11.222742    11A     -1.344379    12A     -1.153055
      13A     -1.045731    14A     -1.013187    15A     -1.004953
      16A     -0.932218    17A     -0.839787    18A     -0.826674
      19A     -0.797433    20A     -0.693028    21A     -0.680579
      22A     -0.635202    23A     -0.631000    24A     -0.619847
      25A     -0.587513    26A     -0.583923    27A     -0.577996
      28A     -0.564301    29A     -0.544730    30A     -0.536264
      31A     -0.519158    32A     -0.488439    33A     -0.486821
      34A     -0.483290    35A     -0.469262    36A     -0.429910
      37A     -0.332542    38A     -0.322862

    Virtual:

      39A      0.130352    40A      0.139793    41A      0.165631
      42A      0.189623    43A      0.196408    44A      0.207167
      45A      0.222452    46A      0.231258    47A      0.246480
      48A      0.255753    49A      0.264504    50A      0.271387
      51A      0.287110    52A      0.300169    53A      0.308545
      54A      0.339074    55A      0.368808    56A      0.372886
      57A      0.398978    58A      0.414161    59A      0.457251
      60A      0.459463    61A      0.482617    62A      0.503326
      63A      0.565057    64A      0.590685    65A      0.604723
      66A      0.610830    67A      0.640068    68A      0.663757
      69A      0.680863    70A      0.696064    71A      0.700763
      72A      0.710007    73A      0.729683    74A      0.734994
      75A      0.740913    76A      0.744294    77A      0.750852
      78A      0.762101    79A      0.775206    80A      0.782767
      81A      0.801661    82A      0.815699    83A      0.841412
      84A      0.846995    85A      0.863491    86A      0.868862
      87A      0.880468    88A      0.889006    89A      0.892799
      90A      0.896335    91A      0.904987    92A      0.912260
      93A      0.922255    94A      0.934452    95A      0.939640
      96A      0.953935    97A      0.967452    98A      0.995100
      99A      1.002657   100A      1.023749   101A      1.053204
     102A      1.108289   103A      1.125118   104A      1.141158
     105A      1.146557   106A      1.153039   107A      1.162198
     108A      1.182915   109A      1.193545   110A      1.231905
     111A      1.242892   112A      1.249584   113A      1.265623
     114A      1.280458   115A      1.304594   116A      1.309623
     117A      1.320956   118A      1.328437   119A      1.343842
     120A      1.385525   121A      1.419923   122A      1.469595
     123A      1.504332   124A      1.520430   125A      1.546986
     126A      1.566318   127A      1.606113   128A      1.616953
     129A      1.645517   130A      1.674536   131A      1.683970
     132A      1.694730   133A      1.731824   134A      1.739895
     135A      1.756403   136A      1.764365   137A      1.790532
     138A      1.811283   139A      1.849227   140A      1.866276
     141A      1.877166   142A      1.890169   143A      1.891412
     144A      1.904485   145A      1.909295   146A      1.915933
     147A      1.921048   148A      1.935204   149A      1.947146
     150A      1.951297   151A      1.960170   152A      1.962625
     153A      1.972498   154A      1.985298   155A      1.997755
     156A      2.026815   157A      2.043154   158A      2.055275
     159A      2.072118   160A      2.086582   161A      2.108828
     162A      2.111477   163A      2.135728   164A      2.149767
     165A      2.159814   166A      2.174730   167A      2.180324
     168A      2.194157   169A      2.252302   170A      2.267007
     171A      2.280372   172A      2.286350   173A      2.295637
     174A      2.313669   175A      2.325632   176A      2.337255
     177A      2.388873   178A      2.404558   179A      2.460505
     180A      2.480172   181A      2.503849   182A      2.505771
     183A      2.536232   184A      2.549671   185A      2.566321
     186A      2.627067   187A      2.737308   188A      2.750654
     189A      2.757977   190A      2.767770   191A      2.781231
     192A      2.790551   193A      2.797090   194A      2.818770
     195A      2.848950   196A      2.868623   197A      2.889304
     198A      2.930169   199A      2.978414   200A      3.014047
     201A      3.022970   202A      3.157436   203A      3.205109
     204A      3.296155   205A      3.318216   206A      3.401286
     207A      3.460307   208A      3.655535   209A      3.963730
     210A      4.089567

    Final Occupation by Irrep:
              A
    DOCC [    38 ]

  @RHF Final Energy:  -423.84621738140612

   => Energetics <=

    Nuclear Repulsion Energy =            483.7876057616973640
    One-Electron Energy =               -1533.6109667943646855
    Two-Electron Energy =                 625.9771436512612581
    Total Energy =                       -423.8462173814061771

Computation Completed

Properties will be evaluated at   0.000000,   0.000000,   0.000000 [a0]

Properties computed using the SCF density matrix

  Nuclear Dipole Moment: [e a0]
     X:    -5.7269      Y:     5.1409      Z:    -2.0728

  Electronic Dipole Moment: [e a0]
     X:     5.3142      Y:    -5.2638      Z:     2.5128

  Dipole Moment: [e a0]
     X:    -0.4127      Y:    -0.1229      Z:     0.4400     Total:     0.6156

  Dipole Moment: [D]
     X:    -1.0489      Y:    -0.3124      Z:     1.1183     Total:     1.5647

*** tstop() called on ds3 at Sun Apr 26 17:46:05 2020
Module time:
	user time   =      86.85 seconds =       1.45 minutes
	system time =      35.60 seconds =       0.59 minutes
	total time  =        179 seconds =       2.98 minutes
Total time:
	user time   =      86.85 seconds =       1.45 minutes
	system time =      35.60 seconds =       0.59 minutes
	total time  =        179 seconds =       2.98 minutes
                                     G D M A

                                 by Anthony Stone

                           version 2.2.06, 22 June 2011

               Distributed Multipoles from Gaussian wavefunctions

Starting at 17:46:5 on 26 Apr 2020

Using SCF density matrix from file ./SSI/SSI-005PHE-155SER-1-dimer.test.5383.fchk

                         Distributed Multipole Analysis

Standard DMA

Positions and radii in angstrom
Multipole moments in atomic units, ea_0^k for rank k

C          x = -0.808211  y = -1.817674  z = -2.195942 angstrom
           Maximum rank =  0   Radius =  0.650 angstrom
                   Q00  =  -0.198833

C          x = -0.548211  y = -0.767674  z =  0.072058 angstrom
           Maximum rank =  0   Radius =  0.650 angstrom
                   Q00  =  -0.030802

C          x = -0.131211  y = -1.717674  z = -0.859942 angstrom
           Maximum rank =  0   Radius =  0.650 angstrom
                   Q00  =  -0.094596

C          x =  0.072789  y = -0.671674  z =  1.318058 angstrom
           Maximum rank =  0   Radius =  0.650 angstrom
                   Q00  =  -0.073479

C          x =  0.914789  y = -2.576674  z = -0.533942 angstrom
           Maximum rank =  0   Radius =  0.650 angstrom
                   Q00  =  -0.043560

C          x =  1.120789  y = -1.532674  z =  1.639058 angstrom
           Maximum rank =  0   Radius =  0.650 angstrom
                   Q00  =  -0.093677

C          x =  1.541789  y = -2.488674  z =  0.711058 angstrom
           Maximum rank =  0   Radius =  0.650 angstrom
                   Q00  =  -0.076064

H          x = -1.377211  y = -0.117674  z = -0.156942 angstrom
           Maximum rank =  0   Radius =  0.325 angstrom
                   Q00  =   0.053459

H          x = -0.272211  y =  0.053326  z =  2.042058 angstrom
           Maximum rank =  0   Radius =  0.325 angstrom
                   Q00  =   0.063758

H          x = -0.171211  y = -2.364674  z = -2.890942 angstrom
           Maximum rank =  0   Radius =  0.325 angstrom
                   Q00  =   0.099263

H          x = -0.926211  y = -0.806674  z = -2.584942 angstrom
           Maximum rank =  0   Radius =  0.325 angstrom
                   Q00  =   0.098429

H          x =  1.231789  y = -3.331674  z = -1.237942 angstrom
           Maximum rank =  0   Radius =  0.325 angstrom
                   Q00  =   0.059383

H          x =  1.579789  y = -1.461674  z =  2.610058 angstrom
           Maximum rank =  0   Radius =  0.325 angstrom
                   Q00  =   0.062416

H          x =  2.318789  y = -3.193674  z =  0.951058 angstrom
           Maximum rank =  0   Radius =  0.325 angstrom
                   Q00  =   0.067172

H          x = -1.793481  y = -2.305634  z = -2.162112 angstrom
           Maximum rank =  0   Radius =  0.325 angstrom
                   Q00  =   0.103994

C          x = -0.433211  y =  2.777326  z =  0.181058 angstrom
           Maximum rank =  0   Radius =  0.650 angstrom
                   Q00  =   0.132383

C          x = -1.878211  y =  3.256326  z = -0.001942 angstrom
           Maximum rank =  0   Radius =  0.650 angstrom
                   Q00  =  -0.271563

O          x =  0.496789  y =  3.811326  z = -0.107942 angstrom
           Maximum rank =  0   Radius =  0.650 angstrom
                   Q00  =  -0.614433

H          x = -0.287211  y =  2.442326  z =  1.205058 angstrom
           Maximum rank =  0   Radius =  0.325 angstrom
                   Q00  =   0.030340

H          x = -0.243211  y =  1.934326  z = -0.482942 angstrom
           Maximum rank =  0   Radius =  0.325 angstrom
                   Q00  =   0.091670

H          x = -2.558211  y =  2.560326  z =  0.492058 angstrom
           Maximum rank =  0   Radius =  0.325 angstrom
                   Q00  =   0.077889

H          x =  0.498789  y =  4.461326  z =  0.619058 angstrom
           Maximum rank =  0   Radius =  0.325 angstrom
                   Q00  =   0.385148

H          x = -2.127761  y =  3.343296  z = -1.069722 angstrom
           Maximum rank =  0   Radius =  0.325 angstrom
                   Q00  =   0.092100

H          x = -1.983871  y =  4.251016  z =  0.455688 angstrom
           Maximum rank =  0   Radius =  0.325 angstrom
                   Q00  =   0.079606

Total multipoles referred to origin at
           x =   0.000000,  y =    0.000000,  z =    0.000000 angstrom
                   Q00  =  -0.000000

Finished at 17:46:5 on 26 Apr 2020

  DMA results are available in the Python driver through the
	  variable('DMA DISTRIBUTED MULTIPOLES')
  and
	  variable('DMA TOTAL MULTIPOLES')
  commands.

    Psi4 stopped on: Sunday, 26 April 2020 05:46PM
    Psi4 wall time for execution: 0:02:59.47

*** Psi4 exiting successfully. Buy a developer a beer!
