                               Psi4 1.3.2 release

  ==> Input File <==

--------------------------------------------------------------------------
import numpy as np
set {scf_type pk
basis cc-pvdz
d_convergence 10
gdma_switch   0
gdma_limit    0
gdma_origin   [ 0.0,  0.0,  0.0 ]
}
molecule test {
    units Angstrom
    0 1
    --
    0 1
    C                0.305245599671629     0.760296534564215     0.039812380447128
    C                1.003245599671629     2.112296534564215     0.131812380447128
    C                2.480245599671629    -0.229703465435785    -1.374187619552873
    S                1.443245599671629    -0.637703465435785     0.031812380447128
    H               -0.390754400328371     0.647296534564215     0.869812380447127
    H               -0.270754400328371     0.736296534564215    -0.885187619552873
    H                0.217245599671629     2.857296534564215     0.088812380447128
    H                1.642245599671629     2.265296534564214    -0.735187619552872
    H                3.212245599671629     0.517296534564215    -1.076187619552873
    H                3.013245599671629    -1.122703465435785    -1.699187619552872
    H                1.875245599671629     0.145296534564215    -2.198187619552872
    H                1.581939599671629     2.263416534564215     1.055002380447128
    C               -2.887754400328371    -0.829703465435785     1.127812380447128
    C               -3.936754400328371    -0.484703465435785     0.068812380447128
    H               -2.034754400328371    -1.332703465435785     0.667812380447127
    H               -2.549754400328371     0.084296534564215     1.618812380447127
    H               -3.325754400328371    -1.487703465435785     1.881812380447128
    H               -4.750754400328370     0.050296534564215     0.562812380447127
    H               -4.345493400328370    -1.394943465435785    -0.394227619552873
    H               -3.513010400328371     0.183646534564215    -0.695217619552873

}
e, wfn = energy('scf', return_wfn=True)
gdma(wfn)
dmavals = variable('DMA DISTRIBUTED MULTIPOLES')
charges = np.array(dmavals)
print(charges)
np.save('SSI-002MET-050ALA-1-dimer.npy', np.array(charges))--------------------------------------------------------------------------

*** tstart() called on ds3
*** at Sun Apr 26 23:23:11 2020

   => Loading Basis Set <=

    Name: CC-PVDZ
    Role: ORBITAL
    Keyword: BASIS
    atoms 1-3, 13-14  entry C          line   138 file /theoryfs2/ds/metcalf/miniconda2/envs/tf2gpu/share/psi4/basis/cc-pvdz.gbs
    atoms 4           entry S          line   598 file /theoryfs2/ds/metcalf/miniconda2/envs/tf2gpu/share/psi4/basis/cc-pvdz.gbs
    atoms 5-12, 15-20 entry H          line    22 file /theoryfs2/ds/metcalf/miniconda2/envs/tf2gpu/share/psi4/basis/cc-pvdz.gbs

         ---------------------------------------------------------
                                   SCF
               by Justin Turney, Rob Parrish, Andy Simmonett
                          and Daniel G. A. Smith
                              RHF Reference
                        1 Threads,    500 MiB Core
         ---------------------------------------------------------

  ==> Geometry <==

    Molecular point group: c1
    Full point group: C1

    Geometry (in Angstrom), charge = 0, multiplicity = 1:

       Center              X                  Y                   Z               Mass
    ------------   -----------------  -----------------  -----------------  -----------------
         C            0.305245599672     0.760296534564     0.039812380447    12.000000000000
         C            1.003245599672     2.112296534564     0.131812380447    12.000000000000
         C            2.480245599672    -0.229703465436    -1.374187619553    12.000000000000
         S            1.443245599672    -0.637703465436     0.031812380447    31.972071174400
         H           -0.390754400328     0.647296534564     0.869812380447     1.007825032230
         H           -0.270754400328     0.736296534564    -0.885187619553     1.007825032230
         H            0.217245599672     2.857296534564     0.088812380447     1.007825032230
         H            1.642245599672     2.265296534564    -0.735187619553     1.007825032230
         H            3.212245599672     0.517296534564    -1.076187619553     1.007825032230
         H            3.013245599672    -1.122703465436    -1.699187619553     1.007825032230
         H            1.875245599672     0.145296534564    -2.198187619553     1.007825032230
         H            1.581939599672     2.263416534564     1.055002380447     1.007825032230
         C           -2.887754400328    -0.829703465436     1.127812380447    12.000000000000
         C           -3.936754400328    -0.484703465436     0.068812380447    12.000000000000
         H           -2.034754400328    -1.332703465436     0.667812380447     1.007825032230
         H           -2.549754400328     0.084296534564     1.618812380447     1.007825032230
         H           -3.325754400328    -1.487703465436     1.881812380447     1.007825032230
         H           -4.750754400328     0.050296534564     0.562812380447     1.007825032230
         H           -4.345493400328    -1.394943465436    -0.394227619553     1.007825032230
         H           -3.513010400328     0.183646534564    -0.695217619553     1.007825032230

  Running in c1 symmetry.

  Rotational constants: A =      0.11948  B =      0.02763  C =      0.02486 [cm^-1]
  Rotational constants: A =   3581.95898  B =    828.22997  C =    745.26003 [MHz]
  Nuclear repulsion =  294.742215142634507

  Charge       = 0
  Multiplicity = 1
  Electrons    = 60
  Nalpha       = 30
  Nbeta        = 30

  ==> Algorithm <==

  SCF Algorithm Type is PK.
  DIIS enabled.
  MOM disabled.
  Fractional occupation disabled.
  Guess Type is SAD.
  Energy threshold   = 1.00e-06
  Density threshold  = 1.00e-10
  Integral threshold = 0.00e+00

  ==> Primary Basis <==

  Basis Set: CC-PVDZ
    Blend: CC-PVDZ
    Number of shells: 80
    Number of basis function: 158
    Number of Cartesian functions: 164
    Spherical Harmonics?: true
    Max angular momentum: 2

  ==> Pre-Iterations <==

   -------------------------------------------------------
    Irrep   Nso     Nmo     Nalpha   Nbeta   Ndocc  Nsocc
   -------------------------------------------------------
     A        158     158       0       0       0       0
   -------------------------------------------------------
    Total     158     158      30      30      30       0
   -------------------------------------------------------

  ==> Integral Setup <==

  Using integral reordering PK algorithm.
  Sizing the integral batches needed.
  Building batch lookup table.
   Calculation information:
      Number of atoms:                  20
      Number of AO shells:              80
      Number of primitives:            230
      Number of atomic orbitals:       164
      Number of basis functions:       158

      Integral cutoff                 1.00e-12
      Number of threads:                 1

	Batch   1 pq = [       0,    9405] index = [             0,44231715] size =     44231715
	Batch   2 pq = [    9405,   12561] index = [      44231715,78895641] size =     34663926
  Task number: 8
  Buffer size: 11059200
  Buffer per thread: 2
  We computed 4304849 shell quartets total.
  Whereas there are 5250420 unique shell quartets.

  ==> DiskJK: Disk-Based J/K Matrices <==

    J tasked:                  Yes
    K tasked:                  Yes
    wK tasked:                  No
    Memory [MiB]:              375
    Schwarz Cutoff:          1E-12

    OpenMP threads:              1

  Minimum eigenvalue in the overlap matrix is 6.2197411441E-03.
  Using Symmetric Orthogonalization.

  SCF Guess: Superposition of Atomic Densities via on-the-fly atomic UHF.

  ==> Iterations <==

                        Total Energy        Delta E     RMS |[F,P]|

   @RHF iter SAD:  -593.94049207800754   -5.93940e+02   0.00000e+00
   @RHF iter   1:  -594.84792315854554   -9.07431e-01   3.18808e-03 DIIS
   @RHF iter   2:  -594.99950577908646   -1.51583e-01   1.29907e-03 DIIS
   @RHF iter   3:  -595.02281301719552   -2.33072e-02   3.02277e-04 DIIS
   @RHF iter   4:  -595.02514104320824   -2.32803e-03   5.57169e-05 DIIS
   @RHF iter   5:  -595.02520240491492   -6.13617e-05   1.56512e-05 DIIS
   @RHF iter   6:  -595.02520708137001   -4.67646e-06   3.46498e-06 DIIS
   @RHF iter   7:  -595.02520735312623   -2.71756e-07   7.66812e-07 DIIS
   @RHF iter   8:  -595.02520736975396   -1.66277e-08   2.65397e-07 DIIS
   @RHF iter   9:  -595.02520737177804   -2.02408e-09   8.10465e-08 DIIS
   @RHF iter  10:  -595.02520737201655   -2.38515e-10   2.13170e-08 DIIS
   @RHF iter  11:  -595.02520737203758   -2.10321e-11   5.23176e-09 DIIS
   @RHF iter  12:  -595.02520737203815   -5.68434e-13   1.81336e-09 DIIS
   @RHF iter  13:  -595.02520737203872   -5.68434e-13   6.52380e-10 DIIS
   @RHF iter  14:  -595.02520737204043   -1.70530e-12   1.81281e-10 DIIS
   @RHF iter  15:  -595.02520737203827    2.16005e-12   5.65852e-11 DIIS
  Energy and wave function converged.

  ==> Post-Iterations <==

    Orbital Energies [Eh]
    ---------------------

    Doubly Occupied:

       1A    -91.930157     2A    -11.255964     3A    -11.253385
       4A    -11.227577     5A    -11.220389     6A    -11.217602
       7A     -8.934520     8A     -6.616585     9A     -6.615025
      10A     -6.612818    11A     -1.082817    12A     -1.018144
      13A     -0.995837    14A     -0.888554    15A     -0.836799
      16A     -0.782528    17A     -0.634269    18A     -0.606618
      19A     -0.599041    20A     -0.596925    21A     -0.583638
      22A     -0.553875    23A     -0.537538    24A     -0.513685
      25A     -0.500360    26A     -0.489926    27A     -0.484098
      28A     -0.477378    29A     -0.416190    30A     -0.327917

    Virtual:

      31A      0.166107    32A      0.179285    33A      0.205386
      34A      0.215010    35A      0.228077    36A      0.236414
      37A      0.245490    38A      0.251538    39A      0.259220
      40A      0.269684    41A      0.272298    42A      0.278873
      43A      0.291061    44A      0.295729    45A      0.326403
      46A      0.336196    47A      0.386907    48A      0.397380
      49A      0.536446    50A      0.557065    51A      0.591016
      52A      0.596254    53A      0.600651    54A      0.608104
      55A      0.611418    56A      0.626700    57A      0.638394
      58A      0.677204    59A      0.691803    60A      0.709834
      61A      0.728052    62A      0.778895    63A      0.805508
      64A      0.818410    65A      0.825388    66A      0.844502
      67A      0.853706    68A      0.871428    69A      0.876787
      70A      0.880810    71A      0.886780    72A      0.891772
      73A      0.893533    74A      0.901000    75A      0.911979
      76A      0.918946    77A      0.928769    78A      0.936424
      79A      0.949895    80A      0.957534    81A      0.977642
      82A      0.998856    83A      1.007248    84A      1.045342
      85A      1.123634    86A      1.151436    87A      1.197482
      88A      1.220264    89A      1.247502    90A      1.276591
      91A      1.298400    92A      1.337684    93A      1.366226
      94A      1.400842    95A      1.471439    96A      1.476021
      97A      1.484283    98A      1.510032    99A      1.565122
     100A      1.612473   101A      1.665605   102A      1.679303
     103A      1.684133   104A      1.699969   105A      1.707281
     106A      1.848602   107A      1.854531   108A      1.867491
     109A      1.872439   110A      1.876845   111A      1.887151
     112A      1.891924   113A      1.922683   114A      1.930312
     115A      1.941630   116A      1.947224   117A      1.948255
     118A      1.950016   119A      1.962522   120A      1.968506
     121A      1.996749   122A      2.010480   123A      2.031122
     124A      2.041719   125A      2.053567   126A      2.071689
     127A      2.095301   128A      2.114207   129A      2.123096
     130A      2.220222   131A      2.256519   132A      2.296150
     133A      2.310059   134A      2.326619   135A      2.332052
     136A      2.423142   137A      2.445853   138A      2.451969
     139A      2.461870   140A      2.478204   141A      2.547846
     142A      2.558147   143A      2.571810   144A      2.573787
     145A      2.756641   146A      2.758082   147A      2.772659
     148A      2.784665   149A      2.788459   150A      2.805564
     151A      2.813828   152A      2.846335   153A      2.856553
     154A      2.864561   155A      2.904199   156A      2.951973
     157A      2.961455   158A      2.998299

    Final Occupation by Irrep:
              A
    DOCC [    30 ]

  @RHF Final Energy:  -595.02520737203827

   => Energetics <=

    Nuclear Repulsion Energy =            294.7422151426345067
    One-Electron Energy =               -1399.9145299134279412
    Two-Electron Energy =                 510.1471073987551677
    Total Energy =                       -595.0252073720382668

Computation Completed

Properties will be evaluated at   0.000000,   0.000000,   0.000000 [a0]

Properties computed using the SCF density matrix

  Nuclear Dipole Moment: [e a0]
     X:    -8.9981      Y:     4.1196      Z:    -0.8790

  Electronic Dipole Moment: [e a0]
     X:     8.9520      Y:    -3.5668      Z:     0.4874

  Dipole Moment: [e a0]
     X:    -0.0461      Y:     0.5529      Z:    -0.3916     Total:     0.6791

  Dipole Moment: [D]
     X:    -0.1171      Y:     1.4053      Z:    -0.9953     Total:     1.7261

*** tstop() called on ds3 at Sun Apr 26 23:23:52 2020
Module time:
	user time   =      30.73 seconds =       0.51 minutes
	system time =      10.57 seconds =       0.18 minutes
	total time  =         41 seconds =       0.68 minutes
Total time:
	user time   =      30.73 seconds =       0.51 minutes
	system time =      10.57 seconds =       0.18 minutes
	total time  =         41 seconds =       0.68 minutes
                                     G D M A

                                 by Anthony Stone

                           version 2.2.06, 22 June 2011

               Distributed Multipoles from Gaussian wavefunctions

Starting at 23:23:52 on 26 Apr 2020

Using SCF density matrix from file ./SSI/SSI-002MET-050ALA-1-dimer.test.30104.fchk

                         Distributed Multipole Analysis

Standard DMA

Positions and radii in angstrom
Multipole moments in atomic units, ea_0^k for rank k

C          x =  0.305246  y =  0.760297  z =  0.039812 angstrom
           Maximum rank =  0   Radius =  0.650 angstrom
                   Q00  =  -0.196230

C          x =  1.003246  y =  2.112297  z =  0.131812 angstrom
           Maximum rank =  0   Radius =  0.650 angstrom
                   Q00  =  -0.255508

C          x =  2.480246  y = -0.229703  z = -1.374188 angstrom
           Maximum rank =  0   Radius =  0.650 angstrom
                   Q00  =  -0.351446

S          x =  1.443246  y = -0.637703  z =  0.031812 angstrom
           Maximum rank =  0   Radius =  0.650 angstrom
                   Q00  =   0.098912

H          x = -0.390754  y =  0.647297  z =  0.869812 angstrom
           Maximum rank =  0   Radius =  0.325 angstrom
                   Q00  =   0.098477

H          x = -0.270754  y =  0.736297  z = -0.885188 angstrom
           Maximum rank =  0   Radius =  0.325 angstrom
                   Q00  =   0.053193

H          x =  0.217246  y =  2.857297  z =  0.088812 angstrom
           Maximum rank =  0   Radius =  0.325 angstrom
                   Q00  =   0.084331

H          x =  1.642246  y =  2.265297  z = -0.735188 angstrom
           Maximum rank =  0   Radius =  0.325 angstrom
                   Q00  =   0.082390

H          x =  3.212246  y =  0.517297  z = -1.076188 angstrom
           Maximum rank =  0   Radius =  0.325 angstrom
                   Q00  =   0.086669

H          x =  3.013246  y = -1.122703  z = -1.699188 angstrom
           Maximum rank =  0   Radius =  0.325 angstrom
                   Q00  =   0.121184

H          x =  1.875246  y =  0.145297  z = -2.198188 angstrom
           Maximum rank =  0   Radius =  0.325 angstrom
                   Q00  =   0.087496

H          x =  1.581940  y =  2.263417  z =  1.055002 angstrom
           Maximum rank =  0   Radius =  0.325 angstrom
                   Q00  =   0.092126

C          x = -2.887754  y = -0.829703  z =  1.127812 angstrom
           Maximum rank =  0   Radius =  0.650 angstrom
                   Q00  =  -0.238096

C          x = -3.936754  y = -0.484703  z =  0.068812 angstrom
           Maximum rank =  0   Radius =  0.650 angstrom
                   Q00  =  -0.237090

H          x = -2.034754  y = -1.332703  z =  0.667812 angstrom
           Maximum rank =  0   Radius =  0.325 angstrom
                   Q00  =   0.085590

H          x = -2.549754  y =  0.084297  z =  1.618812 angstrom
           Maximum rank =  0   Radius =  0.325 angstrom
                   Q00  =   0.072598

H          x = -3.325754  y = -1.487703  z =  1.881812 angstrom
           Maximum rank =  0   Radius =  0.325 angstrom
                   Q00  =   0.081226

H          x = -4.750754  y =  0.050297  z =  0.562812 angstrom
           Maximum rank =  0   Radius =  0.325 angstrom
                   Q00  =   0.075273

H          x = -4.345493  y = -1.394943  z = -0.394228 angstrom
           Maximum rank =  0   Radius =  0.325 angstrom
                   Q00  =   0.082435

H          x = -3.513010  y =  0.183647  z = -0.695218 angstrom
           Maximum rank =  0   Radius =  0.325 angstrom
                   Q00  =   0.076472

Total multipoles referred to origin at
           x =   0.000000,  y =    0.000000,  z =    0.000000 angstrom
                   Q00  =  -0.000000

Finished at 23:23:52 on 26 Apr 2020

  DMA results are available in the Python driver through the
	  variable('DMA DISTRIBUTED MULTIPOLES')
  and
	  variable('DMA TOTAL MULTIPOLES')
  commands.

    Psi4 stopped on: Sunday, 26 April 2020 11:23PM
    Psi4 wall time for execution: 0:00:40.61

*** Psi4 exiting successfully. Buy a developer a beer!
