                               Psi4 1.3.2 release

  ==> Input File <==

--------------------------------------------------------------------------
import numpy as np
set {scf_type pk
basis cc-pvdz
d_convergence 10
gdma_switch   0
gdma_limit    0
gdma_origin   [ 0.0,  0.0,  0.0 ]
}
molecule test {
    units Angstrom
    0 1
    --
    0 1
    C               -0.335337231719964    -2.389729989247555    -1.525148799570596
    C                0.622662768280036    -0.150729989247555    -0.920148799570596
    C               -0.503337231719964    -0.923729989247555    -1.199148799570596
    C                0.503662768280036     1.212270010752445    -0.548148799570596
    C               -1.773337231719964    -0.308729989247555    -1.139148799570596
    C               -0.744337231719964     1.809270010752445    -0.448148799570596
    C               -1.905337231719964     1.060270010752445    -0.781148799570596
    O               -0.782337231719964     3.135270010752444    -0.067148799570596
    H                1.609662768280036    -0.593729989247555    -0.968148799570596
    H                1.384662768280036     1.791270010752445    -0.312148799570596
    H               -0.766337231719964    -2.956729989247556    -0.698148799570596
    H                0.726662768280036    -2.618729989247556    -1.539148799570596
    H               -2.662337231719964    -0.880729989247555    -1.358148799570596
    H               -2.881337231719964     1.520270010752445    -0.740148799570596
    H               -1.681337231719964     3.473270010752445    -0.021148799570596
    H               -0.797605231719964    -2.738230989247556    -2.460488799570596
    C                2.368662768280036    -1.177729989247555     2.363851200429405
    C                2.104662768280036    -2.209729989247555     3.489851200429404
    H                1.700662768280036    -0.322729989247555     2.481851200429404
    H                3.399662768280036    -0.826729989247555     2.423851200429404
    H                2.197662768280036    -1.634729989247555     1.388851200429404
    H                2.302662768280036    -1.716729989247555     4.438851200429405
    H                1.057275868280036    -2.545209989247555     3.469021200429404
    H                2.802208168280036    -3.053534989247555     3.382971200429404

}
e, wfn = energy('scf', return_wfn=True)
gdma(wfn)
dmavals = variable('DMA DISTRIBUTED MULTIPOLES')
charges = np.array(dmavals)
print(charges)
np.save('SSI-112TYR-128LEU-1-dimer.npy', np.array(charges))--------------------------------------------------------------------------

*** tstart() called on ds3
*** at Mon Apr 27 07:46:51 2020

   => Loading Basis Set <=

    Name: CC-PVDZ
    Role: ORBITAL
    Keyword: BASIS
    atoms 1-7, 17-18  entry C          line   138 file /theoryfs2/ds/metcalf/miniconda2/envs/tf2gpu/share/psi4/basis/cc-pvdz.gbs
    atoms 8           entry O          line   198 file /theoryfs2/ds/metcalf/miniconda2/envs/tf2gpu/share/psi4/basis/cc-pvdz.gbs
    atoms 9-16, 19-24 entry H          line    22 file /theoryfs2/ds/metcalf/miniconda2/envs/tf2gpu/share/psi4/basis/cc-pvdz.gbs

         ---------------------------------------------------------
                                   SCF
               by Justin Turney, Rob Parrish, Andy Simmonett
                          and Daniel G. A. Smith
                              RHF Reference
                        1 Threads,    500 MiB Core
         ---------------------------------------------------------

  ==> Geometry <==

    Molecular point group: c1
    Full point group: C1

    Geometry (in Angstrom), charge = 0, multiplicity = 1:

       Center              X                  Y                   Z               Mass
    ------------   -----------------  -----------------  -----------------  -----------------
         C           -0.335337231720    -2.389729989248    -1.525148799571    12.000000000000
         C            0.622662768280    -0.150729989248    -0.920148799571    12.000000000000
         C           -0.503337231720    -0.923729989248    -1.199148799571    12.000000000000
         C            0.503662768280     1.212270010752    -0.548148799571    12.000000000000
         C           -1.773337231720    -0.308729989248    -1.139148799571    12.000000000000
         C           -0.744337231720     1.809270010752    -0.448148799571    12.000000000000
         C           -1.905337231720     1.060270010752    -0.781148799571    12.000000000000
         O           -0.782337231720     3.135270010752    -0.067148799571    15.994914619570
         H            1.609662768280    -0.593729989248    -0.968148799571     1.007825032230
         H            1.384662768280     1.791270010752    -0.312148799571     1.007825032230
         H           -0.766337231720    -2.956729989248    -0.698148799571     1.007825032230
         H            0.726662768280    -2.618729989248    -1.539148799571     1.007825032230
         H           -2.662337231720    -0.880729989248    -1.358148799571     1.007825032230
         H           -2.881337231720     1.520270010752    -0.740148799571     1.007825032230
         H           -1.681337231720     3.473270010752    -0.021148799571     1.007825032230
         H           -0.797605231720    -2.738230989248    -2.460488799571     1.007825032230
         C            2.368662768280    -1.177729989248     2.363851200429    12.000000000000
         C            2.104662768280    -2.209729989248     3.489851200429    12.000000000000
         H            1.700662768280    -0.322729989248     2.481851200429     1.007825032230
         H            3.399662768280    -0.826729989248     2.423851200429     1.007825032230
         H            2.197662768280    -1.634729989248     1.388851200429     1.007825032230
         H            2.302662768280    -1.716729989248     4.438851200429     1.007825032230
         H            1.057275868280    -2.545209989248     3.469021200429     1.007825032230
         H            2.802208168280    -3.053534989248     3.382971200429     1.007825032230

  Running in c1 symmetry.

  Rotational constants: A =      0.04410  B =      0.02141  C =      0.01624 [cm^-1]
  Rotational constants: A =   1321.96936  B =    641.70902  C =    486.88892 [MHz]
  Nuclear repulsion =  484.206982687136986

  Charge       = 0
  Multiplicity = 1
  Electrons    = 76
  Nalpha       = 38
  Nbeta        = 38

  ==> Algorithm <==

  SCF Algorithm Type is PK.
  DIIS enabled.
  MOM disabled.
  Fractional occupation disabled.
  Guess Type is SAD.
  Energy threshold   = 1.00e-06
  Density threshold  = 1.00e-10
  Integral threshold = 0.00e+00

  ==> Primary Basis <==

  Basis Set: CC-PVDZ
    Blend: CC-PVDZ
    Number of shells: 102
    Number of basis function: 210
    Number of Cartesian functions: 220
    Spherical Harmonics?: true
    Max angular momentum: 2

  ==> Pre-Iterations <==

   -------------------------------------------------------
    Irrep   Nso     Nmo     Nalpha   Nbeta   Ndocc  Nsocc
   -------------------------------------------------------
     A        210     210       0       0       0       0
   -------------------------------------------------------
    Total     210     210      38      38      38       0
   -------------------------------------------------------

  ==> Integral Setup <==

  Using integral reordering PK algorithm.
  Sizing the integral batches needed.
  Building batch lookup table.
   Calculation information:
      Number of atoms:                  24
      Number of AO shells:             102
      Number of primitives:            290
      Number of atomic orbitals:       220
      Number of basis functions:       210

      Integral cutoff                 1.00e-12
      Number of threads:                 1

	Batch   1 pq = [       0,    9405] index = [             0,44231715] size =     44231715
	Batch   2 pq = [    9405,   13301] index = [      44231715,88464951] size =     44233236
	Batch   3 pq = [   13301,   16290] index = [      88464951,132690195] size =     44225244
	Batch   4 pq = [   16290,   18810] index = [     132690195,176917455] size =     44227260
	Batch   5 pq = [   18810,   21030] index = [     176917455,221140965] size =     44223510
	Batch   6 pq = [   21030,   22155] index = [     221140965,245433090] size =     24292125
  Task number: 23
  Buffer size: 11059200
  Buffer per thread: 2
  We computed 11152924 shell quartets total.
  Whereas there are 13799631 unique shell quartets.

  ==> DiskJK: Disk-Based J/K Matrices <==

    J tasked:                  Yes
    K tasked:                  Yes
    wK tasked:                  No
    Memory [MiB]:              375
    Schwarz Cutoff:          1E-12

    OpenMP threads:              1

  Minimum eigenvalue in the overlap matrix is 3.5488082561E-04.
  Using Symmetric Orthogonalization.

  SCF Guess: Superposition of Atomic Densities via on-the-fly atomic UHF.

  ==> Iterations <==

                        Total Energy        Delta E     RMS |[F,P]|

   @RHF iter SAD:  -422.41919690160069   -4.22419e+02   0.00000e+00
   @RHF iter   1:  -423.60425030259569   -1.18505e+00   2.94095e-03 DIIS
   @RHF iter   2:  -423.81533259085205   -2.11082e-01   1.25136e-03 DIIS
   @RHF iter   3:  -423.84965876781837   -3.43262e-02   2.90480e-04 DIIS
   @RHF iter   4:  -423.85255923063085   -2.90046e-03   1.24370e-04 DIIS
   @RHF iter   5:  -423.85295909115371   -3.99861e-04   2.03688e-05 DIIS
   @RHF iter   6:  -423.85297652542215   -1.74343e-05   6.57076e-06 DIIS
   @RHF iter   7:  -423.85297826683575   -1.74141e-06   2.24474e-06 DIIS
   @RHF iter   8:  -423.85297853804451   -2.71209e-07   8.86451e-07 DIIS
   @RHF iter   9:  -423.85297858969886   -5.16544e-08   3.49313e-07 DIIS
   @RHF iter  10:  -423.85297860072438   -1.10255e-08   1.57297e-07 DIIS
   @RHF iter  11:  -423.85297860403784   -3.31346e-09   6.82551e-08 DIIS
   @RHF iter  12:  -423.85297860460599   -5.68150e-10   3.33320e-08 DIIS
   @RHF iter  13:  -423.85297860471275   -1.06752e-10   8.49739e-09 DIIS
   @RHF iter  14:  -423.85297860471621   -3.46745e-12   2.42313e-09 DIIS
   @RHF iter  15:  -423.85297860472178   -5.57066e-12   1.07831e-09 DIIS
   @RHF iter  16:  -423.85297860471894    2.84217e-12   4.53177e-10 DIIS
   @RHF iter  17:  -423.85297860472213   -3.18323e-12   2.13298e-10 DIIS
   @RHF iter  18:  -423.85297860472087    1.25056e-12   9.31274e-11 DIIS
  Energy and wave function converged.

  ==> Post-Iterations <==

    Orbital Energies [Eh]
    ---------------------

    Doubly Occupied:

       1A    -20.584042     2A    -11.303191     3A    -11.245945
       4A    -11.243236     5A    -11.240388     6A    -11.238200
       7A    -11.230792     8A    -11.229486     9A    -11.217714
      10A    -11.214221    11A     -1.392584    12A     -1.142077
      13A     -1.035836    14A     -1.010225    15A     -1.008867
      16A     -0.926205    17A     -0.842482    18A     -0.833773
      19A     -0.797231    20A     -0.727535    21A     -0.659545
      22A     -0.641936    23A     -0.608856    24A     -0.593674
      25A     -0.592422    26A     -0.581951    27A     -0.581223
      28A     -0.568714    29A     -0.565516    30A     -0.527226
      31A     -0.498072    32A     -0.489931    33A     -0.487016
      34A     -0.485782    35A     -0.482641    36A     -0.461847
      37A     -0.332162    38A     -0.302926

    Virtual:

      39A      0.124252    40A      0.153655    41A      0.172804
      42A      0.180956    43A      0.198523    44A      0.209192
      45A      0.218504    46A      0.243692    47A      0.252495
      48A      0.266064    49A      0.268288    50A      0.269862
      51A      0.275861    52A      0.290147    53A      0.298733
      54A      0.318806    55A      0.363780    56A      0.370937
      57A      0.393922    58A      0.417062    59A      0.448947
      60A      0.484621    61A      0.487692    62A      0.502809
      63A      0.588867    64A      0.600603    65A      0.609263
      66A      0.614004    67A      0.634119    68A      0.640464
      69A      0.656797    70A      0.670913    71A      0.685125
      72A      0.695417    73A      0.702490    74A      0.714273
      75A      0.725276    76A      0.741700    77A      0.764622
      78A      0.772242    79A      0.774516    80A      0.781934
      81A      0.794868    82A      0.829548    83A      0.840050
      84A      0.846952    85A      0.868453    86A      0.879246
      87A      0.886923    88A      0.893017    89A      0.894339
      90A      0.896671    91A      0.902001    92A      0.909411
      93A      0.917182    94A      0.924404    95A      0.928957
      96A      0.936106    97A      0.954043    98A      0.963541
      99A      1.000245   100A      1.003830   101A      1.019347
     102A      1.068692   103A      1.110862   104A      1.126109
     105A      1.128435   106A      1.137168   107A      1.142571
     108A      1.157340   109A      1.200698   110A      1.224050
     111A      1.241189   112A      1.249456   113A      1.258908
     114A      1.274107   115A      1.284738   116A      1.294467
     117A      1.309441   118A      1.352964   119A      1.362819
     120A      1.381636   121A      1.471901   122A      1.475464
     123A      1.492309   124A      1.495994   125A      1.507603
     126A      1.561079   127A      1.571906   128A      1.614270
     129A      1.617980   130A      1.678529   131A      1.679792
     132A      1.691062   133A      1.702131   134A      1.725153
     135A      1.734837   136A      1.776998   137A      1.796723
     138A      1.811436   139A      1.851860   140A      1.864872
     141A      1.867557   142A      1.873286   143A      1.881815
     144A      1.889095   145A      1.903640   146A      1.910221
     147A      1.926114   148A      1.933697   149A      1.946891
     150A      1.948225   151A      1.952781   152A      1.954871
     153A      1.959910   154A      1.971192   155A      1.976266
     156A      1.984902   157A      2.017201   158A      2.036650
     159A      2.048606   160A      2.059130   161A      2.070796
     162A      2.103844   163A      2.114328   164A      2.122212
     165A      2.128058   166A      2.170350   167A      2.192524
     168A      2.202453   169A      2.244745   170A      2.263164
     171A      2.288819   172A      2.296380   173A      2.309334
     174A      2.357423   175A      2.374654   176A      2.379395
     177A      2.448740   178A      2.452921   179A      2.468245
     180A      2.472709   181A      2.483880   182A      2.520182
     183A      2.522186   184A      2.561389   185A      2.574552
     186A      2.604728   187A      2.612815   188A      2.714433
     189A      2.759543   190A      2.768977   191A      2.785611
     192A      2.792310   193A      2.800216   194A      2.839814
     195A      2.843647   196A      2.853702   197A      2.876700
     198A      2.927513   199A      2.944038   200A      2.968951
     201A      2.995292   202A      3.053204   203A      3.115217
     204A      3.236709   205A      3.250242   206A      3.340375
     207A      3.536371   208A      3.654476   209A      3.906913
     210A      4.187684

    Final Occupation by Irrep:
              A
    DOCC [    38 ]

  @RHF Final Energy:  -423.85297860472087

   => Energetics <=

    Nuclear Repulsion Energy =            484.2069826871369855
    One-Electron Energy =               -1534.2689819968031770
    Two-Electron Energy =                 626.2090207049452601
    Total Energy =                       -423.8529786047208745

Computation Completed

Properties will be evaluated at   0.000000,   0.000000,   0.000000 [a0]

Properties computed using the SCF density matrix

  Nuclear Dipole Moment: [e a0]
     X:     7.8636      Y:   -12.2686      Z:     8.8943

  Electronic Dipole Moment: [e a0]
     X:    -8.4212      Y:    12.0772      Z:    -8.9603

  Dipole Moment: [e a0]
     X:    -0.5575      Y:    -0.1914      Z:    -0.0660     Total:     0.5931

  Dipole Moment: [D]
     X:    -1.4170      Y:    -0.4865      Z:    -0.1678     Total:     1.5076

*** tstop() called on ds3 at Mon Apr 27 07:49:52 2020
Module time:
	user time   =      87.70 seconds =       1.46 minutes
	system time =      39.61 seconds =       0.66 minutes
	total time  =        181 seconds =       3.02 minutes
Total time:
	user time   =      87.70 seconds =       1.46 minutes
	system time =      39.61 seconds =       0.66 minutes
	total time  =        181 seconds =       3.02 minutes
                                     G D M A

                                 by Anthony Stone

                           version 2.2.06, 22 June 2011

               Distributed Multipoles from Gaussian wavefunctions

Starting at 7:49:52 on 27 Apr 2020

Using SCF density matrix from file ./SSI/SSI-112TYR-128LEU-1-dimer.test.32645.fchk

                         Distributed Multipole Analysis

Standard DMA

Positions and radii in angstrom
Multipole moments in atomic units, ea_0^k for rank k

C          x = -0.335337  y = -2.389730  z = -1.525149 angstrom
           Maximum rank =  0   Radius =  0.650 angstrom
                   Q00  =  -0.204496

C          x =  0.622663  y = -0.150730  z = -0.920149 angstrom
           Maximum rank =  0   Radius =  0.650 angstrom
                   Q00  =   0.019682

C          x = -0.503337  y = -0.923730  z = -1.199149 angstrom
           Maximum rank =  0   Radius =  0.650 angstrom
                   Q00  =  -0.122514

C          x =  0.503663  y =  1.212270  z = -0.548149 angstrom
           Maximum rank =  0   Radius =  0.650 angstrom
                   Q00  =  -0.098330

C          x = -1.773337  y = -0.308730  z = -1.139149 angstrom
           Maximum rank =  0   Radius =  0.650 angstrom
                   Q00  =  -0.035502

C          x = -0.744337  y =  1.809270  z = -0.448149 angstrom
           Maximum rank =  0   Radius =  0.650 angstrom
                   Q00  =   0.294793

C          x = -1.905337  y =  1.060270  z = -0.781149 angstrom
           Maximum rank =  0   Radius =  0.650 angstrom
                   Q00  =  -0.186864

O          x = -0.782337  y =  3.135270  z = -0.067149 angstrom
           Maximum rank =  0   Radius =  0.650 angstrom
                   Q00  =  -0.670380

H          x =  1.609663  y = -0.593730  z = -0.968149 angstrom
           Maximum rank =  0   Radius =  0.325 angstrom
                   Q00  =   0.069017

H          x =  1.384663  y =  1.791270  z = -0.312149 angstrom
           Maximum rank =  0   Radius =  0.325 angstrom
                   Q00  =   0.082854

H          x = -0.766337  y = -2.956730  z = -0.698149 angstrom
           Maximum rank =  0   Radius =  0.325 angstrom
                   Q00  =   0.097334

H          x =  0.726663  y = -2.618730  z = -1.539149 angstrom
           Maximum rank =  0   Radius =  0.325 angstrom
                   Q00  =   0.097065

H          x = -2.662337  y = -0.880730  z = -1.358149 angstrom
           Maximum rank =  0   Radius =  0.325 angstrom
                   Q00  =   0.072075

H          x = -2.881337  y =  1.520270  z = -0.740149 angstrom
           Maximum rank =  0   Radius =  0.325 angstrom
                   Q00  =   0.079461

H          x = -1.681337  y =  3.473270  z = -0.021149 angstrom
           Maximum rank =  0   Radius =  0.325 angstrom
                   Q00  =   0.403989

H          x = -0.797605  y = -2.738231  z = -2.460489 angstrom
           Maximum rank =  0   Radius =  0.325 angstrom
                   Q00  =   0.100705

C          x =  2.368663  y = -1.177730  z =  2.363851 angstrom
           Maximum rank =  0   Radius =  0.650 angstrom
                   Q00  =  -0.240038

C          x =  2.104663  y = -2.209730  z =  3.489851 angstrom
           Maximum rank =  0   Radius =  0.650 angstrom
                   Q00  =  -0.241192

H          x =  1.700663  y = -0.322730  z =  2.481851 angstrom
           Maximum rank =  0   Radius =  0.325 angstrom
                   Q00  =   0.087745

H          x =  3.399663  y = -0.826730  z =  2.423851 angstrom
           Maximum rank =  0   Radius =  0.325 angstrom
                   Q00  =   0.077106

H          x =  2.197663  y = -1.634730  z =  1.388851 angstrom
           Maximum rank =  0   Radius =  0.325 angstrom
                   Q00  =   0.077779

H          x =  2.302663  y = -1.716730  z =  4.438851 angstrom
           Maximum rank =  0   Radius =  0.325 angstrom
                   Q00  =   0.079245

H          x =  1.057276  y = -2.545210  z =  3.469021 angstrom
           Maximum rank =  0   Radius =  0.325 angstrom
                   Q00  =   0.082507

H          x =  2.802208  y = -3.053535  z =  3.382971 angstrom
           Maximum rank =  0   Radius =  0.325 angstrom
                   Q00  =   0.077959

Total multipoles referred to origin at
           x =   0.000000,  y =    0.000000,  z =    0.000000 angstrom
                   Q00  =  -0.000000

Finished at 7:49:52 on 27 Apr 2020

  DMA results are available in the Python driver through the
	  variable('DMA DISTRIBUTED MULTIPOLES')
  and
	  variable('DMA TOTAL MULTIPOLES')
  commands.

    Psi4 stopped on: Monday, 27 April 2020 07:49AM
    Psi4 wall time for execution: 0:03:00.75

*** Psi4 exiting successfully. Buy a developer a beer!
