                               Psi4 1.3.2 release

  ==> Input File <==

--------------------------------------------------------------------------
import numpy as np
set {scf_type pk
basis cc-pvdz
d_convergence 10
gdma_switch   0
gdma_limit    0
gdma_origin   [ 0.0,  0.0,  0.0 ]
}
molecule test {
    units Angstrom
    0 1
    --
    0 1
    C                0.607987537860222     0.264986011413982    -1.172270818054933
    C                3.088987537860222    -0.098013988586018     0.032729181945067
    S                1.342987537860222    -0.450013988586018     0.308729181945067
    H                1.190987537860222    -0.013013988586018    -2.053270818054933
    H               -0.388012462139778    -0.140013988586018    -1.309270818054933
    H                0.541987537860222     1.349986011413982    -1.081270818054933
    H                3.481987537860222    -0.842013988586018    -0.659270818054933
    H                3.618987537860222    -0.175013988586018     0.977729181945067
    H                3.235217537860222     0.909636011413982    -0.383510818054933
    C               -2.950012462139778     0.485986011413982    -0.393270818054933
    C               -3.649012462139778     0.263986011413982     0.949729181945067
    H               -3.689012462139778     0.628986011413982    -1.184270818054933
    H               -2.308012462139778     1.367986011413982    -0.342270818054933
    H               -2.324012462139778    -0.362013988586018    -0.657270818054933
    H               -2.883012462139778     0.253986011413982     1.724729181945067
    H               -4.175752462139778    -0.701693988586018     0.948299181945067
    H               -4.351852462139779     1.081456011413982     1.168249181945067

}
e, wfn = energy('scf', return_wfn=True)
gdma(wfn)
dmavals = variable('DMA DISTRIBUTED MULTIPOLES')
charges = np.array(dmavals)
print(charges)
np.save('SSI-157MET-181ILE-1-dimer.npy', np.array(charges))--------------------------------------------------------------------------

*** tstart() called on ds3
*** at Sun Apr 26 23:23:41 2020

   => Loading Basis Set <=

    Name: CC-PVDZ
    Role: ORBITAL
    Keyword: BASIS
    atoms 1-2, 10-11 entry C          line   138 file /theoryfs2/ds/metcalf/miniconda2/envs/tf2gpu/share/psi4/basis/cc-pvdz.gbs
    atoms 3          entry S          line   598 file /theoryfs2/ds/metcalf/miniconda2/envs/tf2gpu/share/psi4/basis/cc-pvdz.gbs
    atoms 4-9, 12-17 entry H          line    22 file /theoryfs2/ds/metcalf/miniconda2/envs/tf2gpu/share/psi4/basis/cc-pvdz.gbs

         ---------------------------------------------------------
                                   SCF
               by Justin Turney, Rob Parrish, Andy Simmonett
                          and Daniel G. A. Smith
                              RHF Reference
                        1 Threads,    500 MiB Core
         ---------------------------------------------------------

  ==> Geometry <==

    Molecular point group: c1
    Full point group: C1

    Geometry (in Angstrom), charge = 0, multiplicity = 1:

       Center              X                  Y                   Z               Mass
    ------------   -----------------  -----------------  -----------------  -----------------
         C            0.607987537860     0.264986011414    -1.172270818055    12.000000000000
         C            3.088987537860    -0.098013988586     0.032729181945    12.000000000000
         S            1.342987537860    -0.450013988586     0.308729181945    31.972071174400
         H            1.190987537860    -0.013013988586    -2.053270818055     1.007825032230
         H           -0.388012462140    -0.140013988586    -1.309270818055     1.007825032230
         H            0.541987537860     1.349986011414    -1.081270818055     1.007825032230
         H            3.481987537860    -0.842013988586    -0.659270818055     1.007825032230
         H            3.618987537860    -0.175013988586     0.977729181945     1.007825032230
         H            3.235217537860     0.909636011414    -0.383510818055     1.007825032230
         C           -2.950012462140     0.485986011414    -0.393270818055    12.000000000000
         C           -3.649012462140     0.263986011414     0.949729181945    12.000000000000
         H           -3.689012462140     0.628986011414    -1.184270818055     1.007825032230
         H           -2.308012462140     1.367986011414    -0.342270818055     1.007825032230
         H           -2.324012462140    -0.362013988586    -0.657270818055     1.007825032230
         H           -2.883012462140     0.253986011414     1.724729181945     1.007825032230
         H           -4.175752462140    -0.701693988586     0.948299181945     1.007825032230
         H           -4.351852462140     1.081456011414     1.168249181945     1.007825032230

  Running in c1 symmetry.

  Rotational constants: A =      0.28571  B =      0.02984  C =      0.02781 [cm^-1]
  Rotational constants: A =   8565.33491  B =    894.52846  C =    833.63110 [MHz]
  Nuclear repulsion =  219.376079972851841

  Charge       = 0
  Multiplicity = 1
  Electrons    = 52
  Nalpha       = 26
  Nbeta        = 26

  ==> Algorithm <==

  SCF Algorithm Type is PK.
  DIIS enabled.
  MOM disabled.
  Fractional occupation disabled.
  Guess Type is SAD.
  Energy threshold   = 1.00e-06
  Density threshold  = 1.00e-10
  Integral threshold = 0.00e+00

  ==> Primary Basis <==

  Basis Set: CC-PVDZ
    Blend: CC-PVDZ
    Number of shells: 68
    Number of basis function: 134
    Number of Cartesian functions: 139
    Spherical Harmonics?: true
    Max angular momentum: 2

  ==> Pre-Iterations <==

   -------------------------------------------------------
    Irrep   Nso     Nmo     Nalpha   Nbeta   Ndocc  Nsocc
   -------------------------------------------------------
     A        134     134       0       0       0       0
   -------------------------------------------------------
    Total     134     134      26      26      26       0
   -------------------------------------------------------

  ==> Integral Setup <==

  Using integral reordering PK algorithm.
  Sizing the integral batches needed.
  Building batch lookup table.
   Calculation information:
      Number of atoms:                  17
      Number of AO shells:              68
      Number of primitives:            198
      Number of atomic orbitals:       139
      Number of basis functions:       134

      Integral cutoff                 1.00e-12
      Number of threads:                 1

	Batch   1 pq = [       0,    9045] index = [             0,40910535] size =     40910535
  Task number: 4
  Buffer size: 11059200
  Buffer per thread: 2
  We computed 2082977 shell quartets total.
  Whereas there are 2753031 unique shell quartets.

  ==> DiskJK: Disk-Based J/K Matrices <==

    J tasked:                  Yes
    K tasked:                  Yes
    wK tasked:                  No
    Memory [MiB]:              375
    Schwarz Cutoff:          1E-12

    OpenMP threads:              1

  Minimum eigenvalue in the overlap matrix is 7.1350727437E-03.
  Using Symmetric Orthogonalization.

  SCF Guess: Superposition of Atomic Densities via on-the-fly atomic UHF.

  ==> Iterations <==

                        Total Energy        Delta E     RMS |[F,P]|

   @RHF iter SAD:  -554.90552964618530   -5.54906e+02   0.00000e+00
   @RHF iter   1:  -555.84504348315716   -9.39514e-01   3.36574e-03 DIIS
   @RHF iter   2:  -555.96809821179329   -1.23055e-01   1.33019e-03 DIIS
   @RHF iter   3:  -555.98593788796200   -1.78397e-02   3.14020e-04 DIIS
   @RHF iter   4:  -555.98779358184834   -1.85569e-03   4.66456e-05 DIIS
   @RHF iter   5:  -555.98783068363070   -3.71018e-05   1.00200e-05 DIIS
   @RHF iter   6:  -555.98783251323607   -1.82961e-06   2.31236e-06 DIIS
   @RHF iter   7:  -555.98783260361165   -9.03756e-08   6.71777e-07 DIIS
   @RHF iter   8:  -555.98783261216295   -8.55130e-09   1.77966e-07 DIIS
   @RHF iter   9:  -555.98783261323149   -1.06854e-09   6.20186e-08 DIIS
   @RHF iter  10:  -555.98783261338190   -1.50408e-10   2.16805e-08 DIIS
   @RHF iter  11:  -555.98783261340247   -2.05773e-11   7.20360e-09 DIIS
   @RHF iter  12:  -555.98783261340532   -2.84217e-12   2.64841e-09 DIIS
   @RHF iter  13:  -555.98783261340475    5.68434e-13   7.51624e-10 DIIS
   @RHF iter  14:  -555.98783261340486   -1.13687e-13   1.67201e-10 DIIS
   @RHF iter  15:  -555.98783261340520   -3.41061e-13   4.24693e-11 DIIS
  Energy and wave function converged.

  ==> Post-Iterations <==

    Orbital Energies [Eh]
    ---------------------

    Doubly Occupied:

       1A    -91.933746     2A    -11.255781     3A    -11.252803
       4A    -11.218758     5A    -11.217946     6A     -8.937633
       7A     -6.619740     8A     -6.618130     9A     -6.615888
      10A     -1.060844    11A     -1.017888    12A     -0.951678
      13A     -0.838180    14A     -0.803990    15A     -0.607196
      16A     -0.601581    17A     -0.596985    18A     -0.593258
      19A     -0.570238    20A     -0.565155    21A     -0.506189
      22A     -0.493432    23A     -0.486407    24A     -0.482295
      25A     -0.424925    26A     -0.329746

    Virtual:

      27A      0.171767    28A      0.181663    29A      0.201983
      30A      0.230582    31A      0.235449    32A      0.241572
      33A      0.250530    34A      0.253402    35A      0.265459
      36A      0.275497    37A      0.282188    38A      0.288653
      39A      0.309433    40A      0.363494    41A      0.403378
      42A      0.523280    43A      0.561017    44A      0.579569
      45A      0.593330    46A      0.603290    47A      0.617625
      48A      0.618154    49A      0.634405    50A      0.686274
      51A      0.699828    52A      0.705487    53A      0.746468
      54A      0.791465    55A      0.802703    56A      0.829337
      57A      0.840640    58A      0.862338    59A      0.865453
      60A      0.872923    61A      0.881007    62A      0.891281
      63A      0.893231    64A      0.897368    65A      0.899409
      66A      0.908675    67A      0.927136    68A      0.934588
      69A      0.946506    70A      0.962631    71A      0.983179
      72A      0.999841    73A      1.127061    74A      1.146904
      75A      1.207711    76A      1.233600    77A      1.260536
      78A      1.309552    79A      1.312351    80A      1.361157
      81A      1.386186    82A      1.453362    83A      1.469629
      84A      1.479868    85A      1.506217    86A      1.581321
      87A      1.666625    88A      1.673120    89A      1.683592
      90A      1.707553    91A      1.858941    92A      1.867230
      93A      1.876821    94A      1.883189    95A      1.894673
      96A      1.899155    97A      1.914853    98A      1.926265
      99A      1.941458   100A      1.947571   101A      1.961174
     102A      1.963718   103A      1.968717   104A      1.975366
     105A      2.004321   106A      2.012321   107A      2.057677
     108A      2.080070   109A      2.096866   110A      2.124947
     111A      2.212619   112A      2.235230   113A      2.297443
     114A      2.318316   115A      2.406277   116A      2.413592
     117A      2.445088   118A      2.452790   119A      2.461501
     120A      2.472148   121A      2.557212   122A      2.580416
     123A      2.734514   124A      2.750865   125A      2.763033
     126A      2.771788   127A      2.784435   128A      2.791490
     129A      2.815628   130A      2.851164   131A      2.855771
     132A      2.862303   133A      2.954872   134A      2.965365

    Final Occupation by Irrep:
              A
    DOCC [    26 ]

  @RHF Final Energy:  -555.98783261340520

   => Energetics <=

    Nuclear Repulsion Energy =            219.3760799728518407
    One-Electron Energy =               -1197.5270000451266696
    Two-Electron Energy =                 422.1630874588697111
    Total Energy =                       -555.9878326134050894

Computation Completed

Properties will be evaluated at   0.000000,   0.000000,   0.000000 [a0]

Properties computed using the SCF density matrix

  Nuclear Dipole Moment: [e a0]
     X:    -7.5117      Y:     3.1364      Z:    -2.6650

  Electronic Dipole Moment: [e a0]
     X:     7.7958      Y:    -2.8333      Z:     2.1637

  Dipole Moment: [e a0]
     X:     0.2842      Y:     0.3031      Z:    -0.5013     Total:     0.6511

  Dipole Moment: [D]
     X:     0.7223      Y:     0.7704      Z:    -1.2742     Total:     1.6549

*** tstop() called on ds3 at Sun Apr 26 23:24:02 2020
Module time:
	user time   =      15.83 seconds =       0.26 minutes
	system time =       5.50 seconds =       0.09 minutes
	total time  =         21 seconds =       0.35 minutes
Total time:
	user time   =      15.83 seconds =       0.26 minutes
	system time =       5.50 seconds =       0.09 minutes
	total time  =         21 seconds =       0.35 minutes
                                     G D M A

                                 by Anthony Stone

                           version 2.2.06, 22 June 2011

               Distributed Multipoles from Gaussian wavefunctions

Starting at 23:24:2 on 26 Apr 2020

Using SCF density matrix from file ./SSI/SSI-157MET-181ILE-1-dimer.test.30286.fchk

                         Distributed Multipole Analysis

Standard DMA

Positions and radii in angstrom
Multipole moments in atomic units, ea_0^k for rank k

C          x =  0.607988  y =  0.264986  z = -1.172271 angstrom
           Maximum rank =  0   Radius =  0.650 angstrom
                   Q00  =  -0.359901

C          x =  3.088988  y = -0.098014  z =  0.032729 angstrom
           Maximum rank =  0   Radius =  0.650 angstrom
                   Q00  =  -0.352641

S          x =  1.342988  y = -0.450014  z =  0.308729 angstrom
           Maximum rank =  0   Radius =  0.650 angstrom
                   Q00  =   0.108677

H          x =  1.190988  y = -0.013014  z = -2.053271 angstrom
           Maximum rank =  0   Radius =  0.325 angstrom
                   Q00  =   0.087490

H          x = -0.388012  y = -0.140014  z = -1.309271 angstrom
           Maximum rank =  0   Radius =  0.325 angstrom
                   Q00  =   0.127592

H          x =  0.541988  y =  1.349986  z = -1.081271 angstrom
           Maximum rank =  0   Radius =  0.325 angstrom
                   Q00  =   0.088939

H          x =  3.481988  y = -0.842014  z = -0.659271 angstrom
           Maximum rank =  0   Radius =  0.325 angstrom
                   Q00  =   0.087633

H          x =  3.618988  y = -0.175014  z =  0.977729 angstrom
           Maximum rank =  0   Radius =  0.325 angstrom
                   Q00  =   0.119660

H          x =  3.235218  y =  0.909636  z = -0.383511 angstrom
           Maximum rank =  0   Radius =  0.325 angstrom
                   Q00  =   0.091735

C          x = -2.950012  y =  0.485986  z = -0.393271 angstrom
           Maximum rank =  0   Radius =  0.650 angstrom
                   Q00  =  -0.247197

C          x = -3.649012  y =  0.263986  z =  0.949729 angstrom
           Maximum rank =  0   Radius =  0.650 angstrom
                   Q00  =  -0.228817

H          x = -3.689012  y =  0.628986  z = -1.184271 angstrom
           Maximum rank =  0   Radius =  0.325 angstrom
                   Q00  =   0.078387

H          x = -2.308012  y =  1.367986  z = -0.342271 angstrom
           Maximum rank =  0   Radius =  0.325 angstrom
                   Q00  =   0.077987

H          x = -2.324012  y = -0.362014  z = -0.657271 angstrom
           Maximum rank =  0   Radius =  0.325 angstrom
                   Q00  =   0.077408

H          x = -2.883012  y =  0.253986  z =  1.724729 angstrom
           Maximum rank =  0   Radius =  0.325 angstrom
                   Q00  =   0.082833

H          x = -4.175752  y = -0.701694  z =  0.948299 angstrom
           Maximum rank =  0   Radius =  0.325 angstrom
                   Q00  =   0.080192

H          x = -4.351852  y =  1.081456  z =  1.168249 angstrom
           Maximum rank =  0   Radius =  0.325 angstrom
                   Q00  =   0.080023

Total multipoles referred to origin at
           x =   0.000000,  y =    0.000000,  z =    0.000000 angstrom
                   Q00  =  -0.000000

Finished at 23:24:2 on 26 Apr 2020

  DMA results are available in the Python driver through the
	  variable('DMA DISTRIBUTED MULTIPOLES')
  and
	  variable('DMA TOTAL MULTIPOLES')
  commands.

    Psi4 stopped on: Sunday, 26 April 2020 11:24PM
    Psi4 wall time for execution: 0:00:21.24

*** Psi4 exiting successfully. Buy a developer a beer!
