                               Psi4 1.3.2 release

  ==> Input File <==

--------------------------------------------------------------------------
import numpy as np
set {scf_type pk
basis cc-pvdz
d_convergence 10
gdma_switch   0
gdma_limit    0
gdma_origin   [ 0.0,  0.0,  0.0 ]
}
molecule test {
    units Angstrom
    -1 1
    --
    -1 1
    C                0.699853125608351    -0.911502026055056     1.504840903671948
    C                1.373853125608351    -2.110502026055055     2.092840903671948
    C               -0.268146874391649    -0.442502026055056     2.615840903671948
    H                0.165853125608351    -1.221502026055056     0.606840903671948
    H                1.418853125608351    -0.131502026055056     1.259840903671948
    H                1.788853125608351    -2.767502026055056     1.333840903671948
    H                2.170853125608351    -1.782502026055055     2.761840903671948
    H                0.180853125608351     0.366497973944944     3.193840903671949
    H                0.586073125608351    -2.600712026055056     2.683680903671948
    H               -0.400336874391649    -1.336092026055055     3.243550903671948
    H               -1.242286874391649    -0.145052026055056     2.200420903671948
    C               -1.688146874391649     1.561497973944945    -1.360159096328052
    C               -0.368146874391649     0.812497973944944    -1.569159096328052
    O                0.694853125608351     1.493497973944945    -1.385159096328052
    O               -0.421146874391649    -0.399502026055056    -1.923159096328052
    H               -1.551146874391649     2.292497973944944    -0.561159096328052
    H               -2.468146874391649     0.863497973944945    -1.048159096328052
    H               -2.007886874391649     2.084377973944945    -2.273589096328052

}
e, wfn = energy('scf', return_wfn=True)
gdma(wfn)
dmavals = variable('DMA DISTRIBUTED MULTIPOLES')
charges = np.array(dmavals)
print(charges)
np.save('SSI-044PRO-053ASP-1-dimer.npy', np.array(charges))--------------------------------------------------------------------------

*** tstart() called on ds3
*** at Tue Apr 28 04:55:45 2020

   => Loading Basis Set <=

    Name: CC-PVDZ
    Role: ORBITAL
    Keyword: BASIS
    atoms 1-3, 12-13  entry C          line   138 file /theoryfs2/ds/metcalf/miniconda2/envs/tf2gpu/share/psi4/basis/cc-pvdz.gbs
    atoms 4-11, 16-18 entry H          line    22 file /theoryfs2/ds/metcalf/miniconda2/envs/tf2gpu/share/psi4/basis/cc-pvdz.gbs
    atoms 14-15       entry O          line   198 file /theoryfs2/ds/metcalf/miniconda2/envs/tf2gpu/share/psi4/basis/cc-pvdz.gbs

         ---------------------------------------------------------
                                   SCF
               by Justin Turney, Rob Parrish, Andy Simmonett
                          and Daniel G. A. Smith
                              RHF Reference
                        1 Threads,    500 MiB Core
         ---------------------------------------------------------

  ==> Geometry <==

    Molecular point group: c1
    Full point group: C1

    Geometry (in Angstrom), charge = -1, multiplicity = 1:

       Center              X                  Y                   Z               Mass
    ------------   -----------------  -----------------  -----------------  -----------------
         C            0.699853125608    -0.911502026055     1.504840903672    12.000000000000
         C            1.373853125608    -2.110502026055     2.092840903672    12.000000000000
         C           -0.268146874392    -0.442502026055     2.615840903672    12.000000000000
         H            0.165853125608    -1.221502026055     0.606840903672     1.007825032230
         H            1.418853125608    -0.131502026055     1.259840903672     1.007825032230
         H            1.788853125608    -2.767502026055     1.333840903672     1.007825032230
         H            2.170853125608    -1.782502026055     2.761840903672     1.007825032230
         H            0.180853125608     0.366497973945     3.193840903672     1.007825032230
         H            0.586073125608    -2.600712026055     2.683680903672     1.007825032230
         H           -0.400336874392    -1.336092026055     3.243550903672     1.007825032230
         H           -1.242286874392    -0.145052026055     2.200420903672     1.007825032230
         C           -1.688146874392     1.561497973945    -1.360159096328    12.000000000000
         C           -0.368146874392     0.812497973945    -1.569159096328    12.000000000000
         O            0.694853125608     1.493497973945    -1.385159096328    15.994914619570
         O           -0.421146874392    -0.399502026055    -1.923159096328    15.994914619570
         H           -1.551146874392     2.292497973945    -0.561159096328     1.007825032230
         H           -2.468146874392     0.863497973945    -1.048159096328     1.007825032230
         H           -2.007886874392     2.084377973945    -2.273589096328     1.007825032230

  Running in c1 symmetry.

  Rotational constants: A =      0.12391  B =      0.03123  C =      0.02907 [cm^-1]
  Rotational constants: A =   3714.76676  B =    936.10732  C =    871.52500 [MHz]
  Nuclear repulsion =  289.792968919793793

  Charge       = -1
  Multiplicity = 1
  Electrons    = 58
  Nalpha       = 29
  Nbeta        = 29

  ==> Algorithm <==

  SCF Algorithm Type is PK.
  DIIS enabled.
  MOM disabled.
  Fractional occupation disabled.
  Guess Type is SAD.
  Energy threshold   = 1.00e-06
  Density threshold  = 1.00e-10
  Integral threshold = 0.00e+00

  ==> Primary Basis <==

  Basis Set: CC-PVDZ
    Blend: CC-PVDZ
    Number of shells: 75
    Number of basis function: 153
    Number of Cartesian functions: 160
    Spherical Harmonics?: true
    Max angular momentum: 2

  ==> Pre-Iterations <==

   -------------------------------------------------------
    Irrep   Nso     Nmo     Nalpha   Nbeta   Ndocc  Nsocc
   -------------------------------------------------------
     A        153     153       0       0       0       0
   -------------------------------------------------------
    Total     153     153      29      29      29       0
   -------------------------------------------------------

  ==> Integral Setup <==

  Using integral reordering PK algorithm.
  Sizing the integral batches needed.
  Building batch lookup table.
   Calculation information:
      Number of atoms:                  18
      Number of AO shells:              75
      Number of primitives:            209
      Number of atomic orbitals:       160
      Number of basis functions:       153

      Integral cutoff                 1.00e-12
      Number of threads:                 1

	Batch   1 pq = [       0,    9405] index = [             0,44231715] size =     44231715
	Batch   2 pq = [    9405,   11781] index = [      44231715,69401871] size =     25170156
  Task number: 7
  Buffer size: 11059200
  Buffer per thread: 2
  We computed 3419224 shell quartets total.
  Whereas there are 4062675 unique shell quartets.

  ==> DiskJK: Disk-Based J/K Matrices <==

    J tasked:                  Yes
    K tasked:                  Yes
    wK tasked:                  No
    Memory [MiB]:              375
    Schwarz Cutoff:          1E-12

    OpenMP threads:              1

  Minimum eigenvalue in the overlap matrix is 4.7470326202E-03.
  Using Symmetric Orthogonalization.

  SCF Guess: Superposition of Atomic Densities via on-the-fly atomic UHF.

  ==> Iterations <==

                        Total Energy        Delta E     RMS |[F,P]|

   @RHF iter SAD:  -343.87844836702459   -3.43878e+02   0.00000e+00
   @RHF iter   1:  -345.19433131720871   -1.31588e+00   4.99714e-03 DIIS
   @RHF iter   2:  -345.42131074258481   -2.26979e-01   2.82029e-03 DIIS
   @RHF iter   3:  -345.49146391431509   -7.01532e-02   4.36204e-04 DIIS
   @RHF iter   4:  -345.49446565339133   -3.00174e-03   1.64854e-04 DIIS
   @RHF iter   5:  -345.49489950111996   -4.33848e-04   2.54869e-05 DIIS
   @RHF iter   6:  -345.49491207880499   -1.25777e-05   7.49691e-06 DIIS
   @RHF iter   7:  -345.49491306736763   -9.88563e-07   2.37690e-06 DIIS
   @RHF iter   8:  -345.49491314846836   -8.11007e-08   8.80507e-07 DIIS
   @RHF iter   9:  -345.49491315898314   -1.05148e-08   2.23965e-07 DIIS
   @RHF iter  10:  -345.49491316005373   -1.07059e-09   5.14100e-08 DIIS
   @RHF iter  11:  -345.49491316014655   -9.28253e-11   1.75198e-08 DIIS
   @RHF iter  12:  -345.49491316015900   -1.24487e-11   6.77186e-09 DIIS
   @RHF iter  13:  -345.49491316016031   -1.30740e-12   2.51864e-09 DIIS
   @RHF iter  14:  -345.49491316016423   -3.92220e-12   7.88801e-10 DIIS
   @RHF iter  15:  -345.49491316016281    1.42109e-12   2.48650e-10 DIIS
   @RHF iter  16:  -345.49491316016162    1.19371e-12   9.51340e-11 DIIS
  Energy and wave function converged.

  ==> Post-Iterations <==

    Orbital Energies [Eh]
    ---------------------

    Doubly Occupied:

       1A    -20.266493     2A    -20.260912     3A    -11.122119
       4A    -11.100564     5A    -11.099134     6A    -11.080975
       7A    -11.049563     8A     -1.136140     9A     -1.031843
      10A     -0.944058    11A     -0.799565    12A     -0.792235
      13A     -0.673986    14A     -0.515344    15A     -0.500404
      16A     -0.495067    17A     -0.426642    18A     -0.409360
      19A     -0.404563    20A     -0.399899    21A     -0.395656
      22A     -0.358913    23A     -0.342879    24A     -0.340107
      25A     -0.337607    26A     -0.296725    27A     -0.179970
      28A     -0.175601    29A     -0.161124

    Virtual:

      30A      0.295694    31A      0.327999    32A      0.340274
      33A      0.346817    34A      0.373213    35A      0.390164
      36A      0.392146    37A      0.412630    38A      0.421578
      39A      0.433282    40A      0.462367    41A      0.479526
      42A      0.502076    43A      0.555301    44A      0.572671
      45A      0.659835    46A      0.696940    47A      0.711734
      48A      0.729803    49A      0.756738    50A      0.771237
      51A      0.810545    52A      0.835504    53A      0.855061
      54A      0.883909    55A      0.932587    56A      0.950882
      57A      0.959583    58A      0.969343    59A      0.989423
      60A      1.005658    61A      1.014449    62A      1.023045
      63A      1.023609    64A      1.030344    65A      1.039805
      66A      1.044496    67A      1.061243    68A      1.068347
      69A      1.097411    70A      1.099693    71A      1.106123
      72A      1.129523    73A      1.201938    74A      1.229843
      75A      1.240763    76A      1.308768    77A      1.339258
      78A      1.358390    79A      1.393543    80A      1.508060
      81A      1.552706    82A      1.575600    83A      1.582762
      84A      1.597933    85A      1.598805    86A      1.632972
      87A      1.671180    88A      1.678584    89A      1.725527
      90A      1.746272    91A      1.748212    92A      1.755641
      93A      1.823785    94A      1.841680    95A      1.844939
      96A      1.856431    97A      1.950243    98A      1.970807
      99A      1.996859   100A      2.022682   101A      2.024819
     102A      2.048224   103A      2.067453   104A      2.070432
     105A      2.086028   106A      2.090880   107A      2.121066
     108A      2.128904   109A      2.143937   110A      2.153895
     111A      2.177760   112A      2.194503   113A      2.218714
     114A      2.269769   115A      2.271221   116A      2.349590
     117A      2.360588   118A      2.387373   119A      2.412384
     120A      2.434044   121A      2.449509   122A      2.471648
     123A      2.530316   124A      2.564085   125A      2.585519
     126A      2.637787   127A      2.669067   128A      2.686307
     129A      2.718200   130A      2.729062   131A      2.762648
     132A      2.830814   133A      2.872956   134A      2.891600
     135A      2.899099   136A      2.919770   137A      2.959082
     138A      2.964950   139A      2.974375   140A      2.980098
     141A      3.030509   142A      3.073141   143A      3.191078
     144A      3.243523   145A      3.269401   146A      3.295658
     147A      3.352667   148A      3.597150   149A      3.765471
     150A      3.831158   151A      4.015467   152A      4.062415
     153A      4.154759

    Final Occupation by Irrep:
              A
    DOCC [    29 ]

  @RHF Final Energy:  -345.49491316016162

   => Energetics <=

    Nuclear Repulsion Energy =            289.7929689197937932
    One-Electron Energy =               -1056.3808687267937785
    Two-Electron Energy =                 421.0929866468383693
    Total Energy =                       -345.4949131601616159

Computation Completed

Properties will be evaluated at   0.000000,   0.000000,   0.000000 [a0]

Properties computed using the SCF density matrix

  Nuclear Dipole Moment: [e a0]
     X:    -1.2722      Y:    -4.0990      Z:    12.5471

  Electronic Dipole Moment: [e a0]
     X:     0.7886      Y:     3.3725      Z:    -9.9476

  Dipole Moment: [e a0]
     X:    -0.4836      Y:    -0.7264      Z:     2.5995     Total:     2.7421

  Dipole Moment: [D]
     X:    -1.2291      Y:    -1.8464      Z:     6.6073     Total:     6.9696

*** tstop() called on ds3 at Tue Apr 28 04:57:21 2020
Module time:
	user time   =      22.51 seconds =       0.38 minutes
	system time =       8.97 seconds =       0.15 minutes
	total time  =         96 seconds =       1.60 minutes
Total time:
	user time   =      22.51 seconds =       0.38 minutes
	system time =       8.97 seconds =       0.15 minutes
	total time  =         96 seconds =       1.60 minutes
                                     G D M A

                                 by Anthony Stone

                           version 2.2.06, 22 June 2011

               Distributed Multipoles from Gaussian wavefunctions

Starting at 4:57:21 on 28 Apr 2020

Using SCF density matrix from file ./SSI/SSI-044PRO-053ASP-1-dimer.test.27891.fchk

                         Distributed Multipole Analysis

Standard DMA

Positions and radii in angstrom
Multipole moments in atomic units, ea_0^k for rank k

C          x =  0.699853  y = -0.911502  z =  1.504841 angstrom
           Maximum rank =  0   Radius =  0.650 angstrom
                   Q00  =  -0.003835

C          x =  1.373853  y = -2.110502  z =  2.092841 angstrom
           Maximum rank =  0   Radius =  0.650 angstrom
                   Q00  =  -0.215891

C          x = -0.268147  y = -0.442502  z =  2.615841 angstrom
           Maximum rank =  0   Radius =  0.650 angstrom
                   Q00  =  -0.261621

H          x =  0.165853  y = -1.221502  z =  0.606841 angstrom
           Maximum rank =  0   Radius =  0.325 angstrom
                   Q00  =   0.069614

H          x =  1.418853  y = -0.131502  z =  1.259841 angstrom
           Maximum rank =  0   Radius =  0.325 angstrom
                   Q00  =   0.055733

H          x =  1.788853  y = -2.767502  z =  1.333841 angstrom
           Maximum rank =  0   Radius =  0.325 angstrom
                   Q00  =   0.078087

H          x =  2.170853  y = -1.782502  z =  2.761841 angstrom
           Maximum rank =  0   Radius =  0.325 angstrom
                   Q00  =   0.044945

H          x =  0.180853  y =  0.366498  z =  3.193841 angstrom
           Maximum rank =  0   Radius =  0.325 angstrom
                   Q00  =   0.071158

H          x =  0.586073  y = -2.600712  z =  2.683681 angstrom
           Maximum rank =  0   Radius =  0.325 angstrom
                   Q00  =   0.027417

H          x = -0.400337  y = -1.336092  z =  3.243551 angstrom
           Maximum rank =  0   Radius =  0.325 angstrom
                   Q00  =   0.035998

H          x = -1.242287  y = -0.145052  z =  2.200421 angstrom
           Maximum rank =  0   Radius =  0.325 angstrom
                   Q00  =   0.089255

C          x = -1.688147  y =  1.561498  z = -1.360159 angstrom
           Maximum rank =  0   Radius =  0.650 angstrom
                   Q00  =  -0.282242

C          x = -0.368147  y =  0.812498  z = -1.569159 angstrom
           Maximum rank =  0   Radius =  0.650 angstrom
                   Q00  =   0.964749

O          x =  0.694853  y =  1.493498  z = -1.385159 angstrom
           Maximum rank =  0   Radius =  0.650 angstrom
                   Q00  =  -0.936132

O          x = -0.421147  y = -0.399502  z = -1.923159 angstrom
           Maximum rank =  0   Radius =  0.650 angstrom
                   Q00  =  -0.918152

H          x = -1.551147  y =  2.292498  z = -0.561159 angstrom
           Maximum rank =  0   Radius =  0.325 angstrom
                   Q00  =   0.055225

H          x = -2.468147  y =  0.863498  z = -1.048159 angstrom
           Maximum rank =  0   Radius =  0.325 angstrom
                   Q00  =   0.047740

H          x = -2.007887  y =  2.084378  z = -2.273589 angstrom
           Maximum rank =  0   Radius =  0.325 angstrom
                   Q00  =   0.077951

Total multipoles referred to origin at
           x =   0.000000,  y =    0.000000,  z =    0.000000 angstrom
                   Q00  =  -1.000000

Finished at 4:57:21 on 28 Apr 2020

  DMA results are available in the Python driver through the
	  variable('DMA DISTRIBUTED MULTIPOLES')
  and
	  variable('DMA TOTAL MULTIPOLES')
  commands.

    Psi4 stopped on: Tuesday, 28 April 2020 04:57AM
    Psi4 wall time for execution: 0:01:36.06

*** Psi4 exiting successfully. Buy a developer a beer!
