                               Psi4 1.3.2 release

  ==> Input File <==

--------------------------------------------------------------------------
import numpy as np
set {scf_type pk
basis cc-pvdz
d_convergence 10
gdma_switch   0
gdma_limit    0
gdma_origin   [ 0.0,  0.0,  0.0 ]
}
molecule test {
    units Angstrom
    0 1
    --
    0 1
    C               -0.756943921203054    -1.160505170500911    -2.354326289576872
    C               -0.943943921203054    -0.455505170500911     1.358673710423128
    C               -1.212943921203055     0.906494829499089     1.407673710423128
    C               -0.802943921203054    -1.091505170500911     0.130673710423128
    C               -0.940943921203054    -0.390505170500911    -1.068326289576872
    C               -1.342943921203055     1.627494829499089     0.220673710423128
    C               -1.196943921203054     0.984494829499089    -1.016326289576872
    H               -0.868943921203054    -1.028505170500911     2.268673710423128
    H               -1.325943921203054     1.404494829499089     2.361673710423128
    H               -0.596943921203054    -2.152505170500911     0.108673710423128
    H               -1.548943921203054     2.688494829499088     0.257673710423128
    H               -1.366943921203054    -2.063505170500911    -2.299326289576872
    H                0.286056078796946    -1.465505170500911    -2.391326289576872
    H               -1.258943921203055     1.572494829499089    -1.904326289576872
    H               -0.981460521203054    -0.633285170500911    -3.293276289576872
    C                2.808056078796946     0.289494829499089     1.250673710423128
    C                3.456056078796946    -0.505505170500911     0.127673710423128
    H                1.891056078796945     0.767494829499089     0.907673710423128
    H                2.555056078796946    -0.385505170500911     2.068673710423128
    H                3.504056078796946     1.040494829499089     1.619673710423128
    H                2.721056078796946    -1.207505170500911    -0.260326289576872
    H                4.267056078796945    -1.075505170500911     0.580673710423128
    H                3.838756078796946     0.103954829499089    -0.704252289576872

}
e, wfn = energy('scf', return_wfn=True)
gdma(wfn)
dmavals = variable('DMA DISTRIBUTED MULTIPOLES')
charges = np.array(dmavals)
print(charges)
np.save('SSI-012PHE-163ILE-1-dimer.npy', np.array(charges))--------------------------------------------------------------------------

*** tstart() called on ds3
*** at Mon Apr 27 11:35:23 2020

   => Loading Basis Set <=

    Name: CC-PVDZ
    Role: ORBITAL
    Keyword: BASIS
    atoms 1-7, 16-17  entry C          line   138 file /theoryfs2/ds/metcalf/miniconda2/envs/tf2gpu/share/psi4/basis/cc-pvdz.gbs
    atoms 8-15, 18-23 entry H          line    22 file /theoryfs2/ds/metcalf/miniconda2/envs/tf2gpu/share/psi4/basis/cc-pvdz.gbs

         ---------------------------------------------------------
                                   SCF
               by Justin Turney, Rob Parrish, Andy Simmonett
                          and Daniel G. A. Smith
                              RHF Reference
                        1 Threads,    500 MiB Core
         ---------------------------------------------------------

  ==> Geometry <==

    Molecular point group: c1
    Full point group: C1

    Geometry (in Angstrom), charge = 0, multiplicity = 1:

       Center              X                  Y                   Z               Mass
    ------------   -----------------  -----------------  -----------------  -----------------
         C           -0.756943921203    -1.160505170501    -2.354326289577    12.000000000000
         C           -0.943943921203    -0.455505170501     1.358673710423    12.000000000000
         C           -1.212943921203     0.906494829499     1.407673710423    12.000000000000
         C           -0.802943921203    -1.091505170501     0.130673710423    12.000000000000
         C           -0.940943921203    -0.390505170501    -1.068326289577    12.000000000000
         C           -1.342943921203     1.627494829499     0.220673710423    12.000000000000
         C           -1.196943921203     0.984494829499    -1.016326289577    12.000000000000
         H           -0.868943921203    -1.028505170501     2.268673710423     1.007825032230
         H           -1.325943921203     1.404494829499     2.361673710423     1.007825032230
         H           -0.596943921203    -2.152505170501     0.108673710423     1.007825032230
         H           -1.548943921203     2.688494829499     0.257673710423     1.007825032230
         H           -1.366943921203    -2.063505170501    -2.299326289577     1.007825032230
         H            0.286056078797    -1.465505170501    -2.391326289577     1.007825032230
         H           -1.258943921203     1.572494829499    -1.904326289577     1.007825032230
         H           -0.981460521203    -0.633285170501    -3.293276289577     1.007825032230
         C            2.808056078797     0.289494829499     1.250673710423    12.000000000000
         C            3.456056078797    -0.505505170501     0.127673710423    12.000000000000
         H            1.891056078797     0.767494829499     0.907673710423     1.007825032230
         H            2.555056078797    -0.385505170501     2.068673710423     1.007825032230
         H            3.504056078797     1.040494829499     1.619673710423     1.007825032230
         H            2.721056078797    -1.207505170501    -0.260326289577     1.007825032230
         H            4.267056078797    -1.075505170501     0.580673710423     1.007825032230
         H            3.838756078797     0.103954829499    -0.704252289577     1.007825032230

  Running in c1 symmetry.

  Rotational constants: A =      0.05601  B =      0.03304  C =      0.02615 [cm^-1]
  Rotational constants: A =   1679.01043  B =    990.52050  C =    783.90421 [MHz]
  Nuclear repulsion =  414.661237383934065

  Charge       = 0
  Multiplicity = 1
  Electrons    = 68
  Nalpha       = 34
  Nbeta        = 34

  ==> Algorithm <==

  SCF Algorithm Type is PK.
  DIIS enabled.
  MOM disabled.
  Fractional occupation disabled.
  Guess Type is SAD.
  Energy threshold   = 1.00e-06
  Density threshold  = 1.00e-10
  Integral threshold = 0.00e+00

  ==> Primary Basis <==

  Basis Set: CC-PVDZ
    Blend: CC-PVDZ
    Number of shells: 96
    Number of basis function: 196
    Number of Cartesian functions: 205
    Spherical Harmonics?: true
    Max angular momentum: 2

  ==> Pre-Iterations <==

   -------------------------------------------------------
    Irrep   Nso     Nmo     Nalpha   Nbeta   Ndocc  Nsocc
   -------------------------------------------------------
     A        196     196       0       0       0       0
   -------------------------------------------------------
    Total     196     196      34      34      34       0
   -------------------------------------------------------

  ==> Integral Setup <==

  Using integral reordering PK algorithm.
  Sizing the integral batches needed.
  Building batch lookup table.
   Calculation information:
      Number of atoms:                  23
      Number of AO shells:              96
      Number of primitives:            268
      Number of atomic orbitals:       205
      Number of basis functions:       196

      Integral cutoff                 1.00e-12
      Number of threads:                 1

	Batch   1 pq = [       0,    9405] index = [             0,44231715] size =     44231715
	Batch   2 pq = [    9405,   13301] index = [      44231715,88464951] size =     44233236
	Batch   3 pq = [   13301,   16290] index = [      88464951,132690195] size =     44225244
	Batch   4 pq = [   16290,   18810] index = [     132690195,176917455] size =     44227260
	Batch   5 pq = [   18810,   19306] index = [     176917455,186370471] size =      9453016
  Task number: 17
  Buffer size: 11059200
  Buffer per thread: 2
  We computed 10347437 shell quartets total.
  Whereas there are 10841496 unique shell quartets.

  ==> DiskJK: Disk-Based J/K Matrices <==

    J tasked:                  Yes
    K tasked:                  Yes
    wK tasked:                  No
    Memory [MiB]:              375
    Schwarz Cutoff:          1E-12

    OpenMP threads:              1

  Minimum eigenvalue in the overlap matrix is 3.1618929901E-04.
  Using Symmetric Orthogonalization.

  SCF Guess: Superposition of Atomic Densities via on-the-fly atomic UHF.

  ==> Iterations <==

                        Total Energy        Delta E     RMS |[F,P]|

   @RHF iter SAD:  -347.84858673650615   -3.47849e+02   0.00000e+00
   @RHF iter   1:  -348.76615018518584   -9.17563e-01   2.89833e-03 DIIS
   @RHF iter   2:  -348.95848221912723   -1.92332e-01   1.20609e-03 DIIS
   @RHF iter   3:  -348.98881583428141   -3.03336e-02   2.58336e-04 DIIS
   @RHF iter   4:  -348.99128532643834   -2.46949e-03   5.34863e-05 DIIS
   @RHF iter   5:  -348.99136005644164   -7.47300e-05   1.83787e-05 DIIS
   @RHF iter   6:  -348.99136832323921   -8.26680e-06   4.92594e-06 DIIS
   @RHF iter   7:  -348.99136903885829   -7.15619e-07   1.29563e-06 DIIS
   @RHF iter   8:  -348.99136910513852   -6.62802e-08   3.69294e-07 DIIS
   @RHF iter   9:  -348.99136911766084   -1.25223e-08   1.71930e-07 DIIS
   @RHF iter  10:  -348.99136912091444   -3.25360e-09   8.17617e-08 DIIS
   @RHF iter  11:  -348.99136912186458   -9.50138e-10   3.05632e-08 DIIS
   @RHF iter  12:  -348.99136912196286   -9.82823e-11   1.30578e-08 DIIS
   @RHF iter  13:  -348.99136912197253   -9.66338e-12   3.89212e-09 DIIS
   @RHF iter  14:  -348.99136912197508   -2.55795e-12   9.42004e-10 DIIS
   @RHF iter  15:  -348.99136912197429    7.95808e-13   3.00415e-10 DIIS
   @RHF iter  16:  -348.99136912197383    4.54747e-13   7.70966e-11 DIIS
  Energy and wave function converged.

  ==> Post-Iterations <==

    Orbital Energies [Eh]
    ---------------------

    Doubly Occupied:

       1A    -11.244484     2A    -11.237338     3A    -11.235475
       4A    -11.232079     5A    -11.231270     6A    -11.230975
       7A    -11.230161     8A    -11.210756     9A    -11.206202
      10A     -1.151788    11A     -1.044343    12A     -1.013122
      13A     -1.011153    14A     -0.932319    15A     -0.828702
      16A     -0.824612    17A     -0.796590    18A     -0.691560
      19A     -0.632284    20A     -0.629823    21A     -0.593729
      22A     -0.590660    23A     -0.582958    24A     -0.576681
      25A     -0.564742    26A     -0.536664    27A     -0.496420
      28A     -0.488377    29A     -0.486085    30A     -0.482366
      31A     -0.476695    32A     -0.472058    33A     -0.332073
      34A     -0.321362

    Virtual:

      35A      0.132306    36A      0.142102    37A      0.170339
      38A      0.195565    39A      0.202925    40A      0.217112
      41A      0.235867    42A      0.245139    43A      0.254229
      44A      0.259184    45A      0.263674    46A      0.275194
      47A      0.282033    48A      0.290070    49A      0.304765
      50A      0.331961    51A      0.367931    52A      0.375166
      53A      0.405285    54A      0.450734    55A      0.461026
      56A      0.469913    57A      0.496103    58A      0.557888
      59A      0.581442    60A      0.598865    61A      0.600623
      62A      0.614048    63A      0.625571    64A      0.654218
      65A      0.676851    66A      0.690132    67A      0.699138
      68A      0.706446    69A      0.738201    70A      0.741270
      71A      0.743439    72A      0.752685    73A      0.758218
      74A      0.781492    75A      0.802812    76A      0.823181
      77A      0.845892    78A      0.851254    79A      0.856443
      80A      0.866481    81A      0.871372    82A      0.886173
      83A      0.891903    84A      0.897851    85A      0.901815
      86A      0.910500    87A      0.914339    88A      0.925666
      89A      0.930970    90A      0.939889    91A      0.954144
      92A      0.985270    93A      0.996700    94A      1.004758
      95A      1.026010    96A      1.077758    97A      1.116551
      98A      1.130869    99A      1.135067   100A      1.140504
     101A      1.154073   102A      1.156843   103A      1.205831
     104A      1.218528   105A      1.241627   106A      1.247723
     107A      1.251674   108A      1.270407   109A      1.283627
     110A      1.307019   111A      1.314549   112A      1.331765
     113A      1.427665   114A      1.471347   115A      1.498794
     116A      1.510612   117A      1.527933   118A      1.568619
     119A      1.579677   120A      1.599576   121A      1.672161
     122A      1.686339   123A      1.692000   124A      1.704432
     125A      1.734457   126A      1.740851   127A      1.766898
     128A      1.795005   129A      1.819472   130A      1.837932
     131A      1.863933   132A      1.876641   133A      1.883265
     134A      1.890086   135A      1.896685   136A      1.913087
     137A      1.919768   138A      1.931011   139A      1.946137
     140A      1.948002   141A      1.954274   142A      1.959503
     143A      1.965313   144A      1.972716   145A      1.979608
     146A      1.988250   147A      1.999601   148A      2.007585
     149A      2.032662   150A      2.053217   151A      2.081251
     152A      2.104124   153A      2.107361   154A      2.134560
     155A      2.148674   156A      2.155748   157A      2.167662
     158A      2.177835   159A      2.197500   160A      2.243606
     161A      2.273210   162A      2.275165   163A      2.298693
     164A      2.307018   165A      2.320742   166A      2.324820
     167A      2.382477   168A      2.447207   169A      2.461686
     170A      2.467093   171A      2.480338   172A      2.499212
     173A      2.533054   174A      2.568891   175A      2.597511
     176A      2.642508   177A      2.717499   178A      2.747246
     179A      2.769037   180A      2.780795   181A      2.791432
     182A      2.808256   183A      2.816043   184A      2.844779
     185A      2.855164   186A      2.862853   187A      2.878396
     188A      2.965832   189A      2.975336   190A      2.984491
     191A      3.009205   192A      3.043814   193A      3.166285
     194A      3.200230   195A      3.300631   196A      3.959746

    Final Occupation by Irrep:
              A
    DOCC [    34 ]

  @RHF Final Energy:  -348.99136912197383

   => Energetics <=

    Nuclear Repulsion Energy =            414.6612373839340648
    One-Electron Energy =               -1292.0734009025336491
    Two-Electron Energy =                 528.4207943966256380
    Total Energy =                       -348.9913691219738894

Computation Completed

Properties will be evaluated at   0.000000,   0.000000,   0.000000 [a0]

Properties computed using the SCF density matrix

  Nuclear Dipole Moment: [e a0]
     X:    10.4199      Y:    -2.2822      Z:    -0.6370

  Electronic Dipole Moment: [e a0]
     X:   -10.4731      Y:     2.2134      Z:     0.5223

  Dipole Moment: [e a0]
     X:    -0.0532      Y:    -0.0688      Z:    -0.1147     Total:     0.1439

  Dipole Moment: [D]
     X:    -0.1352      Y:    -0.1748      Z:    -0.2915     Total:     0.3658

*** tstop() called on ds3 at Mon Apr 27 11:42:17 2020
Module time:
	user time   =      70.90 seconds =       1.18 minutes
	system time =      23.69 seconds =       0.39 minutes
	total time  =        414 seconds =       6.90 minutes
Total time:
	user time   =      70.90 seconds =       1.18 minutes
	system time =      23.69 seconds =       0.39 minutes
	total time  =        414 seconds =       6.90 minutes
                                     G D M A

                                 by Anthony Stone

                           version 2.2.06, 22 June 2011

               Distributed Multipoles from Gaussian wavefunctions

Starting at 11:42:17 on 27 Apr 2020

Using SCF density matrix from file ./SSI/SSI-012PHE-163ILE-1-dimer.test.3022.fchk

                         Distributed Multipole Analysis

Standard DMA

Positions and radii in angstrom
Multipole moments in atomic units, ea_0^k for rank k

C          x = -0.756944  y = -1.160505  z = -2.354326 angstrom
           Maximum rank =  0   Radius =  0.650 angstrom
                   Q00  =  -0.209159

C          x = -0.943944  y = -0.455505  z =  1.358674 angstrom
           Maximum rank =  0   Radius =  0.650 angstrom
                   Q00  =  -0.063780

C          x = -1.212944  y =  0.906495  z =  1.407674 angstrom
           Maximum rank =  0   Radius =  0.650 angstrom
                   Q00  =  -0.089426

C          x = -0.802944  y = -1.091505  z =  0.130674 angstrom
           Maximum rank =  0   Radius =  0.650 angstrom
                   Q00  =  -0.004044

C          x = -0.940944  y = -0.390505  z = -1.068326 angstrom
           Maximum rank =  0   Radius =  0.650 angstrom
                   Q00  =  -0.088486

C          x = -1.342944  y =  1.627495  z =  0.220674 angstrom
           Maximum rank =  0   Radius =  0.650 angstrom
                   Q00  =  -0.065542

C          x = -1.196944  y =  0.984495  z = -1.016326 angstrom
           Maximum rank =  0   Radius =  0.650 angstrom
                   Q00  =  -0.088521

H          x = -0.868944  y = -1.028505  z =  2.268674 angstrom
           Maximum rank =  0   Radius =  0.325 angstrom
                   Q00  =   0.065018

H          x = -1.325944  y =  1.404495  z =  2.361674 angstrom
           Maximum rank =  0   Radius =  0.325 angstrom
                   Q00  =   0.062191

H          x = -0.596944  y = -2.152505  z =  0.108674 angstrom
           Maximum rank =  0   Radius =  0.325 angstrom
                   Q00  =   0.053675

H          x = -1.548944  y =  2.688495  z =  0.257674 angstrom
           Maximum rank =  0   Radius =  0.325 angstrom
                   Q00  =   0.066290

H          x = -1.366944  y = -2.063505  z = -2.299326 angstrom
           Maximum rank =  0   Radius =  0.325 angstrom
                   Q00  =   0.100193

H          x =  0.286056  y = -1.465505  z = -2.391326 angstrom
           Maximum rank =  0   Radius =  0.325 angstrom
                   Q00  =   0.101928

H          x = -1.258944  y =  1.572495  z = -1.904326 angstrom
           Maximum rank =  0   Radius =  0.325 angstrom
                   Q00  =   0.059336

H          x = -0.981461  y = -0.633285  z = -3.293276 angstrom
           Maximum rank =  0   Radius =  0.325 angstrom
                   Q00  =   0.102633

C          x =  2.808056  y =  0.289495  z =  1.250674 angstrom
           Maximum rank =  0   Radius =  0.650 angstrom
                   Q00  =  -0.230868

C          x =  3.456056  y = -0.505505  z =  0.127674 angstrom
           Maximum rank =  0   Radius =  0.650 angstrom
                   Q00  =  -0.233781

H          x =  1.891056  y =  0.767495  z =  0.907674 angstrom
           Maximum rank =  0   Radius =  0.325 angstrom
                   Q00  =   0.092563

H          x =  2.555056  y = -0.385505  z =  2.068674 angstrom
           Maximum rank =  0   Radius =  0.325 angstrom
                   Q00  =   0.073275

H          x =  3.504056  y =  1.040495  z =  1.619674 angstrom
           Maximum rank =  0   Radius =  0.325 angstrom
                   Q00  =   0.071469

H          x =  2.721056  y = -1.207505  z = -0.260326 angstrom
           Maximum rank =  0   Radius =  0.325 angstrom
                   Q00  =   0.075481

H          x =  4.267056  y = -1.075505  z =  0.580674 angstrom
           Maximum rank =  0   Radius =  0.325 angstrom
                   Q00  =   0.069957

H          x =  3.838756  y =  0.103955  z = -0.704252 angstrom
           Maximum rank =  0   Radius =  0.325 angstrom
                   Q00  =   0.079598

Total multipoles referred to origin at
           x =   0.000000,  y =    0.000000,  z =    0.000000 angstrom
                   Q00  =  -0.000000

Finished at 11:42:17 on 27 Apr 2020

  DMA results are available in the Python driver through the
	  variable('DMA DISTRIBUTED MULTIPOLES')
  and
	  variable('DMA TOTAL MULTIPOLES')
  commands.

    Psi4 stopped on: Monday, 27 April 2020 11:42AM
    Psi4 wall time for execution: 0:06:54.31

*** Psi4 exiting successfully. Buy a developer a beer!
