                               Psi4 1.3.2 release

  ==> Input File <==

--------------------------------------------------------------------------
import numpy as np
set {scf_type pk
basis cc-pvdz
d_convergence 10
gdma_switch   0
gdma_limit    0
gdma_origin   [ 0.0,  0.0,  0.0 ]
}
molecule test {
    units Angstrom
    0 1
    --
    0 1
    C                2.655010518916531    -0.493971157507603    -0.882463722288479
    C                1.440010518916531    -0.042971157507603    -1.660463722288479
    C               -0.670989481083468     0.492028842492397    -2.029463722288479
    C                1.304010518916532     0.262028842492397    -2.977463722288479
    N                0.187010518916532     0.113028842492397    -1.085463722288480
    N               -0.016989481083468     0.603028842492397    -3.182463722288479
    H               -1.716989481083469     0.730028842492397    -1.874463722288479
    H                2.617010518916532    -1.576971157507603    -0.775463722288479
    H                2.555010518916532    -0.065971157507603     0.115536277711521
    H               -0.430989481083468     0.900028842492397    -4.060463722288479
    H                2.089010518916531     0.232028842492397    -3.723463722288479
    H                3.633200518916532    -0.194131157507603    -1.286493722288479
    C               -1.576989481083469    -1.441971157507603     3.357536277711521
    C               -1.136989481083468    -0.138971157507603     2.767536277711521
    O               -0.715989481083468     0.761028842492397     3.487536277711520
    N               -1.191989481083469    -0.029971157507603     1.445536277711521
    H               -0.760989481083468     0.771028842492397     1.009536277711521
    H               -1.395989481083468    -0.831971157507603     0.875536277711521
    H               -1.735989481083469    -1.338971157507603     4.419536277711520
    H               -0.774989481083468    -2.157971157507603     3.227536277711521
    H               -2.496539481083468    -1.839081157507603     2.902866277711521

}
e, wfn = energy('scf', return_wfn=True)
gdma(wfn)
dmavals = variable('DMA DISTRIBUTED MULTIPOLES')
charges = np.array(dmavals)
print(charges)
np.save('SSI-093HIE-118GLN-1-dimer.npy', np.array(charges))--------------------------------------------------------------------------

*** tstart() called on ds3
*** at Mon Apr 27 21:07:43 2020

   => Loading Basis Set <=

    Name: CC-PVDZ
    Role: ORBITAL
    Keyword: BASIS
    atoms 1-4, 13-14  entry C          line   138 file /theoryfs2/ds/metcalf/miniconda2/envs/tf2gpu/share/psi4/basis/cc-pvdz.gbs
    atoms 5-6, 16     entry N          line   168 file /theoryfs2/ds/metcalf/miniconda2/envs/tf2gpu/share/psi4/basis/cc-pvdz.gbs
    atoms 7-12, 17-21 entry H          line    22 file /theoryfs2/ds/metcalf/miniconda2/envs/tf2gpu/share/psi4/basis/cc-pvdz.gbs
    atoms 15          entry O          line   198 file /theoryfs2/ds/metcalf/miniconda2/envs/tf2gpu/share/psi4/basis/cc-pvdz.gbs

         ---------------------------------------------------------
                                   SCF
               by Justin Turney, Rob Parrish, Andy Simmonett
                          and Daniel G. A. Smith
                              RHF Reference
                        1 Threads,    500 MiB Core
         ---------------------------------------------------------

  ==> Geometry <==

    Molecular point group: c1
    Full point group: C1

    Geometry (in Angstrom), charge = 0, multiplicity = 1:

       Center              X                  Y                   Z               Mass
    ------------   -----------------  -----------------  -----------------  -----------------
         C            2.655010518917    -0.493971157508    -0.882463722288    12.000000000000
         C            1.440010518917    -0.042971157508    -1.660463722288    12.000000000000
         C           -0.670989481083     0.492028842492    -2.029463722288    12.000000000000
         C            1.304010518917     0.262028842492    -2.977463722288    12.000000000000
         N            0.187010518917     0.113028842492    -1.085463722288    14.003074004430
         N           -0.016989481083     0.603028842492    -3.182463722288    14.003074004430
         H           -1.716989481083     0.730028842492    -1.874463722288     1.007825032230
         H            2.617010518917    -1.576971157508    -0.775463722288     1.007825032230
         H            2.555010518917    -0.065971157508     0.115536277712     1.007825032230
         H           -0.430989481083     0.900028842492    -4.060463722288     1.007825032230
         H            2.089010518917     0.232028842492    -3.723463722288     1.007825032230
         H            3.633200518917    -0.194131157508    -1.286493722288     1.007825032230
         C           -1.576989481083    -1.441971157508     3.357536277712    12.000000000000
         C           -1.136989481083    -0.138971157508     2.767536277712    12.000000000000
         O           -0.715989481083     0.761028842492     3.487536277712    15.994914619570
         N           -1.191989481083    -0.029971157508     1.445536277712    14.003074004430
         H           -0.760989481083     0.771028842492     1.009536277712     1.007825032230
         H           -1.395989481083    -0.831971157508     0.875536277712     1.007825032230
         H           -1.735989481083    -1.338971157508     4.419536277712     1.007825032230
         H           -0.774989481083    -2.157971157508     3.227536277712     1.007825032230
         H           -2.496539481083    -1.839081157508     2.902866277712     1.007825032230

  Running in c1 symmetry.

  Rotational constants: A =      0.08382  B =      0.01607  C =      0.01461 [cm^-1]
  Rotational constants: A =   2512.97092  B =    481.72251  C =    437.97422 [MHz]
  Nuclear repulsion =  492.044809744859037

  Charge       = 0
  Multiplicity = 1
  Electrons    = 76
  Nalpha       = 38
  Nbeta        = 38

  ==> Algorithm <==

  SCF Algorithm Type is PK.
  DIIS enabled.
  MOM disabled.
  Fractional occupation disabled.
  Guess Type is SAD.
  Energy threshold   = 1.00e-06
  Density threshold  = 1.00e-10
  Integral threshold = 0.00e+00

  ==> Primary Basis <==

  Basis Set: CC-PVDZ
    Blend: CC-PVDZ
    Number of shells: 93
    Number of basis function: 195
    Number of Cartesian functions: 205
    Spherical Harmonics?: true
    Max angular momentum: 2

  ==> Pre-Iterations <==

   -------------------------------------------------------
    Irrep   Nso     Nmo     Nalpha   Nbeta   Ndocc  Nsocc
   -------------------------------------------------------
     A        195     195       0       0       0       0
   -------------------------------------------------------
    Total     195     195      38      38      38       0
   -------------------------------------------------------

  ==> Integral Setup <==

  Using integral reordering PK algorithm.
  Sizing the integral batches needed.
  Building batch lookup table.
   Calculation information:
      Number of atoms:                  21
      Number of AO shells:              93
      Number of primitives:            275
      Number of atomic orbitals:       205
      Number of basis functions:       195

      Integral cutoff                 1.00e-12
      Number of threads:                 1

	Batch   1 pq = [       0,    9405] index = [             0,44231715] size =     44231715
	Batch   2 pq = [    9405,   13301] index = [      44231715,88464951] size =     44233236
	Batch   3 pq = [   13301,   16290] index = [      88464951,132690195] size =     44225244
	Batch   4 pq = [   16290,   18810] index = [     132690195,176917455] size =     44227260
	Batch   5 pq = [   18810,   19110] index = [     176917455,182605605] size =      5688150
  Task number: 17
  Buffer size: 11059200
  Buffer per thread: 2
  We computed 7006664 shell quartets total.
  Whereas there are 9555006 unique shell quartets.

  ==> DiskJK: Disk-Based J/K Matrices <==

    J tasked:                  Yes
    K tasked:                  Yes
    wK tasked:                  No
    Memory [MiB]:              375
    Schwarz Cutoff:          1E-12

    OpenMP threads:              1

  Minimum eigenvalue in the overlap matrix is 1.1654208064E-03.
  Using Symmetric Orthogonalization.

  SCF Guess: Superposition of Atomic Densities via on-the-fly atomic UHF.

  ==> Iterations <==

                        Total Energy        Delta E     RMS |[F,P]|

   @RHF iter SAD:  -470.79636540215887   -4.70796e+02   0.00000e+00
   @RHF iter   1:  -471.59187575600788   -7.95510e-01   3.60557e-03 DIIS
   @RHF iter   2:  -471.80219024673863   -2.10314e-01   2.03388e-03 DIIS
   @RHF iter   3:  -471.86380990253451   -6.16197e-02   4.37731e-04 DIIS
   @RHF iter   4:  -471.86820580033981   -4.39590e-03   1.64793e-04 DIIS
   @RHF iter   5:  -471.86886824756499   -6.62447e-04   3.01250e-05 DIIS
   @RHF iter   6:  -471.86890994795226   -4.17004e-05   1.53987e-05 DIIS
   @RHF iter   7:  -471.86891903449481   -9.08654e-06   5.87369e-06 DIIS
   @RHF iter   8:  -471.86892092980901   -1.89531e-06   2.35138e-06 DIIS
   @RHF iter   9:  -471.86892120917298   -2.79364e-07   1.02360e-06 DIIS
   @RHF iter  10:  -471.86892125487816   -4.57052e-08   2.49416e-07 DIIS
   @RHF iter  11:  -471.86892125867593   -3.79777e-09   8.97258e-08 DIIS
   @RHF iter  12:  -471.86892125913505   -4.59124e-10   4.49408e-08 DIIS
   @RHF iter  13:  -471.86892125923754   -1.02489e-10   1.50414e-08 DIIS
   @RHF iter  14:  -471.86892125925328   -1.57456e-11   5.89193e-09 DIIS
   @RHF iter  15:  -471.86892125925027    3.01270e-12   2.30967e-09 DIIS
   @RHF iter  16:  -471.86892125925789   -7.61702e-12   6.86794e-10 DIIS
   @RHF iter  17:  -471.86892125925527    2.61480e-12   2.47315e-10 DIIS
   @RHF iter  18:  -471.86892125925345    1.81899e-12   7.86124e-11 DIIS
  Energy and wave function converged.

  ==> Post-Iterations <==

    Orbital Energies [Eh]
    ---------------------

    Doubly Occupied:

       1A    -20.480699     2A    -15.635273     3A    -15.553483
       4A    -15.547264     5A    -11.322130     6A    -11.310696
       7A    -11.263460     8A    -11.257737     9A    -11.234238
      10A    -11.220824    11A     -1.354335    12A     -1.345304
      13A     -1.187917    14A     -1.166999    15A     -1.042200
      16A     -0.985400    17A     -0.951866    18A     -0.831467
      19A     -0.781200    20A     -0.767879    21A     -0.754537
      22A     -0.695318    23A     -0.635353    24A     -0.623151
      25A     -0.616137    26A     -0.608346    27A     -0.595563
      28A     -0.561885    29A     -0.550415    30A     -0.548358
      31A     -0.539297    32A     -0.532772    33A     -0.499155
      34A     -0.431597    35A     -0.394347    36A     -0.388101
      37A     -0.375433    38A     -0.323516

    Virtual:

      39A      0.163800    40A      0.173567    41A      0.185344
      42A      0.196861    43A      0.210732    44A      0.212448
      45A      0.221329    46A      0.231031    47A      0.259506
      48A      0.262424    49A      0.270470    50A      0.287160
      51A      0.294092    52A      0.300510    53A      0.362690
      54A      0.377253    55A      0.400700    56A      0.426777
      57A      0.454938    58A      0.472072    59A      0.481666
      60A      0.568282    61A      0.587362    62A      0.609863
      63A      0.628213    64A      0.645176    65A      0.661115
      66A      0.679006    67A      0.682437    68A      0.693011
      69A      0.719215    70A      0.741079    71A      0.744986
      72A      0.756542    73A      0.761571    74A      0.762134
      75A      0.791958    76A      0.818166    77A      0.839117
      78A      0.859583    79A      0.864650    80A      0.878141
      81A      0.880256    82A      0.889793    83A      0.898194
      84A      0.919772    85A      0.922985    86A      0.934102
      87A      0.949916    88A      0.968746    89A      0.970619
      90A      0.997865    91A      1.018737    92A      1.026645
      93A      1.045734    94A      1.055091    95A      1.082533
      96A      1.122709    97A      1.129457    98A      1.140693
      99A      1.156024   100A      1.178557   101A      1.229607
     102A      1.257559   103A      1.287926   104A      1.294765
     105A      1.310911   106A      1.327660   107A      1.355884
     108A      1.364222   109A      1.404528   110A      1.411038
     111A      1.421245   112A      1.434178   113A      1.453899
     114A      1.470209   115A      1.484386   116A      1.513873
     117A      1.535943   118A      1.556533   119A      1.609202
     120A      1.633961   121A      1.674944   122A      1.681654
     123A      1.686752   124A      1.701241   125A      1.740058
     126A      1.770439   127A      1.797208   128A      1.812416
     129A      1.826514   130A      1.867858   131A      1.891520
     132A      1.900198   133A      1.901691   134A      1.906376
     135A      1.925861   136A      1.930157   137A      1.939272
     138A      1.953325   139A      1.975262   140A      1.976595
     141A      1.990485   142A      2.004211   143A      2.021169
     144A      2.038936   145A      2.069103   146A      2.092590
     147A      2.126438   148A      2.131943   149A      2.170065
     150A      2.195067   151A      2.207271   152A      2.221923
     153A      2.236505   154A      2.292292   155A      2.314562
     156A      2.359891   157A      2.367837   158A      2.409847
     159A      2.426776   160A      2.432547   161A      2.471572
     162A      2.479583   163A      2.508391   164A      2.529584
     165A      2.536160   166A      2.587973   167A      2.625458
     168A      2.685118   169A      2.690925   170A      2.714379
     171A      2.743793   172A      2.762809   173A      2.771131
     174A      2.779752   175A      2.791739   176A      2.809151
     177A      2.817006   178A      2.843826   179A      2.871725
     180A      2.906594   181A      2.924984   182A      2.947764
     183A      3.030566   184A      3.079660   185A      3.122543
     186A      3.141522   187A      3.167144   188A      3.216373
     189A      3.329078   190A      3.448729   191A      3.542673
     192A      3.575871   193A      3.773630   194A      3.889504
     195A      3.926151

    Final Occupation by Irrep:
              A
    DOCC [    38 ]

  @RHF Final Energy:  -471.86892125925345

   => Energetics <=

    Nuclear Repulsion Energy =            492.0448097448590374
    One-Electron Energy =               -1618.0001609575235761
    Two-Electron Energy =                 654.0864299534109705
    Total Energy =                       -471.8689212592535114

Computation Completed

Properties will be evaluated at   0.000000,   0.000000,   0.000000 [a0]

Properties computed using the SCF density matrix

  Nuclear Dipole Moment: [e a0]
     X:     1.4824      Y:    -5.0344      Z:     0.8032

  Electronic Dipole Moment: [e a0]
     X:    -1.7924      Y:     4.2762      Z:    -3.6534

  Dipole Moment: [e a0]
     X:    -0.3101      Y:    -0.7581      Z:    -2.8501     Total:     2.9655

  Dipole Moment: [D]
     X:    -0.7881      Y:    -1.9270      Z:    -7.2443     Total:     7.5375

*** tstop() called on ds3 at Mon Apr 27 21:10:12 2020
Module time:
	user time   =      56.10 seconds =       0.94 minutes
	system time =      27.77 seconds =       0.46 minutes
	total time  =        149 seconds =       2.48 minutes
Total time:
	user time   =      56.10 seconds =       0.94 minutes
	system time =      27.77 seconds =       0.46 minutes
	total time  =        149 seconds =       2.48 minutes
                                     G D M A

                                 by Anthony Stone

                           version 2.2.06, 22 June 2011

               Distributed Multipoles from Gaussian wavefunctions

Starting at 21:10:12 on 27 Apr 2020

Using SCF density matrix from file ./SSI/SSI-093HIE-118GLN-1-dimer.test.23957.fchk

                         Distributed Multipole Analysis

Standard DMA

Positions and radii in angstrom
Multipole moments in atomic units, ea_0^k for rank k

C          x =  2.655011  y = -0.493971  z = -0.882464 angstrom
           Maximum rank =  0   Radius =  0.650 angstrom
                   Q00  =  -0.203098

C          x =  1.440011  y = -0.042971  z = -1.660464 angstrom
           Maximum rank =  0   Radius =  0.650 angstrom
                   Q00  =   0.221228

C          x = -0.670989  y =  0.492029  z = -2.029464 angstrom
           Maximum rank =  0   Radius =  0.650 angstrom
                   Q00  =   0.461487

C          x =  1.304011  y =  0.262029  z = -2.977464 angstrom
           Maximum rank =  0   Radius =  0.650 angstrom
                   Q00  =   0.007754

N          x =  0.187011  y =  0.113029  z = -1.085464 angstrom
           Maximum rank =  0   Radius =  0.650 angstrom
                   Q00  =  -0.808296

N          x = -0.016989  y =  0.603029  z = -3.182464 angstrom
           Maximum rank =  0   Radius =  0.650 angstrom
                   Q00  =  -0.474191

H          x = -1.716989  y =  0.730029  z = -1.874464 angstrom
           Maximum rank =  0   Radius =  0.325 angstrom
                   Q00  =   0.126080

H          x =  2.617011  y = -1.576971  z = -0.775464 angstrom
           Maximum rank =  0   Radius =  0.325 angstrom
                   Q00  =   0.107141

H          x =  2.555011  y = -0.065971  z =  0.115536 angstrom
           Maximum rank =  0   Radius =  0.325 angstrom
                   Q00  =   0.124660

H          x = -0.430989  y =  0.900029  z = -4.060464 angstrom
           Maximum rank =  0   Radius =  0.325 angstrom
                   Q00  =   0.224864

H          x =  2.089011  y =  0.232029  z = -3.723464 angstrom
           Maximum rank =  0   Radius =  0.325 angstrom
                   Q00  =   0.106477

H          x =  3.633201  y = -0.194131  z = -1.286494 angstrom
           Maximum rank =  0   Radius =  0.325 angstrom
                   Q00  =   0.101073

C          x = -1.576989  y = -1.441971  z =  3.357536 angstrom
           Maximum rank =  0   Radius =  0.650 angstrom
                   Q00  =  -0.275156

C          x = -1.136989  y = -0.138971  z =  2.767536 angstrom
           Maximum rank =  0   Radius =  0.650 angstrom
                   Q00  =   0.845900

O          x = -0.715989  y =  0.761029  z =  3.487536 angstrom
           Maximum rank =  0   Radius =  0.650 angstrom
                   Q00  =  -0.807693

N          x = -1.191989  y = -0.029971  z =  1.445536 angstrom
           Maximum rank =  0   Radius =  0.650 angstrom
                   Q00  =  -0.522965

H          x = -0.760989  y =  0.771029  z =  1.009536 angstrom
           Maximum rank =  0   Radius =  0.325 angstrom
                   Q00  =   0.234627

H          x = -1.395989  y = -0.831971  z =  0.875536 angstrom
           Maximum rank =  0   Radius =  0.325 angstrom
                   Q00  =   0.199473

H          x = -1.735989  y = -1.338971  z =  4.419536 angstrom
           Maximum rank =  0   Radius =  0.325 angstrom
                   Q00  =   0.124324

H          x = -0.774989  y = -2.157971  z =  3.227536 angstrom
           Maximum rank =  0   Radius =  0.325 angstrom
                   Q00  =   0.118562

H          x = -2.496539  y = -1.839081  z =  2.902866 angstrom
           Maximum rank =  0   Radius =  0.325 angstrom
                   Q00  =   0.087750

Total multipoles referred to origin at
           x =   0.000000,  y =    0.000000,  z =    0.000000 angstrom
                   Q00  =  -0.000000

Finished at 21:10:12 on 27 Apr 2020

  DMA results are available in the Python driver through the
	  variable('DMA DISTRIBUTED MULTIPOLES')
  and
	  variable('DMA TOTAL MULTIPOLES')
  commands.

    Psi4 stopped on: Monday, 27 April 2020 09:10PM
    Psi4 wall time for execution: 0:02:28.83

*** Psi4 exiting successfully. Buy a developer a beer!
