                               Psi4 1.3.2 release

  ==> Input File <==

--------------------------------------------------------------------------
import numpy as np
set {scf_type pk
basis cc-pvdz
d_convergence 10
gdma_switch   0
gdma_limit    0
gdma_origin   [ 0.0,  0.0,  0.0 ]
}
molecule test {
    units Angstrom
    0 1
    --
    0 1
    C               -0.133453057962388    -2.393046740416260    -0.379611634187908
    C               -1.618453057962388    -2.215046740416260    -0.738611634187908
    H                0.169546942037612    -3.427046740416260    -0.548611634187908
    H                0.493546942037612    -1.761046740416260    -1.005611634187908
    H                0.042546942037612    -2.134046740416260     0.665388365812092
    H               -1.975453057962388    -1.259046740416260    -0.378611634187908
    H               -2.221253057962388    -3.016146740416260    -0.285974634187908
    H               -1.760363057962388    -2.195596740416260    -1.829245634187908
    C                0.394546942037612     1.010953259583740     1.327388365812092
    C               -1.102453057962388     0.930953259583740     1.566388365812093
    C                0.788546942037612     0.959953259583740    -0.138611634187908
    O                1.971546942037612     1.085953259583740    -0.458611634187908
    N               -0.167453057962388     0.756953259583740    -1.042611634187907
    H                0.769546942037612     1.943953259583740     1.750388365812092
    H                0.881546942037612     0.177953259583740     1.834388365812092
    H               -1.496453057962388     0.008953259583740     1.164388365812092
    H               -1.578453057962388     1.777953259583740     1.067388365812092
    H                0.103546942037612     0.759953259583740    -2.015611634187908
    H               -1.137453057962388     0.719953259583740    -0.780611634187908
    H               -1.354613057962388     0.967803259583740     2.636461365812093

}
e, wfn = energy('scf', return_wfn=True)
gdma(wfn)
dmavals = variable('DMA DISTRIBUTED MULTIPOLES')
charges = np.array(dmavals)
print(charges)
np.save('SSI-005VAL-008GLN-1-dimer.npy', np.array(charges))--------------------------------------------------------------------------

*** tstart() called on ds3
*** at Mon Apr 27 19:02:47 2020

   => Loading Basis Set <=

    Name: CC-PVDZ
    Role: ORBITAL
    Keyword: BASIS
    atoms 1-2, 9-11  entry C          line   138 file /theoryfs2/ds/metcalf/miniconda2/envs/tf2gpu/share/psi4/basis/cc-pvdz.gbs
    atoms 3-8, 14-20 entry H          line    22 file /theoryfs2/ds/metcalf/miniconda2/envs/tf2gpu/share/psi4/basis/cc-pvdz.gbs
    atoms 12         entry O          line   198 file /theoryfs2/ds/metcalf/miniconda2/envs/tf2gpu/share/psi4/basis/cc-pvdz.gbs
    atoms 13         entry N          line   168 file /theoryfs2/ds/metcalf/miniconda2/envs/tf2gpu/share/psi4/basis/cc-pvdz.gbs

         ---------------------------------------------------------
                                   SCF
               by Justin Turney, Rob Parrish, Andy Simmonett
                          and Daniel G. A. Smith
                              RHF Reference
                        1 Threads,    500 MiB Core
         ---------------------------------------------------------

  ==> Geometry <==

    Molecular point group: c1
    Full point group: C1

    Geometry (in Angstrom), charge = 0, multiplicity = 1:

       Center              X                  Y                   Z               Mass
    ------------   -----------------  -----------------  -----------------  -----------------
         C           -0.133453057962    -2.393046740416    -0.379611634188    12.000000000000
         C           -1.618453057962    -2.215046740416    -0.738611634188    12.000000000000
         H            0.169546942038    -3.427046740416    -0.548611634188     1.007825032230
         H            0.493546942038    -1.761046740416    -1.005611634188     1.007825032230
         H            0.042546942038    -2.134046740416     0.665388365812     1.007825032230
         H           -1.975453057962    -1.259046740416    -0.378611634188     1.007825032230
         H           -2.221253057962    -3.016146740416    -0.285974634188     1.007825032230
         H           -1.760363057962    -2.195596740416    -1.829245634188     1.007825032230
         C            0.394546942038     1.010953259584     1.327388365812    12.000000000000
         C           -1.102453057962     0.930953259584     1.566388365812    12.000000000000
         C            0.788546942038     0.959953259584    -0.138611634188    12.000000000000
         O            1.971546942038     1.085953259584    -0.458611634188    15.994914619570
         N           -0.167453057962     0.756953259584    -1.042611634188    14.003074004430
         H            0.769546942038     1.943953259584     1.750388365812     1.007825032230
         H            0.881546942038     0.177953259584     1.834388365812     1.007825032230
         H           -1.496453057962     0.008953259584     1.164388365812     1.007825032230
         H           -1.578453057962     1.777953259584     1.067388365812     1.007825032230
         H            0.103546942038     0.759953259584    -2.015611634188     1.007825032230
         H           -1.137453057962     0.719953259584    -0.780611634188     1.007825032230
         H           -1.354613057962     0.967803259584     2.636461365812     1.007825032230

  Running in c1 symmetry.

  Rotational constants: A =      0.09394  B =      0.04860  C =      0.03961 [cm^-1]
  Rotational constants: A =   2816.21978  B =   1457.09612  C =   1187.40800 [MHz]
  Nuclear repulsion =  320.788187317715938

  Charge       = 0
  Multiplicity = 1
  Electrons    = 58
  Nalpha       = 29
  Nbeta        = 29

  ==> Algorithm <==

  SCF Algorithm Type is PK.
  DIIS enabled.
  MOM disabled.
  Fractional occupation disabled.
  Guess Type is SAD.
  Energy threshold   = 1.00e-06
  Density threshold  = 1.00e-10
  Integral threshold = 0.00e+00

  ==> Primary Basis <==

  Basis Set: CC-PVDZ
    Blend: CC-PVDZ
    Number of shells: 81
    Number of basis function: 163
    Number of Cartesian functions: 170
    Spherical Harmonics?: true
    Max angular momentum: 2

  ==> Pre-Iterations <==

   -------------------------------------------------------
    Irrep   Nso     Nmo     Nalpha   Nbeta   Ndocc  Nsocc
   -------------------------------------------------------
     A        163     163       0       0       0       0
   -------------------------------------------------------
    Total     163     163      29      29      29       0
   -------------------------------------------------------

  ==> Integral Setup <==

  Using integral reordering PK algorithm.
  Sizing the integral batches needed.
  Building batch lookup table.
   Calculation information:
      Number of atoms:                  20
      Number of AO shells:              81
      Number of primitives:            219
      Number of atomic orbitals:       170
      Number of basis functions:       163

      Integral cutoff                 1.00e-12
      Number of threads:                 1

	Batch   1 pq = [       0,    9405] index = [             0,44231715] size =     44231715
	Batch   2 pq = [    9405,   13366] index = [      44231715,89331661] size =     45099946
  Task number: 9
  Buffer size: 11059200
  Buffer per thread: 2
  We computed 5841970 shell quartets total.
  Whereas there are 5516181 unique shell quartets.
     5.91 percent of shell quartets recomputed by reordering.

  ==> DiskJK: Disk-Based J/K Matrices <==

    J tasked:                  Yes
    K tasked:                  Yes
    wK tasked:                  No
    Memory [MiB]:              375
    Schwarz Cutoff:          1E-12

    OpenMP threads:              1

  Minimum eigenvalue in the overlap matrix is 2.7809207467E-03.
  Using Symmetric Orthogonalization.

  SCF Guess: Superposition of Atomic Densities via on-the-fly atomic UHF.

  ==> Iterations <==

                        Total Energy        Delta E     RMS |[F,P]|

   @RHF iter SAD:  -325.06016155934577   -3.25060e+02   0.00000e+00
   @RHF iter   1:  -326.00101433581983   -9.40853e-01   4.10012e-03 DIIS
   @RHF iter   2:  -326.19902253586588   -1.98008e-01   2.22089e-03 DIIS
   @RHF iter   3:  -326.25026417777906   -5.12416e-02   4.81554e-04 DIIS
   @RHF iter   4:  -326.25401423629177   -3.75006e-03   2.05734e-04 DIIS
   @RHF iter   5:  -326.25469415967848   -6.79923e-04   3.11852e-05 DIIS
   @RHF iter   6:  -326.25473014518508   -3.59855e-05   1.31947e-05 DIIS
   @RHF iter   7:  -326.25473520626855   -5.06108e-06   5.52653e-06 DIIS
   @RHF iter   8:  -326.25473638214567   -1.17588e-06   2.01811e-06 DIIS
   @RHF iter   9:  -326.25473654639580   -1.64250e-07   4.58352e-07 DIIS
   @RHF iter  10:  -326.25473655322412   -6.82832e-09   1.47184e-07 DIIS
   @RHF iter  11:  -326.25473655386128   -6.37158e-10   3.86223e-08 DIIS
   @RHF iter  12:  -326.25473655391272   -5.14433e-11   1.04675e-08 DIIS
   @RHF iter  13:  -326.25473655391681   -4.09273e-12   2.69895e-09 DIIS
   @RHF iter  14:  -326.25473655391590    9.09495e-13   1.16256e-09 DIIS
   @RHF iter  15:  -326.25473655391528    6.25278e-13   5.64592e-10 DIIS
   @RHF iter  16:  -326.25473655391494    3.41061e-13   1.97021e-10 DIIS
   @RHF iter  17:  -326.25473655391824   -3.29692e-12   7.07154e-11 DIIS
  Energy and wave function converged.

  ==> Post-Iterations <==

    Orbital Energies [Eh]
    ---------------------

    Doubly Occupied:

       1A    -20.500133     2A    -15.587520     3A    -11.344744
       4A    -11.241485     5A    -11.239060     6A    -11.228770
       7A    -11.220484     8A     -1.363555     9A     -1.216312
      10A     -1.059313    11A     -1.022884    12A     -0.895885
      13A     -0.847025    14A     -0.791534    15A     -0.738203
      16A     -0.650456    17A     -0.640204    18A     -0.605566
      19A     -0.600905    20A     -0.590285    21A     -0.555523
      22A     -0.546066    23A     -0.516474    24A     -0.507146
      25A     -0.505491    26A     -0.491256    27A     -0.488502
      28A     -0.404478    29A     -0.399204

    Virtual:

      30A      0.159139    31A      0.192165    32A      0.194783
      33A      0.208961    34A      0.214289    35A      0.239273
      36A      0.241334    37A      0.253667    38A      0.256033
      39A      0.271573    40A      0.290622    41A      0.301678
      42A      0.336468    43A      0.372713    44A      0.379245
      45A      0.411141    46A      0.419767    47A      0.485544
      48A      0.544290    49A      0.581992    50A      0.593917
      51A      0.602869    52A      0.622556    53A      0.644115
      54A      0.662593    55A      0.683679    56A      0.709260
      57A      0.720818    58A      0.743756    59A      0.802092
      60A      0.803305    61A      0.818044    62A      0.838540
      63A      0.849014    64A      0.863037    65A      0.880567
      66A      0.883427    67A      0.888746    68A      0.892425
      69A      0.913521    70A      0.920397    71A      0.931617
      72A      0.944422    73A      0.955475    74A      0.961813
      75A      0.975989    76A      1.011961    77A      1.064346
      78A      1.101263    79A      1.108360    80A      1.110990
      81A      1.141894    82A      1.162295    83A      1.167342
      84A      1.245380    85A      1.304531    86A      1.341277
      87A      1.367089    88A      1.379925    89A      1.394853
      90A      1.418744    91A      1.463146    92A      1.471931
      93A      1.480848    94A      1.501388    95A      1.573293
      96A      1.618375    97A      1.647038    98A      1.675522
      99A      1.695597   100A      1.706357   101A      1.738237
     102A      1.764336   103A      1.821409   104A      1.846694
     105A      1.864407   106A      1.870877   107A      1.881489
     108A      1.900339   109A      1.906893   110A      1.928036
     111A      1.938938   112A      1.945285   113A      1.953264
     114A      1.958139   115A      1.963799   116A      1.979491
     117A      1.994050   118A      2.010414   119A      2.021792
     120A      2.034587   121A      2.048472   122A      2.066517
     123A      2.084467   124A      2.124710   125A      2.147954
     126A      2.202303   127A      2.227839   128A      2.297083
     129A      2.313431   130A      2.320648   131A      2.346369
     132A      2.398005   133A      2.425104   134A      2.443580
     135A      2.450407   136A      2.485442   137A      2.548232
     138A      2.555436   139A      2.557132   140A      2.573817
     141A      2.594403   142A      2.608908   143A      2.637706
     144A      2.717501   145A      2.761315   146A      2.775168
     147A      2.795414   148A      2.849355   149A      2.867370
     150A      2.869074   151A      2.897739   152A      2.926888
     153A      2.953566   154A      2.957162   155A      2.993915
     156A      3.034524   157A      3.097550   158A      3.142226
     159A      3.317111   160A      3.515911   161A      3.536203
     162A      3.866780   163A      3.904314

    Final Occupation by Irrep:
              A
    DOCC [    29 ]

  @RHF Final Energy:  -326.25473655391824

   => Energetics <=

    Nuclear Repulsion Energy =            320.7881873177159378
    One-Electron Energy =               -1078.4889163104187446
    Two-Electron Energy =                 431.4459924387845717
    Total Energy =                       -326.2547365539182351

Computation Completed

Properties will be evaluated at   0.000000,   0.000000,   0.000000 [a0]

Properties computed using the SCF density matrix

  Nuclear Dipole Moment: [e a0]
     X:    -8.4870      Y:    -6.9684      Z:     2.1327

  Electronic Dipole Moment: [e a0]
     X:     6.8725      Y:     6.8187      Z:    -1.9684

  Dipole Moment: [e a0]
     X:    -1.6146      Y:    -0.1497      Z:     0.1643     Total:     1.6298

  Dipole Moment: [D]
     X:    -4.1038      Y:    -0.3804      Z:     0.4176     Total:     4.1425

*** tstop() called on ds3 at Mon Apr 27 19:03:49 2020
Module time:
	user time   =      36.66 seconds =       0.61 minutes
	system time =      12.90 seconds =       0.21 minutes
	total time  =         62 seconds =       1.03 minutes
Total time:
	user time   =      36.66 seconds =       0.61 minutes
	system time =      12.90 seconds =       0.21 minutes
	total time  =         62 seconds =       1.03 minutes
                                     G D M A

                                 by Anthony Stone

                           version 2.2.06, 22 June 2011

               Distributed Multipoles from Gaussian wavefunctions

Starting at 19:3:49 on 27 Apr 2020

Using SCF density matrix from file ./SSI/SSI-005VAL-008GLN-1-dimer.test.2183.fchk

                         Distributed Multipole Analysis

Standard DMA

Positions and radii in angstrom
Multipole moments in atomic units, ea_0^k for rank k

C          x = -0.133453  y = -2.393047  z = -0.379612 angstrom
           Maximum rank =  0   Radius =  0.650 angstrom
                   Q00  =  -0.246473

C          x = -1.618453  y = -2.215047  z = -0.738612 angstrom
           Maximum rank =  0   Radius =  0.650 angstrom
                   Q00  =  -0.233900

H          x =  0.169547  y = -3.427047  z = -0.548612 angstrom
           Maximum rank =  0   Radius =  0.325 angstrom
                   Q00  =   0.084891

H          x =  0.493547  y = -1.761047  z = -1.005612 angstrom
           Maximum rank =  0   Radius =  0.325 angstrom
                   Q00  =   0.094274

H          x =  0.042547  y = -2.134047  z =  0.665388 angstrom
           Maximum rank =  0   Radius =  0.325 angstrom
                   Q00  =   0.072666

H          x = -1.975453  y = -1.259047  z = -0.378612 angstrom
           Maximum rank =  0   Radius =  0.325 angstrom
                   Q00  =   0.056665

H          x = -2.221253  y = -3.016147  z = -0.285975 angstrom
           Maximum rank =  0   Radius =  0.325 angstrom
                   Q00  =   0.084563

H          x = -1.760363  y = -2.195597  z = -1.829246 angstrom
           Maximum rank =  0   Radius =  0.325 angstrom
                   Q00  =   0.079716

C          x =  0.394547  y =  1.010953  z =  1.327388 angstrom
           Maximum rank =  0   Radius =  0.650 angstrom
                   Q00  =  -0.095952

C          x = -1.102453  y =  0.930953  z =  1.566388 angstrom
           Maximum rank =  0   Radius =  0.650 angstrom
                   Q00  =  -0.283086

C          x =  0.788547  y =  0.959953  z = -0.138612 angstrom
           Maximum rank =  0   Radius =  0.650 angstrom
                   Q00  =   0.798246

O          x =  1.971547  y =  1.085953  z = -0.458612 angstrom
           Maximum rank =  0   Radius =  0.650 angstrom
                   Q00  =  -0.787993

N          x = -0.167453  y =  0.756953  z = -1.042612 angstrom
           Maximum rank =  0   Radius =  0.650 angstrom
                   Q00  =  -0.531581

H          x =  0.769547  y =  1.943953  z =  1.750388 angstrom
           Maximum rank =  0   Radius =  0.325 angstrom
                   Q00  =   0.102158

H          x =  0.881547  y =  0.177953  z =  1.834388 angstrom
           Maximum rank =  0   Radius =  0.325 angstrom
                   Q00  =   0.102794

H          x = -1.496453  y =  0.008953  z =  1.164388 angstrom
           Maximum rank =  0   Radius =  0.325 angstrom
                   Q00  =   0.081751

H          x = -1.578453  y =  1.777953  z =  1.067388 angstrom
           Maximum rank =  0   Radius =  0.325 angstrom
                   Q00  =   0.073329

H          x =  0.103547  y =  0.759953  z = -2.015612 angstrom
           Maximum rank =  0   Radius =  0.325 angstrom
                   Q00  =   0.221104

H          x = -1.137453  y =  0.719953  z = -0.780612 angstrom
           Maximum rank =  0   Radius =  0.325 angstrom
                   Q00  =   0.215732

H          x = -1.354613  y =  0.967803  z =  2.636461 angstrom
           Maximum rank =  0   Radius =  0.325 angstrom
                   Q00  =   0.111096

Total multipoles referred to origin at
           x =   0.000000,  y =    0.000000,  z =    0.000000 angstrom
                   Q00  =  -0.000000

Finished at 19:3:49 on 27 Apr 2020

  DMA results are available in the Python driver through the
	  variable('DMA DISTRIBUTED MULTIPOLES')
  and
	  variable('DMA TOTAL MULTIPOLES')
  commands.

    Psi4 stopped on: Monday, 27 April 2020 07:03PM
    Psi4 wall time for execution: 0:01:02.60

*** Psi4 exiting successfully. Buy a developer a beer!
