                               Psi4 1.3.2 release

  ==> Input File <==

--------------------------------------------------------------------------
import numpy as np
set {scf_type pk
basis cc-pvdz
d_convergence 10
gdma_switch   0
gdma_limit    0
gdma_origin   [ 0.0,  0.0,  0.0 ]
}
molecule test {
    units Angstrom
    0 1
    --
    0 1
    C                1.359475873256415     1.985812909473511     1.491747884916071
    C               -0.892524126743585     0.145812909473511    -1.677252115083929
    C                0.417475873256414    -0.234187090526489    -1.443252115083929
    C               -1.476524126743586     1.121812909473511    -0.894252115083929
    C                1.145475873256414     0.351812909473511    -0.406252115083929
    C               -0.755524126743585     1.717812909473511     0.135747884916071
    C                0.569475873256415     1.343812909473511     0.378747884916071
    H               -1.465524126743586    -0.333187090526489    -2.458252115083929
    H                0.866475873256415    -1.015187090526489    -2.028252115083929
    H               -2.507524126743585     1.387812909473511    -1.040252115083929
    H                2.162475873256414     0.033812909473511    -0.223252115083929
    H               -1.223524126743586     2.480812909473511     0.741747884916071
    H                1.171475873256414     3.055812909473511     1.472747884916071
    H                2.419475873256415     1.835812909473511     1.292747884916071
    H                1.119865873256415     1.585982909473511     2.488097884916071
    C               -0.869524126743585    -2.563187090526489     0.677747884916071
    C                0.398475873256414    -3.189187090526489     1.240747884916071
    H               -0.877524126743585    -1.502187090526489     0.920747884916071
    H               -0.883524126743585    -2.668187090526490    -0.407252115083929
    H               -1.755524126743586    -3.035187090526489     1.091747884916072
    H                1.226475873256414    -2.613187090526489     0.829747884916071
    H                0.450065873256415    -3.088867090526489     2.334947884916071
    H                0.531775873256415    -4.224466090526489     0.893717884916071

}
e, wfn = energy('scf', return_wfn=True)
gdma(wfn)
dmavals = variable('DMA DISTRIBUTED MULTIPOLES')
charges = np.array(dmavals)
print(charges)
np.save('SSI-160PHE-169VAL-1-dimer.npy', np.array(charges))--------------------------------------------------------------------------

*** tstart() called on ds3
*** at Tue Apr 28 00:41:55 2020

   => Loading Basis Set <=

    Name: CC-PVDZ
    Role: ORBITAL
    Keyword: BASIS
    atoms 1-7, 16-17  entry C          line   138 file /theoryfs2/ds/metcalf/miniconda2/envs/tf2gpu/share/psi4/basis/cc-pvdz.gbs
    atoms 8-15, 18-23 entry H          line    22 file /theoryfs2/ds/metcalf/miniconda2/envs/tf2gpu/share/psi4/basis/cc-pvdz.gbs

         ---------------------------------------------------------
                                   SCF
               by Justin Turney, Rob Parrish, Andy Simmonett
                          and Daniel G. A. Smith
                              RHF Reference
                        1 Threads,    500 MiB Core
         ---------------------------------------------------------

  ==> Geometry <==

    Molecular point group: c1
    Full point group: C1

    Geometry (in Angstrom), charge = 0, multiplicity = 1:

       Center              X                  Y                   Z               Mass
    ------------   -----------------  -----------------  -----------------  -----------------
         C            1.359475873256     1.985812909474     1.491747884916    12.000000000000
         C           -0.892524126744     0.145812909474    -1.677252115084    12.000000000000
         C            0.417475873256    -0.234187090526    -1.443252115084    12.000000000000
         C           -1.476524126744     1.121812909474    -0.894252115084    12.000000000000
         C            1.145475873256     0.351812909474    -0.406252115084    12.000000000000
         C           -0.755524126744     1.717812909474     0.135747884916    12.000000000000
         C            0.569475873256     1.343812909474     0.378747884916    12.000000000000
         H           -1.465524126744    -0.333187090526    -2.458252115084     1.007825032230
         H            0.866475873256    -1.015187090526    -2.028252115084     1.007825032230
         H           -2.507524126744     1.387812909474    -1.040252115084     1.007825032230
         H            2.162475873256     0.033812909474    -0.223252115084     1.007825032230
         H           -1.223524126744     2.480812909474     0.741747884916     1.007825032230
         H            1.171475873256     3.055812909474     1.472747884916     1.007825032230
         H            2.419475873256     1.835812909474     1.292747884916     1.007825032230
         H            1.119865873256     1.585982909474     2.488097884916     1.007825032230
         C           -0.869524126744    -2.563187090526     0.677747884916    12.000000000000
         C            0.398475873256    -3.189187090526     1.240747884916    12.000000000000
         H           -0.877524126744    -1.502187090526     0.920747884916     1.007825032230
         H           -0.883524126744    -2.668187090526    -0.407252115084     1.007825032230
         H           -1.755524126744    -3.035187090526     1.091747884916     1.007825032230
         H            1.226475873256    -2.613187090526     0.829747884916     1.007825032230
         H            0.450065873256    -3.088867090526     2.334947884916     1.007825032230
         H            0.531775873256    -4.224466090526     0.893717884916     1.007825032230

  Running in c1 symmetry.

  Rotational constants: A =      0.06123  B =      0.03477  C =      0.02783 [cm^-1]
  Rotational constants: A =   1835.51862  B =   1042.25894  C =    834.20058 [MHz]
  Nuclear repulsion =  421.906128009287215

  Charge       = 0
  Multiplicity = 1
  Electrons    = 68
  Nalpha       = 34
  Nbeta        = 34

  ==> Algorithm <==

  SCF Algorithm Type is PK.
  DIIS enabled.
  MOM disabled.
  Fractional occupation disabled.
  Guess Type is SAD.
  Energy threshold   = 1.00e-06
  Density threshold  = 1.00e-10
  Integral threshold = 0.00e+00

  ==> Primary Basis <==

  Basis Set: CC-PVDZ
    Blend: CC-PVDZ
    Number of shells: 96
    Number of basis function: 196
    Number of Cartesian functions: 205
    Spherical Harmonics?: true
    Max angular momentum: 2

  ==> Pre-Iterations <==

   -------------------------------------------------------
    Irrep   Nso     Nmo     Nalpha   Nbeta   Ndocc  Nsocc
   -------------------------------------------------------
     A        196     196       0       0       0       0
   -------------------------------------------------------
    Total     196     196      34      34      34       0
   -------------------------------------------------------

  ==> Integral Setup <==

  Using integral reordering PK algorithm.
  Sizing the integral batches needed.
  Building batch lookup table.
   Calculation information:
      Number of atoms:                  23
      Number of AO shells:              96
      Number of primitives:            268
      Number of atomic orbitals:       205
      Number of basis functions:       196

      Integral cutoff                 1.00e-12
      Number of threads:                 1

	Batch   1 pq = [       0,    9405] index = [             0,44231715] size =     44231715
	Batch   2 pq = [    9405,   13301] index = [      44231715,88464951] size =     44233236
	Batch   3 pq = [   13301,   16290] index = [      88464951,132690195] size =     44225244
	Batch   4 pq = [   16290,   18810] index = [     132690195,176917455] size =     44227260
	Batch   5 pq = [   18810,   19306] index = [     176917455,186370471] size =      9453016
  Task number: 17
  Buffer size: 11059200
  Buffer per thread: 2
  We computed 10782672 shell quartets total.
  Whereas there are 10841496 unique shell quartets.

  ==> DiskJK: Disk-Based J/K Matrices <==

    J tasked:                  Yes
    K tasked:                  Yes
    wK tasked:                  No
    Memory [MiB]:              375
    Schwarz Cutoff:          1E-12

    OpenMP threads:              1

  Minimum eigenvalue in the overlap matrix is 3.0984082061E-04.
  Using Symmetric Orthogonalization.

  SCF Guess: Superposition of Atomic Densities via on-the-fly atomic UHF.

  ==> Iterations <==

                        Total Energy        Delta E     RMS |[F,P]|

   @RHF iter SAD:  -347.93551753549286   -3.47936e+02   0.00000e+00
   @RHF iter   1:  -348.76322002228460   -8.27702e-01   2.91198e-03 DIIS
   @RHF iter   2:  -348.95688464467469   -1.93665e-01   1.21286e-03 DIIS
   @RHF iter   3:  -348.98753630836359   -3.06517e-02   2.59014e-04 DIIS
   @RHF iter   4:  -348.99001565915955   -2.47935e-03   5.10396e-05 DIIS
   @RHF iter   5:  -348.99008598417947   -7.03250e-05   1.66429e-05 DIIS
   @RHF iter   6:  -348.99009290691674   -6.92274e-06   4.61163e-06 DIIS
   @RHF iter   7:  -348.99009349918231   -5.92266e-07   1.27053e-06 DIIS
   @RHF iter   8:  -348.99009354853177   -4.93495e-08   2.90401e-07 DIIS
   @RHF iter   9:  -348.99009355362841   -5.09664e-09   1.18376e-07 DIIS
   @RHF iter  10:  -348.99009355467763   -1.04922e-09   5.56159e-08 DIIS
   @RHF iter  11:  -348.99009355502585   -3.48223e-10   2.34448e-08 DIIS
   @RHF iter  12:  -348.99009355508895   -6.30962e-11   1.15503e-08 DIIS
   @RHF iter  13:  -348.99009355510304   -1.40972e-11   3.74260e-09 DIIS
   @RHF iter  14:  -348.99009355510577   -2.72848e-12   1.00886e-09 DIIS
   @RHF iter  15:  -348.99009355510520    5.68434e-13   3.05495e-10 DIIS
   @RHF iter  16:  -348.99009355510572   -5.11591e-13   1.06404e-10 DIIS
   @RHF iter  17:  -348.99009355510407    1.64846e-12   4.80711e-11 DIIS
  Energy and wave function converged.

  ==> Post-Iterations <==

    Orbital Energies [Eh]
    ---------------------

    Doubly Occupied:

       1A    -11.241678     2A    -11.234323     3A    -11.234141
       4A    -11.231506     5A    -11.230814     6A    -11.229653
       7A    -11.229115     8A    -11.211221     9A    -11.203947
      10A     -1.155070    11A     -1.046570    12A     -1.013802
      13A     -1.009990    14A     -0.932771    15A     -0.828406
      16A     -0.825995    17A     -0.796427    18A     -0.692796
      19A     -0.632848    20A     -0.631226    21A     -0.592429
      22A     -0.590374    23A     -0.583368    24A     -0.577533
      25A     -0.563072    26A     -0.536807    27A     -0.498804
      28A     -0.486591    29A     -0.485104    30A     -0.481177
      31A     -0.478722    32A     -0.468863    33A     -0.332791
      34A     -0.323802

    Virtual:

      35A      0.134003    36A      0.139897    37A      0.173282
      38A      0.198104    39A      0.203797    40A      0.216602
      41A      0.234244    42A      0.251068    43A      0.255272
      44A      0.258986    45A      0.270038    46A      0.278497
      47A      0.279875    48A      0.296947    49A      0.316464
      50A      0.324729    51A      0.366011    52A      0.376265
      53A      0.406907    54A      0.453843    55A      0.463861
      56A      0.476805    57A      0.495349    58A      0.562047
      59A      0.576579    60A      0.592981    61A      0.606160
      62A      0.614664    63A      0.633681    64A      0.645734
      65A      0.678170    66A      0.689250    67A      0.700519
      68A      0.704117    69A      0.740593    70A      0.744431
      71A      0.750202    72A      0.760370    73A      0.768879
      74A      0.778464    75A      0.794010    76A      0.841218
      77A      0.852448    78A      0.858182    79A      0.865859
      80A      0.867875    81A      0.882126    82A      0.890540
      83A      0.893907    84A      0.899933    85A      0.901802
      86A      0.906675    87A      0.916650    88A      0.926257
      89A      0.940006    90A      0.943814    91A      0.976390
      92A      0.979993    93A      0.999849    94A      1.006726
      95A      1.040505    96A      1.084199    97A      1.124721
      98A      1.133620    99A      1.140470   100A      1.143360
     101A      1.158413   102A      1.180867   103A      1.191644
     104A      1.229013   105A      1.237434   106A      1.242857
     107A      1.262577   108A      1.283516   109A      1.306177
     110A      1.317605   111A      1.322964   112A      1.336745
     113A      1.414489   114A      1.478912   115A      1.486466
     116A      1.510012   117A      1.520201   118A      1.560974
     119A      1.595139   120A      1.632749   121A      1.678202
     122A      1.683957   123A      1.697339   124A      1.699638
     125A      1.743693   126A      1.756729   127A      1.768750
     128A      1.796707   129A      1.834512   130A      1.858510
     131A      1.865419   132A      1.881497   133A      1.890419
     134A      1.902727   135A      1.907322   136A      1.919800
     137A      1.922921   138A      1.937777   139A      1.942905
     140A      1.948366   141A      1.952349   142A      1.961669
     143A      1.972817   144A      1.981787   145A      1.983080
     146A      1.989886   147A      2.006768   148A      2.025555
     149A      2.055140   150A      2.065132   151A      2.080215
     152A      2.113648   153A      2.116697   154A      2.143236
     155A      2.151670   156A      2.162558   157A      2.174900
     158A      2.181396   159A      2.187507   160A      2.248523
     161A      2.277449   162A      2.295471   163A      2.298754
     164A      2.310367   165A      2.323778   166A      2.328603
     167A      2.347540   168A      2.462363   169A      2.465832
     170A      2.473879   171A      2.487120   172A      2.507855
     173A      2.541345   174A      2.574910   175A      2.592687
     176A      2.625447   177A      2.750239   178A      2.763318
     179A      2.772634   180A      2.773826   181A      2.789523
     182A      2.812449   183A      2.818213   184A      2.849462
     185A      2.862722   186A      2.879588   187A      2.886919
     188A      2.964605   189A      2.980786   190A      2.990911
     191A      3.024496   192A      3.036716   193A      3.158721
     194A      3.209182   195A      3.305658   196A      3.981855

    Final Occupation by Irrep:
              A
    DOCC [    34 ]

  @RHF Final Energy:  -348.99009355510407

   => Energetics <=

    Nuclear Repulsion Energy =            421.9061280092872153
    One-Electron Energy =               -1306.5689680563230013
    Two-Electron Energy =                 535.6727464919317754
    Total Energy =                       -348.9900935551040675

Computation Completed

Properties will be evaluated at   0.000000,   0.000000,   0.000000 [a0]

Properties computed using the SCF density matrix

  Nuclear Dipole Moment: [e a0]
     X:     1.1577      Y:    -7.5939      Z:     5.5395

  Electronic Dipole Moment: [e a0]
     X:    -1.1206      Y:     7.7348      Z:    -5.4715

  Dipole Moment: [e a0]
     X:     0.0372      Y:     0.1409      Z:     0.0680     Total:     0.1608

  Dipole Moment: [D]
     X:     0.0944      Y:     0.3582      Z:     0.1727     Total:     0.4088

*** tstop() called on ds3 at Tue Apr 28 00:43:39 2020
Module time:
	user time   =      78.20 seconds =       1.30 minutes
	system time =      28.18 seconds =       0.47 minutes
	total time  =        104 seconds =       1.73 minutes
Total time:
	user time   =      78.20 seconds =       1.30 minutes
	system time =      28.18 seconds =       0.47 minutes
	total time  =        104 seconds =       1.73 minutes
                                     G D M A

                                 by Anthony Stone

                           version 2.2.06, 22 June 2011

               Distributed Multipoles from Gaussian wavefunctions

Starting at 0:43:39 on 28 Apr 2020

Using SCF density matrix from file ./SSI/SSI-160PHE-169VAL-1-dimer.test.10498.fchk

                         Distributed Multipole Analysis

Standard DMA

Positions and radii in angstrom
Multipole moments in atomic units, ea_0^k for rank k

C          x =  1.359476  y =  1.985813  z =  1.491748 angstrom
           Maximum rank =  0   Radius =  0.650 angstrom
                   Q00  =  -0.202305

C          x = -0.892524  y =  0.145813  z = -1.677252 angstrom
           Maximum rank =  0   Radius =  0.650 angstrom
                   Q00  =  -0.079902

C          x =  0.417476  y = -0.234187  z = -1.443252 angstrom
           Maximum rank =  0   Radius =  0.650 angstrom
                   Q00  =  -0.047629

C          x = -1.476524  y =  1.121813  z = -0.894252 angstrom
           Maximum rank =  0   Radius =  0.650 angstrom
                   Q00  =  -0.037140

C          x =  1.145476  y =  0.351813  z = -0.406252 angstrom
           Maximum rank =  0   Radius =  0.650 angstrom
                   Q00  =  -0.083727

C          x = -0.755524  y =  1.717813  z =  0.135748 angstrom
           Maximum rank =  0   Radius =  0.650 angstrom
                   Q00  =  -0.049580

C          x =  0.569476  y =  1.343813  z =  0.378748 angstrom
           Maximum rank =  0   Radius =  0.650 angstrom
                   Q00  =  -0.100817

H          x = -1.465524  y = -0.333187  z = -2.458252 angstrom
           Maximum rank =  0   Radius =  0.325 angstrom
                   Q00  =   0.059431

H          x =  0.866476  y = -1.015187  z = -2.028252 angstrom
           Maximum rank =  0   Radius =  0.325 angstrom
                   Q00  =   0.063185

H          x = -2.507524  y =  1.387813  z = -1.040252 angstrom
           Maximum rank =  0   Radius =  0.325 angstrom
                   Q00  =   0.064050

H          x =  2.162476  y =  0.033813  z = -0.223252 angstrom
           Maximum rank =  0   Radius =  0.325 angstrom
                   Q00  =   0.058953

H          x = -1.223524  y =  2.480813  z =  0.741748 angstrom
           Maximum rank =  0   Radius =  0.325 angstrom
                   Q00  =   0.056835

H          x =  1.171476  y =  3.055813  z =  1.472748 angstrom
           Maximum rank =  0   Radius =  0.325 angstrom
                   Q00  =   0.100331

H          x =  2.419476  y =  1.835813  z =  1.292748 angstrom
           Maximum rank =  0   Radius =  0.325 angstrom
                   Q00  =   0.097380

H          x =  1.119866  y =  1.585983  z =  2.488098 angstrom
           Maximum rank =  0   Radius =  0.325 angstrom
                   Q00  =   0.104947

C          x = -0.869524  y = -2.563187  z =  0.677748 angstrom
           Maximum rank =  0   Radius =  0.650 angstrom
                   Q00  =  -0.223418

C          x =  0.398476  y = -3.189187  z =  1.240748 angstrom
           Maximum rank =  0   Radius =  0.650 angstrom
                   Q00  =  -0.235018

H          x = -0.877524  y = -1.502187  z =  0.920748 angstrom
           Maximum rank =  0   Radius =  0.325 angstrom
                   Q00  =   0.086901

H          x = -0.883524  y = -2.668187  z = -0.407252 angstrom
           Maximum rank =  0   Radius =  0.325 angstrom
                   Q00  =   0.073257

H          x = -1.755524  y = -3.035187  z =  1.091748 angstrom
           Maximum rank =  0   Radius =  0.325 angstrom
                   Q00  =   0.071283

H          x =  1.226476  y = -2.613187  z =  0.829748 angstrom
           Maximum rank =  0   Radius =  0.325 angstrom
                   Q00  =   0.069531

H          x =  0.450066  y = -3.088867  z =  2.334948 angstrom
           Maximum rank =  0   Radius =  0.325 angstrom
                   Q00  =   0.078297

H          x =  0.531776  y = -4.224466  z =  0.893718 angstrom
           Maximum rank =  0   Radius =  0.325 angstrom
                   Q00  =   0.075154

Total multipoles referred to origin at
           x =   0.000000,  y =    0.000000,  z =    0.000000 angstrom
                   Q00  =  -0.000000

Finished at 0:43:39 on 28 Apr 2020

  DMA results are available in the Python driver through the
	  variable('DMA DISTRIBUTED MULTIPOLES')
  and
	  variable('DMA TOTAL MULTIPOLES')
  commands.

    Psi4 stopped on: Tuesday, 28 April 2020 12:43AM
    Psi4 wall time for execution: 0:01:43.89

*** Psi4 exiting successfully. Buy a developer a beer!
