                               Psi4 1.3.2 release

  ==> Input File <==

--------------------------------------------------------------------------
import numpy as np
set {scf_type pk
basis cc-pvdz
d_convergence 10
gdma_switch   0
gdma_limit    0
gdma_origin   [ 0.0,  0.0,  0.0 ]
}
molecule test {
    units Angstrom
    0 1
    --
    0 1
    C                2.600546473087926    -0.313528647763079     1.174681306906814
    C                0.111546473087927    -0.923528647763079     0.914681306906814
    C                1.412546473087927    -0.978528647763079     0.550681306906814
    C                0.272546473087927    -2.217528647763079    -0.833318693093186
    N               -0.582453526912073    -1.715528647763079     0.044681306906814
    N                1.495546473087927    -1.785528647763079    -0.555318693093186
    H               -0.288453526912073    -0.382528647763079     1.751681306906814
    H               -1.583453526912073    -1.891528647763079     0.065681306906814
    H                2.501546473087927     0.769471352236921     1.080681306906814
    H                3.475546473087927    -0.612528647763079     0.596681306906814
    H                0.012546473087927    -2.883528647763079    -1.649318693093186
    H                2.745681473087926    -0.587273647763079     2.230143106906814
    C               -1.586453526912073     1.905471352236921    -0.295318693093186
    C               -2.550453526912073     2.862471352236921     0.474681306906814
    C               -0.785453526912073     2.550471352236921    -1.445318693093186
    H               -0.894453526912073     1.460471352236921     0.414681306906814
    H               -2.194453526912074     1.094471352236921    -0.696318693093186
    H               -3.039453526912073     2.274471352236921     1.253681306906814
    H               -1.409453526912073     3.250471352236921    -1.994318693093186
    H               -3.326137726912073     3.262751352236921    -0.194713693093186
    H               -2.043607126912073     3.697748352236921     0.980071306906814
    H                0.088835473087927     3.082085352236921    -1.041579693093186
    H               -0.478358526912073     1.755596352236921    -2.140923693093186

}
e, wfn = energy('scf', return_wfn=True)
gdma(wfn)
dmavals = variable('DMA DISTRIBUTED MULTIPOLES')
charges = np.array(dmavals)
print(charges)
np.save('SSI-012HIE-033LEU-1-dimer.npy', np.array(charges))--------------------------------------------------------------------------

*** tstart() called on ds3
*** at Tue Apr 28 09:36:03 2020

   => Loading Basis Set <=

    Name: CC-PVDZ
    Role: ORBITAL
    Keyword: BASIS
    atoms 1-4, 13-15  entry C          line   138 file /theoryfs2/ds/metcalf/miniconda2/envs/tf2gpu/share/psi4/basis/cc-pvdz.gbs
    atoms 5-6         entry N          line   168 file /theoryfs2/ds/metcalf/miniconda2/envs/tf2gpu/share/psi4/basis/cc-pvdz.gbs
    atoms 7-12, 16-23 entry H          line    22 file /theoryfs2/ds/metcalf/miniconda2/envs/tf2gpu/share/psi4/basis/cc-pvdz.gbs

         ---------------------------------------------------------
                                   SCF
               by Justin Turney, Rob Parrish, Andy Simmonett
                          and Daniel G. A. Smith
                              RHF Reference
                        1 Threads,    500 MiB Core
         ---------------------------------------------------------

  ==> Geometry <==

    Molecular point group: c1
    Full point group: C1

    Geometry (in Angstrom), charge = 0, multiplicity = 1:

       Center              X                  Y                   Z               Mass
    ------------   -----------------  -----------------  -----------------  -----------------
         C            2.600546473088    -0.313528647763     1.174681306907    12.000000000000
         C            0.111546473088    -0.923528647763     0.914681306907    12.000000000000
         C            1.412546473088    -0.978528647763     0.550681306907    12.000000000000
         C            0.272546473088    -2.217528647763    -0.833318693093    12.000000000000
         N           -0.582453526912    -1.715528647763     0.044681306907    14.003074004430
         N            1.495546473088    -1.785528647763    -0.555318693093    14.003074004430
         H           -0.288453526912    -0.382528647763     1.751681306907     1.007825032230
         H           -1.583453526912    -1.891528647763     0.065681306907     1.007825032230
         H            2.501546473088     0.769471352237     1.080681306907     1.007825032230
         H            3.475546473088    -0.612528647763     0.596681306907     1.007825032230
         H            0.012546473088    -2.883528647763    -1.649318693093     1.007825032230
         H            2.745681473088    -0.587273647763     2.230143106907     1.007825032230
         C           -1.586453526912     1.905471352237    -0.295318693093    12.000000000000
         C           -2.550453526912     2.862471352237     0.474681306907    12.000000000000
         C           -0.785453526912     2.550471352237    -1.445318693093    12.000000000000
         H           -0.894453526912     1.460471352237     0.414681306907     1.007825032230
         H           -2.194453526912     1.094471352237    -0.696318693093     1.007825032230
         H           -3.039453526912     2.274471352237     1.253681306907     1.007825032230
         H           -1.409453526912     3.250471352237    -1.994318693093     1.007825032230
         H           -3.326137726912     3.262751352237    -0.194713693093     1.007825032230
         H           -2.043607126912     3.697748352237     0.980071306907     1.007825032230
         H            0.088835473088     3.082085352237    -1.041579693093     1.007825032230
         H           -0.478358526912     1.755596352237    -2.140923693093     1.007825032230

  Running in c1 symmetry.

  Rotational constants: A =      0.07269  B =      0.02323  C =      0.02133 [cm^-1]
  Rotational constants: A =   2179.18547  B =    696.53893  C =    639.59648 [MHz]
  Nuclear repulsion =  432.587984202642815

  Charge       = 0
  Multiplicity = 1
  Electrons    = 70
  Nalpha       = 35
  Nbeta        = 35

  ==> Algorithm <==

  SCF Algorithm Type is PK.
  DIIS enabled.
  MOM disabled.
  Fractional occupation disabled.
  Guess Type is SAD.
  Energy threshold   = 1.00e-06
  Density threshold  = 1.00e-10
  Integral threshold = 0.00e+00

  ==> Primary Basis <==

  Basis Set: CC-PVDZ
    Blend: CC-PVDZ
    Number of shells: 96
    Number of basis function: 196
    Number of Cartesian functions: 205
    Spherical Harmonics?: true
    Max angular momentum: 2

  ==> Pre-Iterations <==

   -------------------------------------------------------
    Irrep   Nso     Nmo     Nalpha   Nbeta   Ndocc  Nsocc
   -------------------------------------------------------
     A        196     196       0       0       0       0
   -------------------------------------------------------
    Total     196     196      35      35      35       0
   -------------------------------------------------------

  ==> Integral Setup <==

  Using integral reordering PK algorithm.
  Sizing the integral batches needed.
  Building batch lookup table.
   Calculation information:
      Number of atoms:                  23
      Number of AO shells:              96
      Number of primitives:            268
      Number of atomic orbitals:       205
      Number of basis functions:       196

      Integral cutoff                 1.00e-12
      Number of threads:                 1

	Batch   1 pq = [       0,    9405] index = [             0,44231715] size =     44231715
	Batch   2 pq = [    9405,   13301] index = [      44231715,88464951] size =     44233236
	Batch   3 pq = [   13301,   16290] index = [      88464951,132690195] size =     44225244
	Batch   4 pq = [   16290,   18810] index = [     132690195,176917455] size =     44227260
	Batch   5 pq = [   18810,   19306] index = [     176917455,186370471] size =      9453016
  Task number: 17
  Buffer size: 11059200
  Buffer per thread: 2
  We computed 9378072 shell quartets total.
  Whereas there are 10841496 unique shell quartets.

  ==> DiskJK: Disk-Based J/K Matrices <==

    J tasked:                  Yes
    K tasked:                  Yes
    wK tasked:                  No
    Memory [MiB]:              375
    Schwarz Cutoff:          1E-12

    OpenMP threads:              1

  Minimum eigenvalue in the overlap matrix is 1.1294338908E-03.
  Using Symmetric Orthogonalization.

  SCF Guess: Superposition of Atomic Densities via on-the-fly atomic UHF.

  ==> Iterations <==

                        Total Energy        Delta E     RMS |[F,P]|

   @RHF iter SAD:  -381.20354300427169   -3.81204e+02   0.00000e+00
   @RHF iter   1:  -381.89357539804087   -6.90032e-01   3.11371e-03 DIIS
   @RHF iter   2:  -382.09003908633389   -1.96464e-01   1.54877e-03 DIIS
   @RHF iter   3:  -382.13421026024719   -4.41712e-02   3.95432e-04 DIIS
   @RHF iter   4:  -382.13800608381922   -3.79582e-03   1.68385e-04 DIIS
   @RHF iter   5:  -382.13861911201275   -6.13028e-04   2.49668e-05 DIIS
   @RHF iter   6:  -382.13864187783980   -2.27658e-05   1.03155e-05 DIIS
   @RHF iter   7:  -382.13864560834185   -3.73050e-06   3.71308e-06 DIIS
   @RHF iter   8:  -382.13864642314456   -8.14803e-07   1.54912e-06 DIIS
   @RHF iter   9:  -382.13864661618356   -1.93039e-07   5.94588e-07 DIIS
   @RHF iter  10:  -382.13864663761206   -2.14285e-08   1.71585e-07 DIIS
   @RHF iter  11:  -382.13864663967865   -2.06660e-09   7.04916e-08 DIIS
   @RHF iter  12:  -382.13864663993058   -2.51930e-10   2.97920e-08 DIIS
   @RHF iter  13:  -382.13864663997856   -4.79758e-11   8.41690e-09 DIIS
   @RHF iter  14:  -382.13864663998260   -4.03588e-12   2.80782e-09 DIIS
   @RHF iter  15:  -382.13864663998231    2.84217e-13   1.08002e-09 DIIS
   @RHF iter  16:  -382.13864663998271   -3.97904e-13   3.69626e-10 DIIS
   @RHF iter  17:  -382.13864663998322   -5.11591e-13   1.33141e-10 DIIS
   @RHF iter  18:  -382.13864663998339   -1.70530e-13   3.96828e-11 DIIS
  Energy and wave function converged.

  ==> Post-Iterations <==

    Orbital Energies [Eh]
    ---------------------

    Doubly Occupied:

       1A    -15.622199     2A    -15.528860     3A    -11.290618
       4A    -11.245226     5A    -11.237941     6A    -11.222312
       7A    -11.221691     8A    -11.221533     9A    -11.216190
      10A     -1.346715    11A     -1.157643    12A     -1.043811
      13A     -1.031318    14A     -0.940918    15A     -0.923914
      16A     -0.820249    17A     -0.798496    18A     -0.763939
      19A     -0.742090    20A     -0.621424    21A     -0.610420
      22A     -0.606971    23A     -0.597830    24A     -0.585739
      25A     -0.553412    26A     -0.549386    27A     -0.537213
      28A     -0.534729    29A     -0.519241    30A     -0.471411
      31A     -0.468558    32A     -0.464149    33A     -0.413359
      34A     -0.381018    35A     -0.307129

    Virtual:

      36A      0.158935    37A      0.173872    38A      0.187941
      39A      0.206151    40A      0.213225    41A      0.225170
      42A      0.230177    43A      0.245071    44A      0.250351
      45A      0.257785    46A      0.273903    47A      0.276211
      48A      0.288184    49A      0.300474    50A      0.309885
      51A      0.339737    52A      0.358189    53A      0.386993
      54A      0.396419    55A      0.416396    56A      0.418628
      57A      0.478356    58A      0.487992    59A      0.571989
      60A      0.593596    61A      0.596083    62A      0.614981
      63A      0.629950    64A      0.633983    65A      0.648534
      66A      0.663453    67A      0.685331    68A      0.708797
      69A      0.715853    70A      0.742678    71A      0.769307
      72A      0.770667    73A      0.801984    74A      0.812714
      75A      0.817591    76A      0.840031    77A      0.844486
      78A      0.872898    79A      0.878269    80A      0.889923
      81A      0.893634    82A      0.896289    83A      0.901939
      84A      0.905870    85A      0.911664    86A      0.920669
      87A      0.934465    88A      0.938784    89A      0.942879
      90A      0.965955    91A      0.977867    92A      0.990628
      93A      1.020705    94A      1.033534    95A      1.074563
      96A      1.096278    97A      1.107741    98A      1.115523
      99A      1.122356   100A      1.135136   101A      1.158932
     102A      1.172374   103A      1.218716   104A      1.261642
     105A      1.286808   106A      1.302453   107A      1.335175
     108A      1.339604   109A      1.381877   110A      1.429501
     111A      1.445009   112A      1.461638   113A      1.473720
     114A      1.481736   115A      1.513020   116A      1.527086
     117A      1.572830   118A      1.637432   119A      1.645121
     120A      1.652554   121A      1.668440   122A      1.686421
     123A      1.689017   124A      1.703836   125A      1.731560
     126A      1.777068   127A      1.807676   128A      1.831539
     129A      1.853255   130A      1.864705   131A      1.881746
     132A      1.887805   133A      1.900814   134A      1.904949
     135A      1.917355   136A      1.921867   137A      1.933602
     138A      1.940104   139A      1.949727   140A      1.952412
     141A      1.959970   142A      1.968884   143A      1.977636
     144A      1.993207   145A      2.000775   146A      2.022060
     147A      2.036446   148A      2.074199   149A      2.077238
     150A      2.089489   151A      2.120663   152A      2.160780
     153A      2.177610   154A      2.208934   155A      2.252717
     156A      2.268950   157A      2.270598   158A      2.293633
     159A      2.300619   160A      2.338918   161A      2.353018
     162A      2.370920   163A      2.389714   164A      2.401316
     165A      2.461697   166A      2.471864   167A      2.484489
     168A      2.526571   169A      2.563055   170A      2.586758
     171A      2.610960   172A      2.619020   173A      2.634031
     174A      2.676080   175A      2.743116   176A      2.747610
     177A      2.764475   178A      2.775025   179A      2.780078
     180A      2.787422   181A      2.808950   182A      2.819225
     183A      2.826165   184A      2.875880   185A      2.892596
     186A      2.908660   187A      2.928983   188A      2.950085
     189A      2.968611   190A      2.976669   191A      3.068012
     192A      3.090498   193A      3.154941   194A      3.236808
     195A      3.481742   196A      3.813699

    Final Occupation by Irrep:
              A
    DOCC [    35 ]

  @RHF Final Energy:  -382.13864663998339

   => Energetics <=

    Nuclear Repulsion Energy =            432.5879842026428150
    One-Electron Energy =               -1374.2579547395546342
    Two-Electron Energy =                 559.5313238969283702
    Total Energy =                       -382.1386466399834489

Computation Completed

Properties will be evaluated at   0.000000,   0.000000,   0.000000 [a0]

Properties computed using the SCF density matrix

  Nuclear Dipole Moment: [e a0]
     X:    -6.0340      Y:    13.4067      Z:     0.6166

  Electronic Dipole Moment: [e a0]
     X:     4.7570      Y:   -13.4580      Z:    -0.2657

  Dipole Moment: [e a0]
     X:    -1.2770      Y:    -0.0513      Z:     0.3509     Total:     1.3254

  Dipole Moment: [D]
     X:    -3.2459      Y:    -0.1303      Z:     0.8920     Total:     3.3688

*** tstop() called on ds3 at Tue Apr 28 09:38:08 2020
Module time:
	user time   =      63.50 seconds =       1.06 minutes
	system time =      29.79 seconds =       0.50 minutes
	total time  =        125 seconds =       2.08 minutes
Total time:
	user time   =      63.50 seconds =       1.06 minutes
	system time =      29.79 seconds =       0.50 minutes
	total time  =        125 seconds =       2.08 minutes
                                     G D M A

                                 by Anthony Stone

                           version 2.2.06, 22 June 2011

               Distributed Multipoles from Gaussian wavefunctions

Starting at 9:38:8 on 28 Apr 2020

Using SCF density matrix from file ./SSI/SSI-012HIE-033LEU-1-dimer.test.10876.fchk

                         Distributed Multipole Analysis

Standard DMA

Positions and radii in angstrom
Multipole moments in atomic units, ea_0^k for rank k

C          x =  2.600546  y = -0.313529  z =  1.174681 angstrom
           Maximum rank =  0   Radius =  0.650 angstrom
                   Q00  =  -0.202997

C          x =  0.111546  y = -0.923529  z =  0.914681 angstrom
           Maximum rank =  0   Radius =  0.650 angstrom
                   Q00  =  -0.000657

C          x =  1.412546  y = -0.978529  z =  0.550681 angstrom
           Maximum rank =  0   Radius =  0.650 angstrom
                   Q00  =   0.232693

C          x =  0.272546  y = -2.217529  z = -0.833319 angstrom
           Maximum rank =  0   Radius =  0.650 angstrom
                   Q00  =   0.452366

N          x = -0.582454  y = -1.715529  z =  0.044681 angstrom
           Maximum rank =  0   Radius =  0.650 angstrom
                   Q00  =  -0.471565

N          x =  1.495546  y = -1.785529  z = -0.555319 angstrom
           Maximum rank =  0   Radius =  0.650 angstrom
                   Q00  =  -0.767449

H          x = -0.288454  y = -0.382529  z =  1.751681 angstrom
           Maximum rank =  0   Radius =  0.325 angstrom
                   Q00  =   0.096706

H          x = -1.583454  y = -1.891529  z =  0.065681 angstrom
           Maximum rank =  0   Radius =  0.325 angstrom
                   Q00  =   0.223524

H          x =  2.501546  y =  0.769471  z =  1.080681 angstrom
           Maximum rank =  0   Radius =  0.325 angstrom
                   Q00  =   0.097335

H          x =  3.475546  y = -0.612529  z =  0.596681 angstrom
           Maximum rank =  0   Radius =  0.325 angstrom
                   Q00  =   0.122349

H          x =  0.012546  y = -2.883529  z = -1.649319 angstrom
           Maximum rank =  0   Radius =  0.325 angstrom
                   Q00  =   0.121087

H          x =  2.745681  y = -0.587274  z =  2.230143 angstrom
           Maximum rank =  0   Radius =  0.325 angstrom
                   Q00  =   0.097865

C          x = -1.586454  y =  1.905471  z = -0.295319 angstrom
           Maximum rank =  0   Radius =  0.650 angstrom
                   Q00  =  -0.070640

C          x = -2.550454  y =  2.862471  z =  0.474681 angstrom
           Maximum rank =  0   Radius =  0.650 angstrom
                   Q00  =  -0.261636

C          x = -0.785454  y =  2.550471  z = -1.445319 angstrom
           Maximum rank =  0   Radius =  0.650 angstrom
                   Q00  =  -0.250444

H          x = -0.894454  y =  1.460471  z =  0.414681 angstrom
           Maximum rank =  0   Radius =  0.325 angstrom
                   Q00  =   0.057718

H          x = -2.194454  y =  1.094471  z = -0.696319 angstrom
           Maximum rank =  0   Radius =  0.325 angstrom
                   Q00  =   0.034209

H          x = -3.039454  y =  2.274471  z =  1.253681 angstrom
           Maximum rank =  0   Radius =  0.325 angstrom
                   Q00  =   0.076996

H          x = -1.409454  y =  3.250471  z = -1.994319 angstrom
           Maximum rank =  0   Radius =  0.325 angstrom
                   Q00  =   0.075407

H          x = -3.326138  y =  3.262751  z = -0.194714 angstrom
           Maximum rank =  0   Radius =  0.325 angstrom
                   Q00  =   0.080520

H          x = -2.043607  y =  3.697748  z =  0.980071 angstrom
           Maximum rank =  0   Radius =  0.325 angstrom
                   Q00  =   0.081932

H          x =  0.088835  y =  3.082085  z = -1.041580 angstrom
           Maximum rank =  0   Radius =  0.325 angstrom
                   Q00  =   0.081865

H          x = -0.478359  y =  1.755596  z = -2.140924 angstrom
           Maximum rank =  0   Radius =  0.325 angstrom
                   Q00  =   0.092815

Total multipoles referred to origin at
           x =   0.000000,  y =    0.000000,  z =    0.000000 angstrom
                   Q00  =  -0.000000

Finished at 9:38:8 on 28 Apr 2020

  DMA results are available in the Python driver through the
	  variable('DMA DISTRIBUTED MULTIPOLES')
  and
	  variable('DMA TOTAL MULTIPOLES')
  commands.

    Psi4 stopped on: Tuesday, 28 April 2020 09:38AM
    Psi4 wall time for execution: 0:02:05.21

*** Psi4 exiting successfully. Buy a developer a beer!
