                               Psi4 1.3.2 release

  ==> Input File <==

--------------------------------------------------------------------------
import numpy as np
set {scf_type pk
basis cc-pvdz
d_convergence 10
gdma_switch   0
gdma_limit    0
gdma_origin   [ 0.0,  0.0,  0.0 ]
}
molecule test {
    units Angstrom
    0 1
    --
    0 1
    C               -1.490633912263504     0.294542356920918     0.997316200241524
    C               -2.624633912263505    -0.566457643079082     1.548316200241524
    H               -1.385633912263504     0.117542356920918    -0.073683799758476
    H               -1.730633912263504     1.344542356920918     1.163316200241524
    H               -0.554633912263504     0.075542356920918     1.510316200241524
    H               -2.686633912263504    -0.408457643079082     2.623316200241524
    H               -2.448685912263504    -1.632157643079082     1.340182200241524
    H               -3.589053912263505    -0.259564643079082     1.117374200241524
    C                1.672366087736496     0.755542356920918    -1.053683799758476
    C                2.443366087736496    -0.491457643079082    -1.489683799758476
    H                2.324366087736496     1.428542356920918    -0.498683799758476
    H                1.306366087736496     1.291542356920918    -1.929683799758476
    H                0.833366087736496     0.469542356920918    -0.427683799758476
    H                3.339366087736496    -0.139457643079082    -2.002683799758476
    H                2.738026087736496    -1.122980643079082    -0.638594799758476
    H                1.848256087736496    -1.071398643079082    -2.210457799758476

}
e, wfn = energy('scf', return_wfn=True)
gdma(wfn)
dmavals = variable('DMA DISTRIBUTED MULTIPOLES')
charges = np.array(dmavals)
print(charges)
np.save('SSI-038LEU-109VAL-1-dimer.npy', np.array(charges))--------------------------------------------------------------------------

*** tstart() called on ds3
*** at Mon Apr 27 23:21:26 2020

   => Loading Basis Set <=

    Name: CC-PVDZ
    Role: ORBITAL
    Keyword: BASIS
    atoms 1-2, 9-10  entry C          line   138 file /theoryfs2/ds/metcalf/miniconda2/envs/tf2gpu/share/psi4/basis/cc-pvdz.gbs
    atoms 3-8, 11-16 entry H          line    22 file /theoryfs2/ds/metcalf/miniconda2/envs/tf2gpu/share/psi4/basis/cc-pvdz.gbs

         ---------------------------------------------------------
                                   SCF
               by Justin Turney, Rob Parrish, Andy Simmonett
                          and Daniel G. A. Smith
                              RHF Reference
                        1 Threads,    500 MiB Core
         ---------------------------------------------------------

  ==> Geometry <==

    Molecular point group: c1
    Full point group: C1

    Geometry (in Angstrom), charge = 0, multiplicity = 1:

       Center              X                  Y                   Z               Mass
    ------------   -----------------  -----------------  -----------------  -----------------
         C           -1.490633912264     0.294542356921     0.997316200242    12.000000000000
         C           -2.624633912264    -0.566457643079     1.548316200242    12.000000000000
         H           -1.385633912264     0.117542356921    -0.073683799758     1.007825032230
         H           -1.730633912264     1.344542356921     1.163316200242     1.007825032230
         H           -0.554633912264     0.075542356921     1.510316200242     1.007825032230
         H           -2.686633912264    -0.408457643079     2.623316200242     1.007825032230
         H           -2.448685912264    -1.632157643079     1.340182200242     1.007825032230
         H           -3.589053912264    -0.259564643079     1.117374200242     1.007825032230
         C            1.672366087736     0.755542356921    -1.053683799758    12.000000000000
         C            2.443366087736    -0.491457643079    -1.489683799758    12.000000000000
         H            2.324366087736     1.428542356921    -0.498683799758     1.007825032230
         H            1.306366087736     1.291542356921    -1.929683799758     1.007825032230
         H            0.833366087736     0.469542356921    -0.427683799758     1.007825032230
         H            3.339366087736    -0.139457643079    -2.002683799758     1.007825032230
         H            2.738026087736    -1.122980643079    -0.638594799758     1.007825032230
         H            1.848256087736    -1.071398643079    -2.210457799758     1.007825032230

  Running in c1 symmetry.

  Rotational constants: A =      0.53903  B =      0.04377  C =      0.04179 [cm^-1]
  Rotational constants: A =  16159.78209  B =   1312.21012  C =   1252.83587 [MHz]
  Nuclear repulsion =  120.510884867029304

  Charge       = 0
  Multiplicity = 1
  Electrons    = 36
  Nalpha       = 18
  Nbeta        = 18

  ==> Algorithm <==

  SCF Algorithm Type is PK.
  DIIS enabled.
  MOM disabled.
  Fractional occupation disabled.
  Guess Type is SAD.
  Energy threshold   = 1.00e-06
  Density threshold  = 1.00e-10
  Integral threshold = 0.00e+00

  ==> Primary Basis <==

  Basis Set: CC-PVDZ
    Blend: CC-PVDZ
    Number of shells: 60
    Number of basis function: 116
    Number of Cartesian functions: 120
    Spherical Harmonics?: true
    Max angular momentum: 2

  ==> Pre-Iterations <==

   -------------------------------------------------------
    Irrep   Nso     Nmo     Nalpha   Nbeta   Ndocc  Nsocc
   -------------------------------------------------------
     A        116     116       0       0       0       0
   -------------------------------------------------------
    Total     116     116      18      18      18       0
   -------------------------------------------------------

  ==> Integral Setup <==

  Using integral reordering PK algorithm.
  Sizing the integral batches needed.
  Building batch lookup table.
   Calculation information:
      Number of atoms:                  16
      Number of AO shells:              60
      Number of primitives:            148
      Number of atomic orbitals:       120
      Number of basis functions:       116

      Integral cutoff                 1.00e-12
      Number of threads:                 1

	Batch   1 pq = [       0,    6786] index = [             0,23028291] size =     23028291
  Task number: 3
  Buffer size: 11059200
  Buffer per thread: 2
  We computed 1364382 shell quartets total.
  Whereas there are 1675365 unique shell quartets.

  ==> DiskJK: Disk-Based J/K Matrices <==

    J tasked:                  Yes
    K tasked:                  Yes
    wK tasked:                  No
    Memory [MiB]:              375
    Schwarz Cutoff:          1E-12

    OpenMP threads:              1

  Minimum eigenvalue in the overlap matrix is 6.0829039534E-03.
  Using Symmetric Orthogonalization.

  SCF Guess: Superposition of Atomic Densities via on-the-fly atomic UHF.

  ==> Iterations <==

                        Total Energy        Delta E     RMS |[F,P]|

   @RHF iter SAD:  -157.36068152823901   -1.57361e+02   0.00000e+00
   @RHF iter   1:  -158.30696450433845   -9.46283e-01   4.20985e-03 DIIS
   @RHF iter   2:  -158.44020897428433   -1.33244e-01   1.78958e-03 DIIS
   @RHF iter   3:  -158.46347121672162   -2.32622e-02   3.50622e-04 DIIS
   @RHF iter   4:  -158.46531358807047   -1.84237e-03   3.95891e-05 DIIS
   @RHF iter   5:  -158.46533828076113   -2.46927e-05   7.23591e-06 DIIS
   @RHF iter   6:  -158.46533900711466   -7.26354e-07   1.52445e-06 DIIS
   @RHF iter   7:  -158.46533902877869   -2.16640e-08   3.29677e-07 DIIS
   @RHF iter   8:  -158.46533902994099   -1.16231e-09   4.67159e-08 DIIS
   @RHF iter   9:  -158.46533902998112   -4.01315e-11   9.14908e-09 DIIS
   @RHF iter  10:  -158.46533902998249   -1.36424e-12   2.76846e-09 DIIS
   @RHF iter  11:  -158.46533902998269   -1.98952e-13   7.50515e-10 DIIS
   @RHF iter  12:  -158.46533902998206    6.25278e-13   1.41684e-10 DIIS
   @RHF iter  13:  -158.46533902998229   -2.27374e-13   3.02527e-11 DIIS
  Energy and wave function converged.

  ==> Post-Iterations <==

    Orbital Energies [Eh]
    ---------------------

    Doubly Occupied:

       1A    -11.219301     2A    -11.218221     3A    -11.217638
       4A    -11.213452     5A     -1.020082     6A     -1.016328
       7A     -0.839820     8A     -0.833203     9A     -0.603763
      10A     -0.598807    11A     -0.595263    12A     -0.594372
      13A     -0.505197    14A     -0.499385    15A     -0.490418
      16A     -0.485880    17A     -0.484048    18A     -0.475100

    Virtual:

      19A      0.175514    20A      0.195980    21A      0.231304
      22A      0.237345    23A      0.249740    24A      0.253819
      25A      0.261020    26A      0.274638    27A      0.280512
      28A      0.288722    29A      0.300060    30A      0.336765
      31A      0.396822    32A      0.409783    33A      0.582898
      34A      0.596131    35A      0.601652    36A      0.605034
      37A      0.606258    38A      0.645685    39A      0.670246
      40A      0.682381    41A      0.709909    42A      0.768078
      43A      0.849200    44A      0.873021    45A      0.887332
      46A      0.891109    47A      0.891798    48A      0.894932
      49A      0.896770    50A      0.904037    51A      0.914206
      52A      0.923250    53A      0.925831    54A      0.945024
      55A      0.969439    56A      1.009894    57A      1.119453
      58A      1.124072    59A      1.135996    60A      1.162488
      61A      1.229288    62A      1.325462    63A      1.467673
      64A      1.470299    65A      1.484064    66A      1.495492
      67A      1.568389    68A      1.592164    69A      1.678411
      70A      1.682760    71A      1.690260    72A      1.702869
      73A      1.854499    74A      1.858855    75A      1.872319
      76A      1.881699    77A      1.889933    78A      1.919295
      79A      1.929971    80A      1.937134    81A      1.940995
      82A      1.944778    83A      1.946151    84A      1.950544
      85A      1.962788    86A      1.968729    87A      1.986372
      88A      2.041592    89A      2.094527    90A      2.104899
      91A      2.114618    92A      2.139596    93A      2.294675
      94A      2.299874    95A      2.313470    96A      2.328467
      97A      2.445276    98A      2.450086    99A      2.467791
     100A      2.487156   101A      2.555926   102A      2.560602
     103A      2.576942   104A      2.591160   105A      2.754831
     106A      2.764409   107A      2.782925   108A      2.812979
     109A      2.845849   110A      2.851441   111A      2.855082
     112A      2.859943   113A      2.934602   114A      2.945321
     115A      2.966555   116A      2.999872

    Final Occupation by Irrep:
              A
    DOCC [    18 ]

  @RHF Final Energy:  -158.46533902998229

   => Energetics <=

    Nuclear Repulsion Energy =            120.5108848670293042
    One-Electron Energy =                -450.1318918995712011
    Two-Electron Energy =                 171.1556680025596222
    Total Energy =                       -158.4653390299822888

Computation Completed

Properties will be evaluated at   0.000000,   0.000000,   0.000000 [a0]

Properties computed using the SCF density matrix

  Nuclear Dipole Moment: [e a0]
     X:    -0.0052      Y:     0.0874      Z:    -0.0253

  Electronic Dipole Moment: [e a0]
     X:    -0.0212      Y:    -0.0661      Z:     0.0450

  Dipole Moment: [e a0]
     X:    -0.0264      Y:     0.0213      Z:     0.0197     Total:     0.0392

  Dipole Moment: [D]
     X:    -0.0671      Y:     0.0542      Z:     0.0502     Total:     0.0998

*** tstop() called on ds3 at Mon Apr 27 23:21:40 2020
Module time:
	user time   =       9.40 seconds =       0.16 minutes
	system time =       4.31 seconds =       0.07 minutes
	total time  =         14 seconds =       0.23 minutes
Total time:
	user time   =       9.40 seconds =       0.16 minutes
	system time =       4.31 seconds =       0.07 minutes
	total time  =         14 seconds =       0.23 minutes
                                     G D M A

                                 by Anthony Stone

                           version 2.2.06, 22 June 2011

               Distributed Multipoles from Gaussian wavefunctions

Starting at 23:21:40 on 27 Apr 2020

Using SCF density matrix from file ./SSI/SSI-038LEU-109VAL-1-dimer.test.2484.fchk

                         Distributed Multipole Analysis

Standard DMA

Positions and radii in angstrom
Multipole moments in atomic units, ea_0^k for rank k

C          x = -1.490634  y =  0.294542  z =  0.997316 angstrom
           Maximum rank =  0   Radius =  0.650 angstrom
                   Q00  =  -0.239219

C          x = -2.624634  y = -0.566458  z =  1.548316 angstrom
           Maximum rank =  0   Radius =  0.650 angstrom
                   Q00  =  -0.233687

H          x = -1.385634  y =  0.117542  z = -0.073684 angstrom
           Maximum rank =  0   Radius =  0.325 angstrom
                   Q00  =   0.076724

H          x = -1.730634  y =  1.344542  z =  1.163316 angstrom
           Maximum rank =  0   Radius =  0.325 angstrom
                   Q00  =   0.081281

H          x = -0.554634  y =  0.075542  z =  1.510316 angstrom
           Maximum rank =  0   Radius =  0.325 angstrom
                   Q00  =   0.077792

H          x = -2.686634  y = -0.408458  z =  2.623316 angstrom
           Maximum rank =  0   Radius =  0.325 angstrom
                   Q00  =   0.078733

H          x = -2.448686  y = -1.632158  z =  1.340182 angstrom
           Maximum rank =  0   Radius =  0.325 angstrom
                   Q00  =   0.079174

H          x = -3.589054  y = -0.259565  z =  1.117374 angstrom
           Maximum rank =  0   Radius =  0.325 angstrom
                   Q00  =   0.079431

C          x =  1.672366  y =  0.755542  z = -1.053684 angstrom
           Maximum rank =  0   Radius =  0.650 angstrom
                   Q00  =  -0.242274

C          x =  2.443366  y = -0.491458  z = -1.489684 angstrom
           Maximum rank =  0   Radius =  0.650 angstrom
                   Q00  =  -0.237099

H          x =  2.324366  y =  1.428542  z = -0.498684 angstrom
           Maximum rank =  0   Radius =  0.325 angstrom
                   Q00  =   0.077033

H          x =  1.306366  y =  1.291542  z = -1.929684 angstrom
           Maximum rank =  0   Radius =  0.325 angstrom
                   Q00  =   0.077943

H          x =  0.833366  y =  0.469542  z = -0.427684 angstrom
           Maximum rank =  0   Radius =  0.325 angstrom
                   Q00  =   0.091027

H          x =  3.339366  y = -0.139458  z = -2.002684 angstrom
           Maximum rank =  0   Radius =  0.325 angstrom
                   Q00  =   0.075119

H          x =  2.738026  y = -1.122981  z = -0.638595 angstrom
           Maximum rank =  0   Radius =  0.325 angstrom
                   Q00  =   0.080640

H          x =  1.848256  y = -1.071399  z = -2.210458 angstrom
           Maximum rank =  0   Radius =  0.325 angstrom
                   Q00  =   0.077381

Total multipoles referred to origin at
           x =   0.000000,  y =    0.000000,  z =    0.000000 angstrom
                   Q00  =  -0.000000

Finished at 23:21:40 on 27 Apr 2020

  DMA results are available in the Python driver through the
	  variable('DMA DISTRIBUTED MULTIPOLES')
  and
	  variable('DMA TOTAL MULTIPOLES')
  commands.

    Psi4 stopped on: Monday, 27 April 2020 11:21PM
    Psi4 wall time for execution: 0:00:13.41

*** Psi4 exiting successfully. Buy a developer a beer!
