                               Psi4 1.3.2 release

  ==> Input File <==

--------------------------------------------------------------------------
import numpy as np
set {scf_type pk
basis cc-pvdz
d_convergence 10
gdma_switch   0
gdma_limit    0
gdma_origin   [ 0.0,  0.0,  0.0 ]
}
molecule test {
    units Angstrom
    0 1
    --
    0 1
    C               -1.661627953337988    -0.314731048953736     0.148025607131683
    C               -2.148627953337988    -1.138731048953736    -1.065974392868317
    H               -0.783627953337988    -0.790731048953736     0.587025607131683
    H               -1.412627953337988     0.696268951046264    -0.170974392868317
    H               -2.446627953337988    -0.262731048953736     0.902025607131683
    H               -1.293627953337988    -1.283731048953736    -1.725974392868317
    H               -2.527777953337988    -2.128761048953736    -0.772578392868317
    H               -2.904097953337987    -0.566831048953736    -1.624714392868317
    C                1.298372046662012     1.191268951046264     0.464025607131683
    C                2.508372046662012     0.262268951046264     0.465025607131683
    H                1.626372046662012     2.221268951046264     0.586025607131683
    H                0.794372046662013     1.114268951046264    -0.497974392868317
    H                0.616372046662013     0.930268951046264     1.274025607131683
    H                3.256372046662012     0.645268951046264    -0.231974392868317
    H                2.154372046662012    -0.695731048953736     0.086025607131683
    H                2.962342046662013     0.120268951046264     1.456867607131683

}
e, wfn = energy('scf', return_wfn=True)
gdma(wfn)
dmavals = variable('DMA DISTRIBUTED MULTIPOLES')
charges = np.array(dmavals)
print(charges)
np.save('SSI-032VAL-042ILE-1-dimer.npy', np.array(charges))--------------------------------------------------------------------------

*** tstart() called on ds3
*** at Sun Apr 26 22:44:07 2020

   => Loading Basis Set <=

    Name: CC-PVDZ
    Role: ORBITAL
    Keyword: BASIS
    atoms 1-2, 9-10  entry C          line   138 file /theoryfs2/ds/metcalf/miniconda2/envs/tf2gpu/share/psi4/basis/cc-pvdz.gbs
    atoms 3-8, 11-16 entry H          line    22 file /theoryfs2/ds/metcalf/miniconda2/envs/tf2gpu/share/psi4/basis/cc-pvdz.gbs

         ---------------------------------------------------------
                                   SCF
               by Justin Turney, Rob Parrish, Andy Simmonett
                          and Daniel G. A. Smith
                              RHF Reference
                        1 Threads,    500 MiB Core
         ---------------------------------------------------------

  ==> Geometry <==

    Molecular point group: c1
    Full point group: C1

    Geometry (in Angstrom), charge = 0, multiplicity = 1:

       Center              X                  Y                   Z               Mass
    ------------   -----------------  -----------------  -----------------  -----------------
         C           -1.661627953338    -0.314731048954     0.148025607132    12.000000000000
         C           -2.148627953338    -1.138731048954    -1.065974392868    12.000000000000
         H           -0.783627953338    -0.790731048954     0.587025607132     1.007825032230
         H           -1.412627953338     0.696268951046    -0.170974392868     1.007825032230
         H           -2.446627953338    -0.262731048954     0.902025607132     1.007825032230
         H           -1.293627953338    -1.283731048954    -1.725974392868     1.007825032230
         H           -2.527777953338    -2.128761048954    -0.772578392868     1.007825032230
         H           -2.904097953338    -0.566831048954    -1.624714392868     1.007825032230
         C            1.298372046662     1.191268951046     0.464025607132    12.000000000000
         C            2.508372046662     0.262268951046     0.465025607132    12.000000000000
         H            1.626372046662     2.221268951046     0.586025607132     1.007825032230
         H            0.794372046662     1.114268951046    -0.497974392868     1.007825032230
         H            0.616372046662     0.930268951046     1.274025607132     1.007825032230
         H            3.256372046662     0.645268951046    -0.231974392868     1.007825032230
         H            2.154372046662    -0.695731048954     0.086025607132     1.007825032230
         H            2.962342046662     0.120268951046     1.456867607132     1.007825032230

  Running in c1 symmetry.

  Rotational constants: A =      0.44996  B =      0.05768  C =      0.05477 [cm^-1]
  Rotational constants: A =  13489.32859  B =   1729.06177  C =   1641.86370 [MHz]
  Nuclear repulsion =  125.493061969008991

  Charge       = 0
  Multiplicity = 1
  Electrons    = 36
  Nalpha       = 18
  Nbeta        = 18

  ==> Algorithm <==

  SCF Algorithm Type is PK.
  DIIS enabled.
  MOM disabled.
  Fractional occupation disabled.
  Guess Type is SAD.
  Energy threshold   = 1.00e-06
  Density threshold  = 1.00e-10
  Integral threshold = 0.00e+00

  ==> Primary Basis <==

  Basis Set: CC-PVDZ
    Blend: CC-PVDZ
    Number of shells: 60
    Number of basis function: 116
    Number of Cartesian functions: 120
    Spherical Harmonics?: true
    Max angular momentum: 2

  ==> Pre-Iterations <==

   -------------------------------------------------------
    Irrep   Nso     Nmo     Nalpha   Nbeta   Ndocc  Nsocc
   -------------------------------------------------------
     A        116     116       0       0       0       0
   -------------------------------------------------------
    Total     116     116      18      18      18       0
   -------------------------------------------------------

  ==> Integral Setup <==

  Using integral reordering PK algorithm.
  Sizing the integral batches needed.
  Building batch lookup table.
   Calculation information:
      Number of atoms:                  16
      Number of AO shells:              60
      Number of primitives:            148
      Number of atomic orbitals:       120
      Number of basis functions:       116

      Integral cutoff                 1.00e-12
      Number of threads:                 1

	Batch   1 pq = [       0,    6786] index = [             0,23028291] size =     23028291
  Task number: 3
  Buffer size: 11059200
  Buffer per thread: 2
  We computed 1532000 shell quartets total.
  Whereas there are 1675365 unique shell quartets.

  ==> DiskJK: Disk-Based J/K Matrices <==

    J tasked:                  Yes
    K tasked:                  Yes
    wK tasked:                  No
    Memory [MiB]:              375
    Schwarz Cutoff:          1E-12

    OpenMP threads:              1

  Minimum eigenvalue in the overlap matrix is 7.0438967737E-03.
  Using Symmetric Orthogonalization.

  SCF Guess: Superposition of Atomic Densities via on-the-fly atomic UHF.

  ==> Iterations <==

                        Total Energy        Delta E     RMS |[F,P]|

   @RHF iter SAD:  -157.37438645751803   -1.57374e+02   0.00000e+00
   @RHF iter   1:  -158.30323454978443   -9.28848e-01   4.19171e-03 DIIS
   @RHF iter   2:  -158.43652793977193   -1.33293e-01   1.76911e-03 DIIS
   @RHF iter   3:  -158.45933258974480   -2.28046e-02   3.51187e-04 DIIS
   @RHF iter   4:  -158.46117803297432   -1.84544e-03   3.96138e-05 DIIS
   @RHF iter   5:  -158.46120269903091   -2.46661e-05   7.25986e-06 DIIS
   @RHF iter   6:  -158.46120344580999   -7.46779e-07   1.45003e-06 DIIS
   @RHF iter   7:  -158.46120346611849   -2.03085e-08   3.47273e-07 DIIS
   @RHF iter   8:  -158.46120346732988   -1.21139e-09   4.41212e-08 DIIS
   @RHF iter   9:  -158.46120346735950   -2.96154e-11   1.01254e-08 DIIS
   @RHF iter  10:  -158.46120346736092   -1.42109e-12   2.81431e-09 DIIS
   @RHF iter  11:  -158.46120346736117   -2.55795e-13   8.44397e-10 DIIS
   @RHF iter  12:  -158.46120346736120   -2.84217e-14   1.97393e-10 DIIS
   @RHF iter  13:  -158.46120346736129   -8.52651e-14   2.91235e-11 DIIS
  Energy and wave function converged.

  ==> Post-Iterations <==

    Orbital Energies [Eh]
    ---------------------

    Doubly Occupied:

       1A    -11.220127     2A    -11.217491     3A    -11.216566
       4A    -11.214383     5A     -1.020749     6A     -1.012789
       7A     -0.842515     8A     -0.831753     9A     -0.605086
      10A     -0.601895    11A     -0.596165    12A     -0.588441
      13A     -0.508140    14A     -0.495506    15A     -0.489796
      16A     -0.485827    17A     -0.483161    18A     -0.474477

    Virtual:

      19A      0.169068    20A      0.200601    21A      0.226709
      22A      0.236047    23A      0.244891    24A      0.256778
      25A      0.263373    26A      0.268577    27A      0.282959
      28A      0.296915    29A      0.313462    30A      0.344031
      31A      0.398150    32A      0.408042    33A      0.583703
      34A      0.594493    35A      0.601630    36A      0.613652
      37A      0.626690    38A      0.628378    39A      0.655003
      40A      0.694986    41A      0.700123    42A      0.813919
      43A      0.849549    44A      0.871020    45A      0.882687
      46A      0.890988    47A      0.893393    48A      0.894939
      49A      0.899148    50A      0.910244    51A      0.926196
      52A      0.928216    53A      0.948424    54A      0.961597
      55A      0.963919    56A      0.980529    57A      1.115821
      58A      1.125112    59A      1.130673    60A      1.207155
      61A      1.233462    62A      1.245203    63A      1.460128
      64A      1.465427    65A      1.480933    66A      1.501468
      67A      1.531405    68A      1.636291    69A      1.683397
      70A      1.687548    71A      1.690181    72A      1.727821
      73A      1.855210    74A      1.863835    75A      1.876946
      76A      1.888984    77A      1.890868    78A      1.920480
      79A      1.929731    80A      1.935375    81A      1.941886
      82A      1.948015    83A      1.957209    84A      1.959693
      85A      1.980114    86A      1.982909    87A      1.998881
      88A      2.011467    89A      2.091140    90A      2.116399
      91A      2.136519    92A      2.163132    93A      2.293625
      94A      2.300816    95A      2.311969    96A      2.323411
      97A      2.438309    98A      2.460023    99A      2.463889
     100A      2.484098   101A      2.560126   102A      2.571581
     103A      2.583485   104A      2.602184   105A      2.760672
     106A      2.769837   107A      2.792556   108A      2.793709
     109A      2.831829   110A      2.846216   111A      2.861507
     112A      2.868353   113A      2.939848   114A      2.950889
     115A      2.957715   116A      3.008945

    Final Occupation by Irrep:
              A
    DOCC [    18 ]

  @RHF Final Energy:  -158.46120346736129

   => Energetics <=

    Nuclear Repulsion Energy =            125.4930619690089912
    One-Electron Energy =                -460.0988023295493008
    Two-Electron Energy =                 176.1445368931790370
    Total Energy =                       -158.4612034673612868

Computation Completed

Properties will be evaluated at   0.000000,   0.000000,   0.000000 [a0]

Properties computed using the SCF density matrix

  Nuclear Dipole Moment: [e a0]
     X:     0.0392      Y:    -0.0008      Z:    -0.1239

  Electronic Dipole Moment: [e a0]
     X:    -0.0375      Y:     0.0174      Z:     0.1204

  Dipole Moment: [e a0]
     X:     0.0017      Y:     0.0166      Z:    -0.0035     Total:     0.0170

  Dipole Moment: [D]
     X:     0.0044      Y:     0.0422      Z:    -0.0089     Total:     0.0433

*** tstop() called on ds3 at Sun Apr 26 22:44:20 2020
Module time:
	user time   =       8.67 seconds =       0.14 minutes
	system time =       2.94 seconds =       0.05 minutes
	total time  =         13 seconds =       0.22 minutes
Total time:
	user time   =       8.67 seconds =       0.14 minutes
	system time =       2.94 seconds =       0.05 minutes
	total time  =         13 seconds =       0.22 minutes
                                     G D M A

                                 by Anthony Stone

                           version 2.2.06, 22 June 2011

               Distributed Multipoles from Gaussian wavefunctions

Starting at 22:44:20 on 26 Apr 2020

Using SCF density matrix from file ./SSI/SSI-032VAL-042ILE-1-dimer.test.18070.fchk

                         Distributed Multipole Analysis

Standard DMA

Positions and radii in angstrom
Multipole moments in atomic units, ea_0^k for rank k

C          x = -1.661628  y = -0.314731  z =  0.148026 angstrom
           Maximum rank =  0   Radius =  0.650 angstrom
                   Q00  =  -0.236394

C          x = -2.148628  y = -1.138731  z = -1.065974 angstrom
           Maximum rank =  0   Radius =  0.650 angstrom
                   Q00  =  -0.244111

H          x = -0.783628  y = -0.790731  z =  0.587026 angstrom
           Maximum rank =  0   Radius =  0.325 angstrom
                   Q00  =   0.077490

H          x = -1.412628  y =  0.696269  z = -0.170974 angstrom
           Maximum rank =  0   Radius =  0.325 angstrom
                   Q00  =   0.083494

H          x = -2.446628  y = -0.262731  z =  0.902026 angstrom
           Maximum rank =  0   Radius =  0.325 angstrom
                   Q00  =   0.079198

H          x = -1.293628  y = -1.283731  z = -1.725974 angstrom
           Maximum rank =  0   Radius =  0.325 angstrom
                   Q00  =   0.075346

H          x = -2.527778  y = -2.128761  z = -0.772578 angstrom
           Maximum rank =  0   Radius =  0.325 angstrom
                   Q00  =   0.083551

H          x = -2.904098  y = -0.566831  z = -1.624714 angstrom
           Maximum rank =  0   Radius =  0.325 angstrom
                   Q00  =   0.080216

C          x =  1.298372  y =  1.191269  z =  0.464026 angstrom
           Maximum rank =  0   Radius =  0.650 angstrom
                   Q00  =  -0.230961

C          x =  2.508372  y =  0.262269  z =  0.465026 angstrom
           Maximum rank =  0   Radius =  0.650 angstrom
                   Q00  =  -0.233049

H          x =  1.626372  y =  2.221269  z =  0.586026 angstrom
           Maximum rank =  0   Radius =  0.325 angstrom
                   Q00  =   0.075313

H          x =  0.794372  y =  1.114269  z = -0.497974 angstrom
           Maximum rank =  0   Radius =  0.325 angstrom
                   Q00  =   0.075389

H          x =  0.616372  y =  0.930269  z =  1.274026 angstrom
           Maximum rank =  0   Radius =  0.325 angstrom
                   Q00  =   0.082236

H          x =  3.256372  y =  0.645269  z = -0.231974 angstrom
           Maximum rank =  0   Radius =  0.325 angstrom
                   Q00  =   0.078478

H          x =  2.154372  y = -0.695731  z =  0.086026 angstrom
           Maximum rank =  0   Radius =  0.325 angstrom
                   Q00  =   0.071758

H          x =  2.962342  y =  0.120269  z =  1.456868 angstrom
           Maximum rank =  0   Radius =  0.325 angstrom
                   Q00  =   0.082045

Total multipoles referred to origin at
           x =   0.000000,  y =    0.000000,  z =    0.000000 angstrom
                   Q00  =  -0.000000

Finished at 22:44:20 on 26 Apr 2020

  DMA results are available in the Python driver through the
	  variable('DMA DISTRIBUTED MULTIPOLES')
  and
	  variable('DMA TOTAL MULTIPOLES')
  commands.

    Psi4 stopped on: Sunday, 26 April 2020 10:44PM
    Psi4 wall time for execution: 0:00:12.86

*** Psi4 exiting successfully. Buy a developer a beer!
