                               Psi4 1.3.2 release

  ==> Input File <==

--------------------------------------------------------------------------
import numpy as np
set {scf_type pk
basis cc-pvdz
d_convergence 10
gdma_switch   0
gdma_limit    0
gdma_origin   [ 0.0,  0.0,  0.0 ]
}
molecule test {
    units Angstrom
    0 1
    --
    0 1
    C                0.772104694771916     3.363761648225977     1.493916226769795
    C               -0.870895305228084    -0.143238351774023    -0.320083773230206
    C               -1.232895305228084     1.104761648225977    -0.797083773230206
    C                0.033104694771916    -0.226238351774023     0.714916226769794
    C               -0.675895305228084     2.266761648225977    -0.214083773230206
    C                0.538104694771916     0.922761648225977     1.311916226769795
    C                0.184104694771916     2.162761648225977     0.861916226769795
    H               -1.280895305228084    -1.038238351774023    -0.765083773230205
    H               -1.938895305228084     1.176761648225977    -1.611083773230205
    H                0.323104694771916    -1.199238351774023     1.084916226769794
    H               -0.952895305228084     3.240761648225977    -0.591083773230206
    H                1.213104694771916     0.832761648225977     2.148916226769794
    H                0.664104694771916     3.292761648225977     2.576916226769795
    H                0.195104694771916     4.229761648225977     1.169916226769794
    H                1.830744694771916     3.516223648225977     1.236946226769795
    C                0.094104694771916    -3.616238351774023    -1.210083773230205
    C                0.902104694771916    -4.880238351774024    -1.574083773230205
    H               -0.274895305228084    -3.687238351774023    -0.185083773230206
    H                0.716104694771916    -2.726238351774023    -1.299083773230205
    H               -0.750895305228084    -3.479238351774024    -1.886083773230205
    H                1.188104694771916    -4.796238351774024    -2.625083773230206
    H                0.295194694771916    -5.790965351774024    -1.463473773230205
    H                1.821744694771916    -4.940929351774024    -0.973603773230206

}
e, wfn = energy('scf', return_wfn=True)
gdma(wfn)
dmavals = variable('DMA DISTRIBUTED MULTIPOLES')
charges = np.array(dmavals)
print(charges)
np.save('SSI-071PHE-108ILE-1-dimer.npy', np.array(charges))--------------------------------------------------------------------------

*** tstart() called on ds3
*** at Mon Apr 27 22:48:28 2020

   => Loading Basis Set <=

    Name: CC-PVDZ
    Role: ORBITAL
    Keyword: BASIS
    atoms 1-7, 16-17  entry C          line   138 file /theoryfs2/ds/metcalf/miniconda2/envs/tf2gpu/share/psi4/basis/cc-pvdz.gbs
    atoms 8-15, 18-23 entry H          line    22 file /theoryfs2/ds/metcalf/miniconda2/envs/tf2gpu/share/psi4/basis/cc-pvdz.gbs

         ---------------------------------------------------------
                                   SCF
               by Justin Turney, Rob Parrish, Andy Simmonett
                          and Daniel G. A. Smith
                              RHF Reference
                        1 Threads,    500 MiB Core
         ---------------------------------------------------------

  ==> Geometry <==

    Molecular point group: c1
    Full point group: C1

    Geometry (in Angstrom), charge = 0, multiplicity = 1:

       Center              X                  Y                   Z               Mass
    ------------   -----------------  -----------------  -----------------  -----------------
         C            0.772104694772     3.363761648226     1.493916226770    12.000000000000
         C           -0.870895305228    -0.143238351774    -0.320083773230    12.000000000000
         C           -1.232895305228     1.104761648226    -0.797083773230    12.000000000000
         C            0.033104694772    -0.226238351774     0.714916226770    12.000000000000
         C           -0.675895305228     2.266761648226    -0.214083773230    12.000000000000
         C            0.538104694772     0.922761648226     1.311916226770    12.000000000000
         C            0.184104694772     2.162761648226     0.861916226770    12.000000000000
         H           -1.280895305228    -1.038238351774    -0.765083773230     1.007825032230
         H           -1.938895305228     1.176761648226    -1.611083773230     1.007825032230
         H            0.323104694772    -1.199238351774     1.084916226770     1.007825032230
         H           -0.952895305228     3.240761648226    -0.591083773230     1.007825032230
         H            1.213104694772     0.832761648226     2.148916226770     1.007825032230
         H            0.664104694772     3.292761648226     2.576916226770     1.007825032230
         H            0.195104694772     4.229761648226     1.169916226770     1.007825032230
         H            1.830744694772     3.516223648226     1.236946226770     1.007825032230
         C            0.094104694772    -3.616238351774    -1.210083773230    12.000000000000
         C            0.902104694772    -4.880238351774    -1.574083773230    12.000000000000
         H           -0.274895305228    -3.687238351774    -0.185083773230     1.007825032230
         H            0.716104694772    -2.726238351774    -1.299083773230     1.007825032230
         H           -0.750895305228    -3.479238351774    -1.886083773230     1.007825032230
         H            1.188104694772    -4.796238351774    -2.625083773230     1.007825032230
         H            0.295194694772    -5.790965351774    -1.463473773230     1.007825032230
         H            1.821744694772    -4.940929351774    -0.973603773230     1.007825032230

  Running in c1 symmetry.

  Rotational constants: A =      0.12858  B =      0.01675  C =      0.01533 [cm^-1]
  Rotational constants: A =   3854.77134  B =    502.07194  C =    459.49083 [MHz]
  Nuclear repulsion =  396.886077870264842

  Charge       = 0
  Multiplicity = 1
  Electrons    = 68
  Nalpha       = 34
  Nbeta        = 34

  ==> Algorithm <==

  SCF Algorithm Type is PK.
  DIIS enabled.
  MOM disabled.
  Fractional occupation disabled.
  Guess Type is SAD.
  Energy threshold   = 1.00e-06
  Density threshold  = 1.00e-10
  Integral threshold = 0.00e+00

  ==> Primary Basis <==

  Basis Set: CC-PVDZ
    Blend: CC-PVDZ
    Number of shells: 96
    Number of basis function: 196
    Number of Cartesian functions: 205
    Spherical Harmonics?: true
    Max angular momentum: 2

  ==> Pre-Iterations <==

   -------------------------------------------------------
    Irrep   Nso     Nmo     Nalpha   Nbeta   Ndocc  Nsocc
   -------------------------------------------------------
     A        196     196       0       0       0       0
   -------------------------------------------------------
    Total     196     196      34      34      34       0
   -------------------------------------------------------

  ==> Integral Setup <==

  Using integral reordering PK algorithm.
  Sizing the integral batches needed.
  Building batch lookup table.
   Calculation information:
      Number of atoms:                  23
      Number of AO shells:              96
      Number of primitives:            268
      Number of atomic orbitals:       205
      Number of basis functions:       196

      Integral cutoff                 1.00e-12
      Number of threads:                 1

	Batch   1 pq = [       0,    9405] index = [             0,44231715] size =     44231715
	Batch   2 pq = [    9405,   13301] index = [      44231715,88464951] size =     44233236
	Batch   3 pq = [   13301,   16290] index = [      88464951,132690195] size =     44225244
	Batch   4 pq = [   16290,   18810] index = [     132690195,176917455] size =     44227260
	Batch   5 pq = [   18810,   19306] index = [     176917455,186370471] size =      9453016
  Task number: 17
  Buffer size: 11059200
  Buffer per thread: 2
  We computed 8030700 shell quartets total.
  Whereas there are 10841496 unique shell quartets.

  ==> DiskJK: Disk-Based J/K Matrices <==

    J tasked:                  Yes
    K tasked:                  Yes
    wK tasked:                  No
    Memory [MiB]:              375
    Schwarz Cutoff:          1E-12

    OpenMP threads:              1

  Minimum eigenvalue in the overlap matrix is 2.9361489057E-04.
  Using Symmetric Orthogonalization.

  SCF Guess: Superposition of Atomic Densities via on-the-fly atomic UHF.

  ==> Iterations <==

                        Total Energy        Delta E     RMS |[F,P]|

   @RHF iter SAD:  -347.97495698408210   -3.47975e+02   0.00000e+00
   @RHF iter   1:  -348.76290664591835   -7.87950e-01   2.91373e-03 DIIS
   @RHF iter   2:  -348.95718486232408   -1.94278e-01   1.22192e-03 DIIS
   @RHF iter   3:  -348.98834569933700   -3.11608e-02   2.66011e-04 DIIS
   @RHF iter   4:  -348.99086555580345   -2.51986e-03   6.90566e-05 DIIS
   @RHF iter   5:  -348.99098024897910   -1.14693e-04   2.15245e-05 DIIS
   @RHF iter   6:  -348.99099179774180   -1.15488e-05   5.11353e-06 DIIS
   @RHF iter   7:  -348.99099257301850   -7.75277e-07   1.17398e-06 DIIS
   @RHF iter   8:  -348.99099262461226   -5.15938e-08   3.20463e-07 DIIS
   @RHF iter   9:  -348.99099263194273   -7.33047e-09   1.48398e-07 DIIS
   @RHF iter  10:  -348.99099263371460   -1.77187e-09   7.14585e-08 DIIS
   @RHF iter  11:  -348.99099263437404   -6.59441e-10   2.94780e-08 DIIS
   @RHF iter  12:  -348.99099263447249   -9.84528e-11   1.21273e-08 DIIS
   @RHF iter  13:  -348.99099263448420   -1.17097e-11   3.68662e-09 DIIS
   @RHF iter  14:  -348.99099263448528   -1.08002e-12   9.65294e-10 DIIS
   @RHF iter  15:  -348.99099263448801   -2.72848e-12   2.99725e-10 DIIS
   @RHF iter  16:  -348.99099263448704    9.66338e-13   8.96970e-11 DIIS
  Energy and wave function converged.

  ==> Post-Iterations <==

    Orbital Energies [Eh]
    ---------------------

    Doubly Occupied:

       1A    -11.235145     2A    -11.232224     3A    -11.230900
       4A    -11.229761     5A    -11.226528     6A    -11.225862
       7A    -11.223888     8A    -11.221985     9A    -11.219537
      10A     -1.157522    11A     -1.051845    12A     -1.015130
      13A     -1.007473    14A     -0.932926    15A     -0.840550
      16A     -0.828977    17A     -0.791951    18A     -0.691517
      19A     -0.633555    20A     -0.628733    21A     -0.596478
      22A     -0.595711    23A     -0.580333    24A     -0.577648
      25A     -0.567881    26A     -0.532026    27A     -0.501427
      28A     -0.490491    29A     -0.486642    30A     -0.485969
      31A     -0.483177    32A     -0.480333    33A     -0.327859
      34A     -0.325796

    Virtual:

      35A      0.134474    36A      0.147127    37A      0.177072
      38A      0.190380    39A      0.204410    40A      0.217193
      41A      0.231638    42A      0.243292    43A      0.254868
      44A      0.256955    45A      0.269850    46A      0.278788
      47A      0.286048    48A      0.293141    49A      0.303475
      50A      0.316103    51A      0.371253    52A      0.382341
      53A      0.396569    54A      0.460385    55A      0.466860
      56A      0.475543    57A      0.503661    58A      0.563257
      59A      0.591906    60A      0.594564    61A      0.598319
      62A      0.633992    63A      0.662352    64A      0.673202
      65A      0.676973    66A      0.690566    67A      0.703850
      68A      0.716631    69A      0.724361    70A      0.740737
      71A      0.751132    72A      0.756937    73A      0.762218
      74A      0.769092    75A      0.784652    76A      0.799990
      77A      0.830550    78A      0.848650    79A      0.868178
      80A      0.874900    81A      0.882578    82A      0.889390
      83A      0.891380    84A      0.891755    85A      0.897405
      86A      0.911352    87A      0.915106    88A      0.921093
      89A      0.925835    90A      0.933148    91A      0.942528
      92A      0.951110    93A      0.983885    94A      1.013704
      95A      1.026724    96A      1.061033    97A      1.117132
      98A      1.128108    99A      1.136240   100A      1.140638
     101A      1.158292   102A      1.187265   103A      1.207453
     104A      1.228692   105A      1.241519   106A      1.254763
     107A      1.264233   108A      1.282320   109A      1.306965
     110A      1.314883   111A      1.327862   112A      1.334909
     113A      1.419154   114A      1.461819   115A      1.472901
     116A      1.515455   117A      1.537667   118A      1.561261
     119A      1.584268   120A      1.613507   121A      1.674989
     122A      1.680484   123A      1.695285   124A      1.698443
     125A      1.737784   126A      1.744964   127A      1.766112
     128A      1.799892   129A      1.817740   130A      1.866286
     131A      1.869515   132A      1.881415   133A      1.889957
     134A      1.893349   135A      1.900665   136A      1.911783
     137A      1.917583   138A      1.927240   139A      1.934028
     140A      1.944540   141A      1.950554   142A      1.956954
     143A      1.961028   144A      1.963842   145A      1.977759
     146A      2.001310   147A      2.009540   148A      2.020581
     149A      2.053469   150A      2.056846   151A      2.078646
     152A      2.086684   153A      2.114209   154A      2.116790
     155A      2.133815   156A      2.163906   157A      2.192138
     158A      2.198791   159A      2.211762   160A      2.254848
     161A      2.281759   162A      2.298717   163A      2.305680
     164A      2.309120   165A      2.332006   166A      2.340092
     167A      2.362035   168A      2.442744   169A      2.464891
     170A      2.468026   171A      2.484500   172A      2.529928
     173A      2.545672   174A      2.552309   175A      2.569517
     176A      2.641792   177A      2.740326   178A      2.756950
     179A      2.770554   180A      2.781581   181A      2.785166
     182A      2.800890   183A      2.822151   184A      2.845281
     185A      2.854671   186A      2.861010   187A      2.885936
     188A      2.938719   189A      2.953362   190A      2.991180
     191A      3.028831   192A      3.039133   193A      3.171036
     194A      3.224052   195A      3.321013   196A      3.997822

    Final Occupation by Irrep:
              A
    DOCC [    34 ]

  @RHF Final Energy:  -348.99099263448704

   => Energetics <=

    Nuclear Repulsion Energy =            396.8860778702648417
    One-Electron Energy =               -1256.4385855743162210
    Two-Electron Energy =                 510.5615150695642797
    Total Energy =                       -348.9909926344870428

Computation Completed

Properties will be evaluated at   0.000000,   0.000000,   0.000000 [a0]

Properties computed using the SCF density matrix

  Nuclear Dipole Moment: [e a0]
     X:     2.8582      Y:   -10.6584      Z:    -2.9831

  Electronic Dipole Moment: [e a0]
     X:    -2.8020      Y:    10.7409      Z:     3.0194

  Dipole Moment: [e a0]
     X:     0.0561      Y:     0.0826      Z:     0.0364     Total:     0.1063

  Dipole Moment: [D]
     X:     0.1427      Y:     0.2099      Z:     0.0924     Total:     0.2701

*** tstop() called on ds3 at Mon Apr 27 22:49:55 2020
Module time:
	user time   =      60.63 seconds =       1.01 minutes
	system time =      31.85 seconds =       0.53 minutes
	total time  =         87 seconds =       1.45 minutes
Total time:
	user time   =      60.63 seconds =       1.01 minutes
	system time =      31.85 seconds =       0.53 minutes
	total time  =         87 seconds =       1.45 minutes
                                     G D M A

                                 by Anthony Stone

                           version 2.2.06, 22 June 2011

               Distributed Multipoles from Gaussian wavefunctions

Starting at 22:49:55 on 27 Apr 2020

Using SCF density matrix from file ./SSI/SSI-071PHE-108ILE-1-dimer.test.11348.fchk

                         Distributed Multipole Analysis

Standard DMA

Positions and radii in angstrom
Multipole moments in atomic units, ea_0^k for rank k

C          x =  0.772105  y =  3.363762  z =  1.493916 angstrom
           Maximum rank =  0   Radius =  0.650 angstrom
                   Q00  =  -0.205112

C          x = -0.870895  y = -0.143238  z = -0.320084 angstrom
           Maximum rank =  0   Radius =  0.650 angstrom
                   Q00  =  -0.090551

C          x = -1.232895  y =  1.104762  z = -0.797084 angstrom
           Maximum rank =  0   Radius =  0.650 angstrom
                   Q00  =  -0.081861

C          x =  0.033105  y = -0.226238  z =  0.714916 angstrom
           Maximum rank =  0   Radius =  0.650 angstrom
                   Q00  =   0.012538

C          x = -0.675895  y =  2.266762  z = -0.214084 angstrom
           Maximum rank =  0   Radius =  0.650 angstrom
                   Q00  =  -0.098963

C          x =  0.538105  y =  0.922762  z =  1.311916 angstrom
           Maximum rank =  0   Radius =  0.650 angstrom
                   Q00  =  -0.045918

C          x =  0.184105  y =  2.162762  z =  0.861916 angstrom
           Maximum rank =  0   Radius =  0.650 angstrom
                   Q00  =  -0.084123

H          x = -1.280895  y = -1.038238  z = -0.765084 angstrom
           Maximum rank =  0   Radius =  0.325 angstrom
                   Q00  =   0.062717

H          x = -1.938895  y =  1.176762  z = -1.611084 angstrom
           Maximum rank =  0   Radius =  0.325 angstrom
                   Q00  =   0.065410

H          x =  0.323105  y = -1.199238  z =  1.084916 angstrom
           Maximum rank =  0   Radius =  0.325 angstrom
                   Q00  =   0.060894

H          x = -0.952895  y =  3.240762  z = -0.591084 angstrom
           Maximum rank =  0   Radius =  0.325 angstrom
                   Q00  =   0.058589

H          x =  1.213105  y =  0.832762  z =  2.148916 angstrom
           Maximum rank =  0   Radius =  0.325 angstrom
                   Q00  =   0.049311

H          x =  0.664105  y =  3.292762  z =  2.576916 angstrom
           Maximum rank =  0   Radius =  0.325 angstrom
                   Q00  =   0.098559

H          x =  0.195105  y =  4.229762  z =  1.169916 angstrom
           Maximum rank =  0   Radius =  0.325 angstrom
                   Q00  =   0.093866

H          x =  1.830745  y =  3.516224  z =  1.236946 angstrom
           Maximum rank =  0   Radius =  0.325 angstrom
                   Q00  =   0.103622

C          x =  0.094105  y = -3.616238  z = -1.210084 angstrom
           Maximum rank =  0   Radius =  0.650 angstrom
                   Q00  =  -0.262089

C          x =  0.902105  y = -4.880238  z = -1.574084 angstrom
           Maximum rank =  0   Radius =  0.650 angstrom
                   Q00  =  -0.225110

H          x = -0.274895  y = -3.687238  z = -0.185084 angstrom
           Maximum rank =  0   Radius =  0.325 angstrom
                   Q00  =   0.077108

H          x =  0.716105  y = -2.726238  z = -1.299084 angstrom
           Maximum rank =  0   Radius =  0.325 angstrom
                   Q00  =   0.085890

H          x = -0.750895  y = -3.479238  z = -1.886084 angstrom
           Maximum rank =  0   Radius =  0.325 angstrom
                   Q00  =   0.079381

H          x =  1.188105  y = -4.796238  z = -2.625084 angstrom
           Maximum rank =  0   Radius =  0.325 angstrom
                   Q00  =   0.079557

H          x =  0.295195  y = -5.790965  z = -1.463474 angstrom
           Maximum rank =  0   Radius =  0.325 angstrom
                   Q00  =   0.082683

H          x =  1.821745  y = -4.940929  z = -0.973604 angstrom
           Maximum rank =  0   Radius =  0.325 angstrom
                   Q00  =   0.083600

Total multipoles referred to origin at
           x =   0.000000,  y =    0.000000,  z =    0.000000 angstrom
                   Q00  =  -0.000000

Finished at 22:49:55 on 27 Apr 2020

  DMA results are available in the Python driver through the
	  variable('DMA DISTRIBUTED MULTIPOLES')
  and
	  variable('DMA TOTAL MULTIPOLES')
  commands.

    Psi4 stopped on: Monday, 27 April 2020 10:49PM
    Psi4 wall time for execution: 0:01:27.94

*** Psi4 exiting successfully. Buy a developer a beer!
