                               Psi4 1.3.2 release

  ==> Input File <==

--------------------------------------------------------------------------
import numpy as np
set {scf_type pk
basis cc-pvdz
d_convergence 10
gdma_switch   0
gdma_limit    0
gdma_origin   [ 0.0,  0.0,  0.0 ]
}
molecule test {
    units Angstrom
    0 1
    --
    0 1
    C                1.534754137068037    -0.760083808386879    -1.377775934718280
    C                1.153754137068037     0.591916191613121    -2.047775934718280
    C                0.436754137068037    -1.855083808386879    -1.383775934718280
    H                2.424754137068037    -1.163083808386879    -1.861775934718280
    H                1.773754137068037    -0.592083808386879    -0.331775934718280
    H                0.213754137068037     0.948916191613121    -1.626775934718280
    H                0.197754137068037    -2.142083808386879    -2.408775934718280
    H                0.803754137068037    -2.731083808386879    -0.853775934718280
    H               -0.463245862931963    -1.485083808386879    -0.892775934718280
    H                1.897494137068037     1.395586191613121    -1.943074934718280
    H                1.006224137068037     0.419456191613121    -3.124108934718280
    C               -0.465245862931963     0.838916191613121     1.512224065281720
    C               -1.684245862931963     1.703916191613121     1.142224065281720
    C               -0.904245862931963    -0.510083808386879     2.153224065281720
    H                0.114754137068037     0.635916191613121     0.619224065281720
    H                0.171754137068037     1.380916191613121     2.215224065281720
    H               -2.344245862931963     1.162916191613121     0.455224065281720
    H               -1.542245862931963    -0.332083808386879     3.013224065281720
    H               -1.461245862931963    -1.095083808386879     1.419224065281720
    H               -1.367715862931963     2.670376191613121     0.722994065281720
    H               -2.213005862931963     1.921596191613121     2.081924065281720
    H               -0.063925862931963    -1.108173808386879     2.535514065281721

}
e, wfn = energy('scf', return_wfn=True)
gdma(wfn)
dmavals = variable('DMA DISTRIBUTED MULTIPOLES')
charges = np.array(dmavals)
print(charges)
np.save('SSI-237ILE-269ARG-1-dimer.npy', np.array(charges))--------------------------------------------------------------------------

*** tstart() called on ds3
*** at Tue Apr 28 20:03:57 2020

   => Loading Basis Set <=

    Name: CC-PVDZ
    Role: ORBITAL
    Keyword: BASIS
    atoms 1-3, 12-14  entry C          line   138 file /theoryfs2/ds/metcalf/miniconda2/envs/tf2gpu/share/psi4/basis/cc-pvdz.gbs
    atoms 4-11, 15-22 entry H          line    22 file /theoryfs2/ds/metcalf/miniconda2/envs/tf2gpu/share/psi4/basis/cc-pvdz.gbs

         ---------------------------------------------------------
                                   SCF
               by Justin Turney, Rob Parrish, Andy Simmonett
                          and Daniel G. A. Smith
                              RHF Reference
                        1 Threads,    500 MiB Core
         ---------------------------------------------------------

  ==> Geometry <==

    Molecular point group: c1
    Full point group: C1

    Geometry (in Angstrom), charge = 0, multiplicity = 1:

       Center              X                  Y                   Z               Mass
    ------------   -----------------  -----------------  -----------------  -----------------
         C            1.534754137068    -0.760083808387    -1.377775934718    12.000000000000
         C            1.153754137068     0.591916191613    -2.047775934718    12.000000000000
         C            0.436754137068    -1.855083808387    -1.383775934718    12.000000000000
         H            2.424754137068    -1.163083808387    -1.861775934718     1.007825032230
         H            1.773754137068    -0.592083808387    -0.331775934718     1.007825032230
         H            0.213754137068     0.948916191613    -1.626775934718     1.007825032230
         H            0.197754137068    -2.142083808387    -2.408775934718     1.007825032230
         H            0.803754137068    -2.731083808387    -0.853775934718     1.007825032230
         H           -0.463245862932    -1.485083808387    -0.892775934718     1.007825032230
         H            1.897494137068     1.395586191613    -1.943074934718     1.007825032230
         H            1.006224137068     0.419456191613    -3.124108934718     1.007825032230
         C           -0.465245862932     0.838916191613     1.512224065282    12.000000000000
         C           -1.684245862932     1.703916191613     1.142224065282    12.000000000000
         C           -0.904245862932    -0.510083808387     2.153224065282    12.000000000000
         H            0.114754137068     0.635916191613     0.619224065282     1.007825032230
         H            0.171754137068     1.380916191613     2.215224065282     1.007825032230
         H           -2.344245862932     1.162916191613     0.455224065282     1.007825032230
         H           -1.542245862932    -0.332083808387     3.013224065282     1.007825032230
         H           -1.461245862932    -1.095083808387     1.419224065282     1.007825032230
         H           -1.367715862932     2.670376191613     0.722994065282     1.007825032230
         H           -2.213005862932     1.921596191613     2.081924065282     1.007825032230
         H           -0.063925862932    -1.108173808387     2.535514065282     1.007825032230

  Running in c1 symmetry.

  Rotational constants: A =      0.12432  B =      0.04177  C =      0.03507 [cm^-1]
  Rotational constants: A =   3726.96455  B =   1252.15642  C =   1051.28806 [MHz]
  Nuclear repulsion =  246.187865945384289

  Charge       = 0
  Multiplicity = 1
  Electrons    = 52
  Nalpha       = 26
  Nbeta        = 26

  ==> Algorithm <==

  SCF Algorithm Type is PK.
  DIIS enabled.
  MOM disabled.
  Fractional occupation disabled.
  Guess Type is SAD.
  Energy threshold   = 1.00e-06
  Density threshold  = 1.00e-10
  Integral threshold = 0.00e+00

  ==> Primary Basis <==

  Basis Set: CC-PVDZ
    Blend: CC-PVDZ
    Number of shells: 84
    Number of basis function: 164
    Number of Cartesian functions: 170
    Spherical Harmonics?: true
    Max angular momentum: 2

  ==> Pre-Iterations <==

   -------------------------------------------------------
    Irrep   Nso     Nmo     Nalpha   Nbeta   Ndocc  Nsocc
   -------------------------------------------------------
     A        164     164       0       0       0       0
   -------------------------------------------------------
    Total     164     164      26      26      26       0
   -------------------------------------------------------

  ==> Integral Setup <==

  Using integral reordering PK algorithm.
  Sizing the integral batches needed.
  Building batch lookup table.
   Calculation information:
      Number of atoms:                  22
      Number of AO shells:              84
      Number of primitives:            212
      Number of atomic orbitals:       170
      Number of basis functions:       164

      Integral cutoff                 1.00e-12
      Number of threads:                 1

	Batch   1 pq = [       0,    9405] index = [             0,44231715] size =     44231715
	Batch   2 pq = [    9405,   13530] index = [      44231715,91537215] size =     47305500
  Task number: 9
  Buffer size: 11059200
  Buffer per thread: 2
  We computed 6165631 shell quartets total.
  Whereas there are 6374235 unique shell quartets.

  ==> DiskJK: Disk-Based J/K Matrices <==

    J tasked:                  Yes
    K tasked:                  Yes
    wK tasked:                  No
    Memory [MiB]:              375
    Schwarz Cutoff:          1E-12

    OpenMP threads:              1

  Minimum eigenvalue in the overlap matrix is 5.7283594599E-03.
  Using Symmetric Orthogonalization.

  SCF Guess: Superposition of Atomic Densities via on-the-fly atomic UHF.

  ==> Iterations <==

                        Total Energy        Delta E     RMS |[F,P]|

   @RHF iter SAD:  -235.25233972709484   -2.35252e+02   0.00000e+00
   @RHF iter   1:  -236.32314375228901   -1.07080e+00   3.40205e-03 DIIS
   @RHF iter   2:  -236.50341557861009   -1.80272e-01   1.45389e-03 DIIS
   @RHF iter   3:  -236.53428573935872   -3.08702e-02   3.01968e-04 DIIS
   @RHF iter   4:  -236.53684084742997   -2.55511e-03   4.95761e-05 DIIS
   @RHF iter   5:  -236.53689297391111   -5.21265e-05   1.39510e-05 DIIS
   @RHF iter   6:  -236.53689728205518   -4.30814e-06   2.30393e-06 DIIS
   @RHF iter   7:  -236.53689741856937   -1.36514e-07   4.48665e-07 DIIS
   @RHF iter   8:  -236.53689742531205   -6.74268e-09   8.88939e-08 DIIS
   @RHF iter   9:  -236.53689742559988   -2.87827e-10   2.21127e-08 DIIS
   @RHF iter  10:  -236.53689742561656   -1.66835e-11   5.88963e-09 DIIS
   @RHF iter  11:  -236.53689742561846   -1.90425e-12   1.40228e-09 DIIS
   @RHF iter  12:  -236.53689742561838    8.52651e-14   3.47392e-10 DIIS
   @RHF iter  13:  -236.53689742561755    8.24230e-13   6.69583e-11 DIIS
  Energy and wave function converged.

  ==> Post-Iterations <==

    Orbital Energies [Eh]
    ---------------------

    Doubly Occupied:

       1A    -11.223676     2A    -11.222071     3A    -11.220649
       4A    -11.219865     5A    -11.218134     6A    -11.217794
       7A     -1.048865     8A     -1.043662     9A     -0.925896
      10A     -0.921163    11A     -0.800654    12A     -0.798848
      13A     -0.635481    14A     -0.614503    15A     -0.591947
      16A     -0.591174    17A     -0.545829    18A     -0.542867
      19A     -0.537357    20A     -0.527829    21A     -0.477631
      22A     -0.474869    23A     -0.471645    24A     -0.469405
      25A     -0.468388    26A     -0.459483

    Virtual:

      27A      0.164843    28A      0.198057    29A      0.205854
      30A      0.214483    31A      0.238197    32A      0.250716
      33A      0.252551    34A      0.257326    35A      0.262787
      36A      0.280279    37A      0.288123    38A      0.293250
      39A      0.301576    40A      0.308571    41A      0.346643
      42A      0.349906    43A      0.374843    44A      0.379402
      45A      0.417831    46A      0.426962    47A      0.552070
      48A      0.570317    49A      0.583746    50A      0.614097
      51A      0.618721    52A      0.620407    53A      0.628256
      54A      0.648403    55A      0.708486    56A      0.745504
      57A      0.769421    58A      0.792681    59A      0.810819
      60A      0.828354    61A      0.837317    62A      0.841016
      63A      0.860170    64A      0.871138    65A      0.878834
      66A      0.885533    67A      0.897055    68A      0.904972
      69A      0.908122    70A      0.912142    71A      0.919182
      72A      0.925798    73A      0.935146    74A      0.941537
      75A      0.946105    76A      0.975688    77A      0.983700
      78A      1.005064    79A      1.013941    80A      1.089932
      81A      1.111909    82A      1.129374    83A      1.131765
      84A      1.135985    85A      1.208155    86A      1.302178
      87A      1.355560    88A      1.359648    89A      1.450916
      90A      1.471004    91A      1.483209    92A      1.503941
      93A      1.512671    94A      1.538903    95A      1.608896
      96A      1.625113    97A      1.672951    98A      1.682564
      99A      1.689122   100A      1.693024   101A      1.710204
     102A      1.716668   103A      1.832048   104A      1.850403
     105A      1.859622   106A      1.866610   107A      1.880637
     108A      1.901222   109A      1.907072   110A      1.920857
     111A      1.929443   112A      1.942278   113A      1.948081
     114A      1.953614   115A      1.959400   116A      1.966645
     117A      1.973084   118A      1.975175   119A      1.984892
     120A      1.989780   121A      2.002586   122A      2.008954
     123A      2.024305   124A      2.030647   125A      2.056415
     126A      2.070883   127A      2.105073   128A      2.109197
     129A      2.154971   130A      2.174896   131A      2.275498
     132A      2.290056   133A      2.303853   134A      2.312216
     135A      2.318972   136A      2.322735   137A      2.332838
     138A      2.341714   139A      2.481437   140A      2.499761
     141A      2.529184   142A      2.537112   143A      2.571428
     144A      2.582340   145A      2.602815   146A      2.609953
     147A      2.622857   148A      2.628507   149A      2.749153
     150A      2.760464   151A      2.770374   152A      2.775326
     153A      2.803665   154A      2.806126   155A      2.810677
     156A      2.818735   157A      2.892062   158A      2.938737
     159A      2.960344   160A      2.969362   161A      2.973485
     162A      2.983201   163A      3.065436   164A      3.111061

    Final Occupation by Irrep:
              A
    DOCC [    26 ]

  @RHF Final Energy:  -236.53689742561755

   => Energetics <=

    Nuclear Repulsion Energy =            246.1878659453842886
    One-Electron Energy =                -804.9101557913371607
    Two-Electron Energy =                 322.1853924203353472
    Total Energy =                       -236.5368974256175534

Computation Completed

Properties will be evaluated at   0.000000,   0.000000,   0.000000 [a0]

Properties computed using the SCF density matrix

  Nuclear Dipole Moment: [e a0]
     X:    -0.7984      Y:    -0.1060      Z:     0.0185

  Electronic Dipole Moment: [e a0]
     X:     0.8521      Y:     0.1045      Z:    -0.0028

  Dipole Moment: [e a0]
     X:     0.0537      Y:    -0.0015      Z:     0.0156     Total:     0.0560

  Dipole Moment: [D]
     X:     0.1366      Y:    -0.0038      Z:     0.0397     Total:     0.1423

*** tstop() called on ds3 at Tue Apr 28 20:04:42 2020
Module time:
	user time   =      34.39 seconds =       0.57 minutes
	system time =      12.03 seconds =       0.20 minutes
	total time  =         45 seconds =       0.75 minutes
Total time:
	user time   =      34.39 seconds =       0.57 minutes
	system time =      12.03 seconds =       0.20 minutes
	total time  =         45 seconds =       0.75 minutes
                                     G D M A

                                 by Anthony Stone

                           version 2.2.06, 22 June 2011

               Distributed Multipoles from Gaussian wavefunctions

Starting at 20:4:42 on 28 Apr 2020

Using SCF density matrix from file ./SSI/SSI-237ILE-269ARG-1-dimer.test.22136.fchk

                         Distributed Multipole Analysis

Standard DMA

Positions and radii in angstrom
Multipole moments in atomic units, ea_0^k for rank k

C          x =  1.534754  y = -0.760084  z = -1.377776 angstrom
           Maximum rank =  0   Radius =  0.650 angstrom
                   Q00  =  -0.095686

C          x =  1.153754  y =  0.591916  z = -2.047776 angstrom
           Maximum rank =  0   Radius =  0.650 angstrom
                   Q00  =  -0.245817

C          x =  0.436754  y = -1.855084  z = -1.383776 angstrom
           Maximum rank =  0   Radius =  0.650 angstrom
                   Q00  =  -0.251405

H          x =  2.424754  y = -1.163084  z = -1.861776 angstrom
           Maximum rank =  0   Radius =  0.325 angstrom
                   Q00  =   0.051987

H          x =  1.773754  y = -0.592084  z = -0.331776 angstrom
           Maximum rank =  0   Radius =  0.325 angstrom
                   Q00  =   0.047310

H          x =  0.213754  y =  0.948916  z = -1.626776 angstrom
           Maximum rank =  0   Radius =  0.325 angstrom
                   Q00  =   0.078950

H          x =  0.197754  y = -2.142084  z = -2.408776 angstrom
           Maximum rank =  0   Radius =  0.325 angstrom
                   Q00  =   0.078110

H          x =  0.803754  y = -2.731084  z = -0.853776 angstrom
           Maximum rank =  0   Radius =  0.325 angstrom
                   Q00  =   0.089216

H          x = -0.463246  y = -1.485084  z = -0.892776 angstrom
           Maximum rank =  0   Radius =  0.325 angstrom
                   Q00  =   0.081441

H          x =  1.897494  y =  1.395586  z = -1.943075 angstrom
           Maximum rank =  0   Radius =  0.325 angstrom
                   Q00  =   0.091324

H          x =  1.006224  y =  0.419456  z = -3.124109 angstrom
           Maximum rank =  0   Radius =  0.325 angstrom
                   Q00  =   0.077468

C          x = -0.465246  y =  0.838916  z =  1.512224 angstrom
           Maximum rank =  0   Radius =  0.650 angstrom
                   Q00  =  -0.091419

C          x = -1.684246  y =  1.703916  z =  1.142224 angstrom
           Maximum rank =  0   Radius =  0.650 angstrom
                   Q00  =  -0.236230

C          x = -0.904246  y = -0.510084  z =  2.153224 angstrom
           Maximum rank =  0   Radius =  0.650 angstrom
                   Q00  =  -0.266535

H          x =  0.114754  y =  0.635916  z =  0.619224 angstrom
           Maximum rank =  0   Radius =  0.325 angstrom
                   Q00  =   0.054540

H          x =  0.171754  y =  1.380916  z =  2.215224 angstrom
           Maximum rank =  0   Radius =  0.325 angstrom
                   Q00  =   0.052515

H          x = -2.344246  y =  1.162916  z =  0.455224 angstrom
           Maximum rank =  0   Radius =  0.325 angstrom
                   Q00  =   0.079556

H          x = -1.542246  y = -0.332084  z =  3.013224 angstrom
           Maximum rank =  0   Radius =  0.325 angstrom
                   Q00  =   0.079512

H          x = -1.461246  y = -1.095084  z =  1.419224 angstrom
           Maximum rank =  0   Radius =  0.325 angstrom
                   Q00  =   0.078549

H          x = -1.367716  y =  2.670376  z =  0.722994 angstrom
           Maximum rank =  0   Radius =  0.325 angstrom
                   Q00  =   0.085704

H          x = -2.213006  y =  1.921596  z =  2.081924 angstrom
           Maximum rank =  0   Radius =  0.325 angstrom
                   Q00  =   0.075348

H          x = -0.063926  y = -1.108174  z =  2.535514 angstrom
           Maximum rank =  0   Radius =  0.325 angstrom
                   Q00  =   0.085562

Total multipoles referred to origin at
           x =   0.000000,  y =    0.000000,  z =    0.000000 angstrom
                   Q00  =  -0.000000

Finished at 20:4:42 on 28 Apr 2020

  DMA results are available in the Python driver through the
	  variable('DMA DISTRIBUTED MULTIPOLES')
  and
	  variable('DMA TOTAL MULTIPOLES')
  commands.

    Psi4 stopped on: Tuesday, 28 April 2020 08:04PM
    Psi4 wall time for execution: 0:00:45.03

*** Psi4 exiting successfully. Buy a developer a beer!
