                               Psi4 1.3.2 release

  ==> Input File <==

--------------------------------------------------------------------------
import numpy as np
set {scf_type pk
basis cc-pvdz
d_convergence 10
gdma_switch   0
gdma_limit    0
gdma_origin   [ 0.0,  0.0,  0.0 ]
}
molecule test {
    units Angstrom
    0 1
    --
    0 1
    C                3.283915793454415    -0.662737208657888    -0.106637010892811
    C                0.663915793453415    -0.483737208657888    -0.618637010892811
    C                2.033915793453415    -0.749737208657888    -0.994637010892811
    C               -0.153084206546585    -0.678737208657888    -1.769637010892811
    C                1.992915793453415    -1.094737208657888    -2.313637010892811
    C               -1.363084206546585     0.073262791342112     0.602362989107189
    C               -2.138084206545585    -0.122737208657888    -0.547637010892811
    C                0.034915793453415    -0.094737208657888     0.578362989107189
    C               -1.538084206546585    -0.499737208657888    -1.750637010892811
    N                0.690915793453415    -1.058737208657888    -2.783637010892810
    H               -1.840084206545585     0.359262791342112     1.529362989107189
    H               -3.207084206545585     0.019262791342112    -0.497637010892811
    H                0.600915793453415     0.081262791342112     1.488362989107189
    H               -2.099084206545585    -0.660737208657888    -2.660637010892811
    H                3.978915793454415    -1.434737208657888    -0.445637010892811
    H                2.976915793453415    -0.898737208657888     0.917362989107189
    H                2.914915793454415    -1.344737208657888    -2.825637010892810
    H                0.395915793453415    -1.286737208657888    -3.727637010892810
    H                3.774895793454415     0.321362791342112    -0.128627010892811
    C               -1.359084206546585     2.083262791342112     3.656362989107189
    C               -2.037084206545585     2.673262791342112     4.895362989107189
    H               -1.678084206546585     2.625262791342112     2.765362989107189
    H               -0.281084206546585     2.167262791342112     3.754362989107189
    H               -1.634084206546585     1.033262791342112     3.559362989107189
    H               -1.800084206546585     3.735262791342112     4.973362989107190
    H               -3.123295206545585     2.568562791342112     4.756892989107189
    H               -1.686240206545585     2.151962791342112     5.798252989107189

}
e, wfn = energy('scf', return_wfn=True)
gdma(wfn)
dmavals = variable('DMA DISTRIBUTED MULTIPOLES')
charges = np.array(dmavals)
print(charges)
np.save('SSI-112TRP-120VAL-1-dimer.npy', np.array(charges))--------------------------------------------------------------------------

*** tstart() called on ds3
*** at Mon Apr 27 19:17:37 2020

   => Loading Basis Set <=

    Name: CC-PVDZ
    Role: ORBITAL
    Keyword: BASIS
    atoms 1-9, 20-21   entry C          line   138 file /theoryfs2/ds/metcalf/miniconda2/envs/tf2gpu/share/psi4/basis/cc-pvdz.gbs
    atoms 10           entry N          line   168 file /theoryfs2/ds/metcalf/miniconda2/envs/tf2gpu/share/psi4/basis/cc-pvdz.gbs
    atoms 11-19, 22-27 entry H          line    22 file /theoryfs2/ds/metcalf/miniconda2/envs/tf2gpu/share/psi4/basis/cc-pvdz.gbs

         ---------------------------------------------------------
                                   SCF
               by Justin Turney, Rob Parrish, Andy Simmonett
                          and Daniel G. A. Smith
                              RHF Reference
                        1 Threads,    500 MiB Core
         ---------------------------------------------------------

  ==> Geometry <==

    Molecular point group: c1
    Full point group: C1

    Geometry (in Angstrom), charge = 0, multiplicity = 1:

       Center              X                  Y                   Z               Mass
    ------------   -----------------  -----------------  -----------------  -----------------
         C            3.283915793454    -0.662737208658    -0.106637010893    12.000000000000
         C            0.663915793453    -0.483737208658    -0.618637010893    12.000000000000
         C            2.033915793453    -0.749737208658    -0.994637010893    12.000000000000
         C           -0.153084206547    -0.678737208658    -1.769637010893    12.000000000000
         C            1.992915793453    -1.094737208658    -2.313637010893    12.000000000000
         C           -1.363084206547     0.073262791342     0.602362989107    12.000000000000
         C           -2.138084206546    -0.122737208658    -0.547637010893    12.000000000000
         C            0.034915793453    -0.094737208658     0.578362989107    12.000000000000
         C           -1.538084206547    -0.499737208658    -1.750637010893    12.000000000000
         N            0.690915793453    -1.058737208658    -2.783637010893    14.003074004430
         H           -1.840084206546     0.359262791342     1.529362989107     1.007825032230
         H           -3.207084206546     0.019262791342    -0.497637010893     1.007825032230
         H            0.600915793453     0.081262791342     1.488362989107     1.007825032230
         H           -2.099084206546    -0.660737208658    -2.660637010893     1.007825032230
         H            3.978915793454    -1.434737208658    -0.445637010893     1.007825032230
         H            2.976915793453    -0.898737208658     0.917362989107     1.007825032230
         H            2.914915793454    -1.344737208658    -2.825637010893     1.007825032230
         H            0.395915793453    -1.286737208658    -3.727637010893     1.007825032230
         H            3.774895793454     0.321362791342    -0.128627010893     1.007825032230
         C           -1.359084206547     2.083262791342     3.656362989107    12.000000000000
         C           -2.037084206546     2.673262791342     4.895362989107    12.000000000000
         H           -1.678084206547     2.625262791342     2.765362989107     1.007825032230
         H           -0.281084206547     2.167262791342     3.754362989107     1.007825032230
         H           -1.634084206547     1.033262791342     3.559362989107     1.007825032230
         H           -1.800084206547     3.735262791342     4.973362989107     1.007825032230
         H           -3.123295206546     2.568562791342     4.756892989107     1.007825032230
         H           -1.686240206546     2.151962791342     5.798252989107     1.007825032230

  Running in c1 symmetry.

  Rotational constants: A =      0.04849  B =      0.01316  C =      0.01051 [cm^-1]
  Rotational constants: A =   1453.80132  B =    394.60197  C =    314.95954 [MHz]
  Nuclear repulsion =  632.300358353096954

  Charge       = 0
  Multiplicity = 1
  Electrons    = 88
  Nalpha       = 44
  Nbeta        = 44

  ==> Algorithm <==

  SCF Algorithm Type is PK.
  DIIS enabled.
  MOM disabled.
  Fractional occupation disabled.
  Guess Type is SAD.
  Energy threshold   = 1.00e-06
  Density threshold  = 1.00e-10
  Integral threshold = 0.00e+00

  ==> Primary Basis <==

  Basis Set: CC-PVDZ
    Blend: CC-PVDZ
    Number of shells: 117
    Number of basis function: 243
    Number of Cartesian functions: 255
    Spherical Harmonics?: true
    Max angular momentum: 2

  ==> Pre-Iterations <==

   -------------------------------------------------------
    Irrep   Nso     Nmo     Nalpha   Nbeta   Ndocc  Nsocc
   -------------------------------------------------------
     A        243     243       0       0       0       0
   -------------------------------------------------------
    Total     243     243      44      44      44       0
   -------------------------------------------------------

  ==> Integral Setup <==

  Using integral reordering PK algorithm.
  Sizing the integral batches needed.
  Building batch lookup table.
   Calculation information:
      Number of atoms:                  27
      Number of AO shells:             117
      Number of primitives:            339
      Number of atomic orbitals:       255
      Number of basis functions:       243

      Integral cutoff                 1.00e-12
      Number of threads:                 1

	Batch   1 pq = [       0,    9405] index = [             0,44231715] size =     44231715
	Batch   2 pq = [    9405,   13301] index = [      44231715,88464951] size =     44233236
	Batch   3 pq = [   13301,   16290] index = [      88464951,132690195] size =     44225244
	Batch   4 pq = [   16290,   18810] index = [     132690195,176917455] size =     44227260
	Batch   5 pq = [   18810,   21030] index = [     176917455,221140965] size =     44223510
	Batch   6 pq = [   21030,   23037] index = [     221140965,265363203] size =     44222238
	Batch   7 pq = [   23037,   24883] index = [     265363203,309594286] size =     44231083
	Batch   8 pq = [   24883,   26601] index = [     309594286,353819901] size =     44225615
	Batch   9 pq = [   26601,   28214] index = [     353819901,398029005] size =     44209104
	Batch  10 pq = [   28214,   29646] index = [     398029005,439457481] size =     41428476
  Task number: 40
  Buffer size: 11059200
  Buffer per thread: 2
  We computed 18194972 shell quartets total.
  Whereas there are 23829156 unique shell quartets.

  ==> DiskJK: Disk-Based J/K Matrices <==

    J tasked:                  Yes
    K tasked:                  Yes
    wK tasked:                  No
    Memory [MiB]:              375
    Schwarz Cutoff:          1E-12

    OpenMP threads:              1

  Minimum eigenvalue in the overlap matrix is 2.4921999022E-04.
  Using Symmetric Orthogonalization.

  SCF Guess: Superposition of Atomic Densities via on-the-fly atomic UHF.

  ==> Iterations <==

                        Total Energy        Delta E     RMS |[F,P]|

   @RHF iter SAD:  -478.85400937392052   -4.78854e+02   0.00000e+00
   @RHF iter   1:  -479.48941060678595   -6.35401e-01   2.56636e-03 DIIS
   @RHF iter   2:  -479.71786887028378   -2.28458e-01   1.12341e-03 DIIS
   @RHF iter   3:  -479.75756855784624   -3.96997e-02   2.98479e-04 DIIS
   @RHF iter   4:  -479.76130314053802   -3.73458e-03   1.36938e-04 DIIS
   @RHF iter   5:  -479.76192995473082   -6.26814e-04   1.99523e-05 DIIS
   @RHF iter   6:  -479.76195906885084   -2.91141e-05   9.10738e-06 DIIS
   @RHF iter   7:  -479.76196489023374   -5.82138e-06   3.78340e-06 DIIS
   @RHF iter   8:  -479.76196654359410   -1.65336e-06   1.48450e-06 DIIS
   @RHF iter   9:  -479.76196687169727   -3.28103e-07   6.50166e-07 DIIS
   @RHF iter  10:  -479.76196693661859   -6.49213e-08   3.05246e-07 DIIS
   @RHF iter  11:  -479.76196695300985   -1.63913e-08   1.14821e-07 DIIS
   @RHF iter  12:  -479.76196695535640   -2.34655e-09   4.08093e-08 DIIS
   @RHF iter  13:  -479.76196695554574   -1.89345e-10   1.23405e-08 DIIS
   @RHF iter  14:  -479.76196695555370   -7.95808e-12   5.66132e-09 DIIS
   @RHF iter  15:  -479.76196695556177   -8.07177e-12   2.72423e-09 DIIS
   @RHF iter  16:  -479.76196695556564   -3.86535e-12   1.12314e-09 DIIS
   @RHF iter  17:  -479.76196695556359    2.04636e-12   4.79904e-10 DIIS
   @RHF iter  18:  -479.76196695556058    3.01270e-12   1.78557e-10 DIIS
   @RHF iter  19:  -479.76196695556149   -9.09495e-13   6.49239e-11 DIIS
  Energy and wave function converged.

  ==> Post-Iterations <==

    Orbital Energies [Eh]
    ---------------------

    Doubly Occupied:

       1A    -15.602522     2A    -11.264881     3A    -11.264848
       4A    -11.231998     5A    -11.231716     6A    -11.231228
       7A    -11.229695     8A    -11.222534     9A    -11.220318
      10A    -11.219719    11A    -11.217856    12A    -11.214401
      13A     -1.290049    14A     -1.121438    15A     -1.067599
      16A     -1.017288    17A     -0.990283    18A     -0.984438
      19A     -0.929393    20A     -0.836682    21A     -0.834116
      22A     -0.800625    23A     -0.749110    24A     -0.716514
      25A     -0.663984    26A     -0.637981    27A     -0.599503
      28A     -0.597732    29A     -0.596664    30A     -0.587685
      31A     -0.586769    32A     -0.563556    33A     -0.552732
      34A     -0.531438    35A     -0.526773    36A     -0.500279
      37A     -0.489079    38A     -0.486432    39A     -0.480736
      40A     -0.468303    41A     -0.456977    42A     -0.371310
      43A     -0.292513    44A     -0.274167

    Virtual:

      45A      0.124737    46A      0.169097    47A      0.179834
      48A      0.182865    49A      0.191468    50A      0.208378
      51A      0.220529    52A      0.221840    53A      0.234034
      54A      0.252826    55A      0.255501    56A      0.260688
      57A      0.270098    58A      0.284636    59A      0.286913
      60A      0.292948    61A      0.312674    62A      0.341194
      63A      0.366825    64A      0.380809    65A      0.383434
      66A      0.397037    67A      0.427237    68A      0.452133
      69A      0.467640    70A      0.478101    71A      0.503267
      72A      0.511853    73A      0.587270    74A      0.598965
      75A      0.609140    76A      0.613095    77A      0.629494
      78A      0.639412    79A      0.653840    80A      0.663385
      81A      0.687965    82A      0.692773    83A      0.699658
      84A      0.714923    85A      0.719186    86A      0.723869
      87A      0.736129    88A      0.745750    89A      0.751424
      90A      0.757291    91A      0.764316    92A      0.772985
      93A      0.784466    94A      0.789760    95A      0.799362
      96A      0.833703    97A      0.851389    98A      0.863269
      99A      0.873652   100A      0.880914   101A      0.891618
     102A      0.894816   103A      0.895427   104A      0.901946
     105A      0.905585   106A      0.916443   107A      0.921355
     108A      0.930184   109A      0.942732   110A      0.949308
     111A      0.951549   112A      0.965688   113A      0.974267
     114A      0.993866   115A      0.996745   116A      1.013306
     117A      1.050482   118A      1.075171   119A      1.090257
     120A      1.120810   121A      1.128452   122A      1.132370
     123A      1.140367   124A      1.150540   125A      1.173160
     126A      1.197054   127A      1.212447   128A      1.222807
     129A      1.233749   130A      1.236797   131A      1.247285
     132A      1.274210   133A      1.283335   134A      1.287160
     135A      1.300713   136A      1.324250   137A      1.335135
     138A      1.357636   139A      1.365149   140A      1.422945
     141A      1.449210   142A      1.480049   143A      1.487776
     144A      1.512851   145A      1.537421   146A      1.566135
     147A      1.581075   148A      1.600675   149A      1.614754
     150A      1.635928   151A      1.647077   152A      1.675921
     153A      1.685869   154A      1.692299   155A      1.700112
     156A      1.739150   157A      1.759729   158A      1.774868
     159A      1.779048   160A      1.810050   161A      1.827292
     162A      1.832850   163A      1.857845   164A      1.866360
     165A      1.884428   166A      1.889949   167A      1.893857
     168A      1.901412   169A      1.907511   170A      1.920385
     171A      1.929539   172A      1.931613   173A      1.938156
     174A      1.944960   175A      1.953160   176A      1.960155
     177A      1.971163   178A      1.972333   179A      1.983983
     180A      1.995737   181A      2.009136   182A      2.024110
     183A      2.035890   184A      2.065093   185A      2.072493
     186A      2.087446   187A      2.091868   188A      2.103375
     189A      2.107688   190A      2.117510   191A      2.124931
     192A      2.137668   193A      2.159410   194A      2.164747
     195A      2.201265   196A      2.230552   197A      2.258245
     198A      2.268226   199A      2.290842   200A      2.294891
     201A      2.305205   202A      2.330385   203A      2.341749
     204A      2.358004   205A      2.387303   206A      2.398003
     207A      2.448947   208A      2.457448   209A      2.462517
     210A      2.484237   211A      2.524266   212A      2.564762
     213A      2.566775   214A      2.583185   215A      2.584862
     216A      2.616524   217A      2.651591   218A      2.676690
     219A      2.714843   220A      2.763717   221A      2.764817
     222A      2.777650   223A      2.785474   224A      2.794826
     225A      2.798548   226A      2.827292   227A      2.837855
     228A      2.847009   229A      2.848826   230A      2.864929
     231A      2.911218   232A      2.949327   233A      2.952632
     234A      2.960613   235A      2.997023   236A      3.024483
     237A      3.065639   238A      3.103342   239A      3.190212
     240A      3.268731   241A      3.359534   242A      3.726351
     243A      3.928445

    Final Occupation by Irrep:
              A
    DOCC [    44 ]

  @RHF Final Energy:  -479.76196695556149

   => Energetics <=

    Nuclear Repulsion Energy =            632.3003583530969536
    One-Electron Energy =               -1902.6169219381883977
    Two-Electron Energy =                 790.5545966295300104
    Total Energy =                       -479.7619669555614337

Computation Completed

Properties will be evaluated at   0.000000,   0.000000,   0.000000 [a0]

Properties computed using the SCF density matrix

  Nuclear Dipole Moment: [e a0]
     X:    -2.5394      Y:     8.8500      Z:    18.0608

  Electronic Dipole Moment: [e a0]
     X:     2.8124      Y:    -9.0535      Z:   -18.7578

  Dipole Moment: [e a0]
     X:     0.2730      Y:    -0.2034      Z:    -0.6969     Total:     0.7756

  Dipole Moment: [D]
     X:     0.6938      Y:    -0.5171      Z:    -1.7714     Total:     1.9715

*** tstop() called on ds3 at Mon Apr 27 19:25:28 2020
Module time:
	user time   =     149.95 seconds =       2.50 minutes
	system time =      89.87 seconds =       1.50 minutes
	total time  =        471 seconds =       7.85 minutes
Total time:
	user time   =     149.95 seconds =       2.50 minutes
	system time =      89.87 seconds =       1.50 minutes
	total time  =        471 seconds =       7.85 minutes
                                     G D M A

                                 by Anthony Stone

                           version 2.2.06, 22 June 2011

               Distributed Multipoles from Gaussian wavefunctions

Starting at 19:25:28 on 27 Apr 2020

Using SCF density matrix from file ./SSI/SSI-112TRP-120VAL-1-dimer.test.4699.fchk

                         Distributed Multipole Analysis

Standard DMA

Positions and radii in angstrom
Multipole moments in atomic units, ea_0^k for rank k

C          x =  3.283916  y = -0.662737  z = -0.106637 angstrom
           Maximum rank =  0   Radius =  0.650 angstrom
                   Q00  =  -0.206758

C          x =  0.663916  y = -0.483737  z = -0.618637 angstrom
           Maximum rank =  0   Radius =  0.650 angstrom
                   Q00  =  -0.045031

C          x =  2.033916  y = -0.749737  z = -0.994637 angstrom
           Maximum rank =  0   Radius =  0.650 angstrom
                   Q00  =  -0.141490

C          x = -0.153084  y = -0.678737  z = -1.769637 angstrom
           Maximum rank =  0   Radius =  0.650 angstrom
                   Q00  =   0.292979

C          x =  1.992916  y = -1.094737  z = -2.313637 angstrom
           Maximum rank =  0   Radius =  0.650 angstrom
                   Q00  =   0.081017

C          x = -1.363084  y =  0.073263  z =  0.602363 angstrom
           Maximum rank =  0   Radius =  0.650 angstrom
                   Q00  =  -0.071203

C          x = -2.138084  y = -0.122737  z = -0.547637 angstrom
           Maximum rank =  0   Radius =  0.650 angstrom
                   Q00  =  -0.081681

C          x =  0.034916  y = -0.094737  z =  0.578363 angstrom
           Maximum rank =  0   Radius =  0.650 angstrom
                   Q00  =  -0.097132

C          x = -1.538084  y = -0.499737  z = -1.750637 angstrom
           Maximum rank =  0   Radius =  0.650 angstrom
                   Q00  =  -0.127749

N          x =  0.690916  y = -1.058737  z = -2.783637 angstrom
           Maximum rank =  0   Radius =  0.650 angstrom
                   Q00  =  -0.506271

H          x = -1.840084  y =  0.359263  z =  1.529363 angstrom
           Maximum rank =  0   Radius =  0.325 angstrom
                   Q00  =   0.063329

H          x = -3.207084  y =  0.019263  z = -0.497637 angstrom
           Maximum rank =  0   Radius =  0.325 angstrom
                   Q00  =   0.064719

H          x =  0.600916  y =  0.081263  z =  1.488363 angstrom
           Maximum rank =  0   Radius =  0.325 angstrom
                   Q00  =   0.068485

H          x = -2.099084  y = -0.660737  z = -2.660637 angstrom
           Maximum rank =  0   Radius =  0.325 angstrom
                   Q00  =   0.073453

H          x =  3.978916  y = -1.434737  z = -0.445637 angstrom
           Maximum rank =  0   Radius =  0.325 angstrom
                   Q00  =   0.103160

H          x =  2.976916  y = -0.898737  z =  0.917363 angstrom
           Maximum rank =  0   Radius =  0.325 angstrom
                   Q00  =   0.105475

H          x =  2.914916  y = -1.344737  z = -2.825637 angstrom
           Maximum rank =  0   Radius =  0.325 angstrom
                   Q00  =   0.102833

H          x =  0.395916  y = -1.286737  z = -3.727637 angstrom
           Maximum rank =  0   Radius =  0.325 angstrom
                   Q00  =   0.217609

H          x =  3.774896  y =  0.321363  z = -0.128627 angstrom
           Maximum rank =  0   Radius =  0.325 angstrom
                   Q00  =   0.103839

C          x = -1.359084  y =  2.083263  z =  3.656363 angstrom
           Maximum rank =  0   Radius =  0.650 angstrom
                   Q00  =  -0.234896

C          x = -2.037084  y =  2.673263  z =  4.895363 angstrom
           Maximum rank =  0   Radius =  0.650 angstrom
                   Q00  =  -0.236656

H          x = -1.678084  y =  2.625263  z =  2.765363 angstrom
           Maximum rank =  0   Radius =  0.325 angstrom
                   Q00  =   0.081849

H          x = -0.281084  y =  2.167263  z =  3.754363 angstrom
           Maximum rank =  0   Radius =  0.325 angstrom
                   Q00  =   0.080509

H          x = -1.634084  y =  1.033263  z =  3.559363 angstrom
           Maximum rank =  0   Radius =  0.325 angstrom
                   Q00  =   0.072697

H          x = -1.800084  y =  3.735263  z =  4.973363 angstrom
           Maximum rank =  0   Radius =  0.325 angstrom
                   Q00  =   0.080202

H          x = -3.123295  y =  2.568563  z =  4.756893 angstrom
           Maximum rank =  0   Radius =  0.325 angstrom
                   Q00  =   0.076476

H          x = -1.686240  y =  2.151963  z =  5.798253 angstrom
           Maximum rank =  0   Radius =  0.325 angstrom
                   Q00  =   0.080237

Total multipoles referred to origin at
           x =   0.000000,  y =    0.000000,  z =    0.000000 angstrom
                   Q00  =  -0.000000

Finished at 19:25:28 on 27 Apr 2020

  DMA results are available in the Python driver through the
	  variable('DMA DISTRIBUTED MULTIPOLES')
  and
	  variable('DMA TOTAL MULTIPOLES')
  commands.

    Psi4 stopped on: Monday, 27 April 2020 07:25PM
    Psi4 wall time for execution: 0:07:50.86

*** Psi4 exiting successfully. Buy a developer a beer!
