                               Psi4 1.3.2 release

  ==> Input File <==

--------------------------------------------------------------------------
import numpy as np
set {scf_type pk
basis cc-pvdz
d_convergence 10
gdma_switch   0
gdma_limit    0
gdma_origin   [ 0.0,  0.0,  0.0 ]
}
molecule test {
    units Angstrom
    0 1
    --
    0 1
    C                0.882577718299122     1.119297974121579    -0.339705046581560
    C                2.242577718299122     0.462297974121579    -0.580705046581560
    C               -0.255422281700878     0.632297974121579    -2.797705046581560
    S               -0.470422281700878     0.188297974121579    -1.074705046581560
    H                0.687577718299122     1.180297974121579     0.730294953418440
    H                0.884577718299122     2.132297974121579    -0.743705046581560
    H                2.451577718299122     0.457297974121579    -1.650705046581560
    H                2.200577718299122    -0.571702025878421    -0.230705046581560
    H                0.724577718299122     0.311297974121579    -3.151705046581560
    H               -1.024422281700878     0.139297974121579    -3.391705046581559
    H               -0.346422281700878     1.713297974121579    -2.912705046581559
    H                3.055737718299122     0.992587974121579    -0.063438046581560
    C               -0.427422281700878    -1.158702025878421     2.451294953418440
    C               -1.441422281700878    -1.430702025878421     3.573294953418440
    H                0.528577718299122    -0.846702025878421     2.867294953418440
    H               -0.271422281700878    -2.070702025878421     1.874294953418440
    H               -0.812422281700878    -0.378702025878421     1.795294953418440
    H               -1.028422281700878    -2.170702025878422     4.255294953418440
    H               -2.330422281700879    -1.861702025878421     3.112294953418441
    H               -1.713482281700878    -0.528562025878421     4.140860153418441

}
e, wfn = energy('scf', return_wfn=True)
gdma(wfn)
dmavals = variable('DMA DISTRIBUTED MULTIPOLES')
charges = np.array(dmavals)
print(charges)
np.save('SSI-021MET-069ILE-1-dimer.npy', np.array(charges))--------------------------------------------------------------------------

*** tstart() called on ds3
*** at Tue Apr 28 07:44:25 2020

   => Loading Basis Set <=

    Name: CC-PVDZ
    Role: ORBITAL
    Keyword: BASIS
    atoms 1-3, 13-14  entry C          line   138 file /theoryfs2/ds/metcalf/miniconda2/envs/tf2gpu/share/psi4/basis/cc-pvdz.gbs
    atoms 4           entry S          line   598 file /theoryfs2/ds/metcalf/miniconda2/envs/tf2gpu/share/psi4/basis/cc-pvdz.gbs
    atoms 5-12, 15-20 entry H          line    22 file /theoryfs2/ds/metcalf/miniconda2/envs/tf2gpu/share/psi4/basis/cc-pvdz.gbs

         ---------------------------------------------------------
                                   SCF
               by Justin Turney, Rob Parrish, Andy Simmonett
                          and Daniel G. A. Smith
                              RHF Reference
                        1 Threads,    500 MiB Core
         ---------------------------------------------------------

  ==> Geometry <==

    Molecular point group: c1
    Full point group: C1

    Geometry (in Angstrom), charge = 0, multiplicity = 1:

       Center              X                  Y                   Z               Mass
    ------------   -----------------  -----------------  -----------------  -----------------
         C            0.882577718299     1.119297974122    -0.339705046582    12.000000000000
         C            2.242577718299     0.462297974122    -0.580705046582    12.000000000000
         C           -0.255422281701     0.632297974122    -2.797705046582    12.000000000000
         S           -0.470422281701     0.188297974122    -1.074705046582    31.972071174400
         H            0.687577718299     1.180297974122     0.730294953418     1.007825032230
         H            0.884577718299     2.132297974122    -0.743705046582     1.007825032230
         H            2.451577718299     0.457297974122    -1.650705046582     1.007825032230
         H            2.200577718299    -0.571702025878    -0.230705046582     1.007825032230
         H            0.724577718299     0.311297974122    -3.151705046582     1.007825032230
         H           -1.024422281701     0.139297974122    -3.391705046582     1.007825032230
         H           -0.346422281701     1.713297974122    -2.912705046582     1.007825032230
         H            3.055737718299     0.992587974122    -0.063438046582     1.007825032230
         C           -0.427422281701    -1.158702025878     2.451294953418    12.000000000000
         C           -1.441422281701    -1.430702025878     3.573294953418    12.000000000000
         H            0.528577718299    -0.846702025878     2.867294953418     1.007825032230
         H           -0.271422281701    -2.070702025878     1.874294953418     1.007825032230
         H           -0.812422281701    -0.378702025878     1.795294953418     1.007825032230
         H           -1.028422281701    -2.170702025878     4.255294953418     1.007825032230
         H           -2.330422281701    -1.861702025878     3.112294953418     1.007825032230
         H           -1.713482281701    -0.528562025878     4.140860153418     1.007825032230

  Running in c1 symmetry.

  Rotational constants: A =      0.12341  B =      0.02981  C =      0.02539 [cm^-1]
  Rotational constants: A =   3699.84038  B =    893.74862  C =    761.02993 [MHz]
  Nuclear repulsion =  297.849278750655799

  Charge       = 0
  Multiplicity = 1
  Electrons    = 60
  Nalpha       = 30
  Nbeta        = 30

  ==> Algorithm <==

  SCF Algorithm Type is PK.
  DIIS enabled.
  MOM disabled.
  Fractional occupation disabled.
  Guess Type is SAD.
  Energy threshold   = 1.00e-06
  Density threshold  = 1.00e-10
  Integral threshold = 0.00e+00

  ==> Primary Basis <==

  Basis Set: CC-PVDZ
    Blend: CC-PVDZ
    Number of shells: 80
    Number of basis function: 158
    Number of Cartesian functions: 164
    Spherical Harmonics?: true
    Max angular momentum: 2

  ==> Pre-Iterations <==

   -------------------------------------------------------
    Irrep   Nso     Nmo     Nalpha   Nbeta   Ndocc  Nsocc
   -------------------------------------------------------
     A        158     158       0       0       0       0
   -------------------------------------------------------
    Total     158     158      30      30      30       0
   -------------------------------------------------------

  ==> Integral Setup <==

  Using integral reordering PK algorithm.
  Sizing the integral batches needed.
  Building batch lookup table.
   Calculation information:
      Number of atoms:                  20
      Number of AO shells:              80
      Number of primitives:            230
      Number of atomic orbitals:       164
      Number of basis functions:       158

      Integral cutoff                 1.00e-12
      Number of threads:                 1

	Batch   1 pq = [       0,    9405] index = [             0,44231715] size =     44231715
	Batch   2 pq = [    9405,   12561] index = [      44231715,78895641] size =     34663926
  Task number: 8
  Buffer size: 11059200
  Buffer per thread: 2
  We computed 4273095 shell quartets total.
  Whereas there are 5250420 unique shell quartets.

  ==> DiskJK: Disk-Based J/K Matrices <==

    J tasked:                  Yes
    K tasked:                  Yes
    wK tasked:                  No
    Memory [MiB]:              375
    Schwarz Cutoff:          1E-12

    OpenMP threads:              1

  Minimum eigenvalue in the overlap matrix is 6.7748484550E-03.
  Using Symmetric Orthogonalization.

  SCF Guess: Superposition of Atomic Densities via on-the-fly atomic UHF.

  ==> Iterations <==

                        Total Energy        Delta E     RMS |[F,P]|

   @RHF iter SAD:  -593.93031532570660   -5.93930e+02   0.00000e+00
   @RHF iter   1:  -594.84935427180551   -9.19039e-01   3.18865e-03 DIIS
   @RHF iter   2:  -595.00085987481259   -1.51506e-01   1.29677e-03 DIIS
   @RHF iter   3:  -595.02411646573330   -2.32566e-02   2.99958e-04 DIIS
   @RHF iter   4:  -595.02641801966627   -2.30155e-03   5.54683e-05 DIIS
   @RHF iter   5:  -595.02647880245706   -6.07828e-05   1.60042e-05 DIIS
   @RHF iter   6:  -595.02648379233108   -4.98987e-06   3.52357e-06 DIIS
   @RHF iter   7:  -595.02648408638709   -2.94056e-07   8.53286e-07 DIIS
   @RHF iter   8:  -595.02648410792506   -2.15380e-08   2.85741e-07 DIIS
   @RHF iter   9:  -595.02648411038342   -2.45836e-09   8.64166e-08 DIIS
   @RHF iter  10:  -595.02648411064877   -2.65345e-10   2.31258e-08 DIIS
   @RHF iter  11:  -595.02648411067003   -2.12594e-11   5.85765e-09 DIIS
   @RHF iter  12:  -595.02648411067275   -2.72848e-12   2.18464e-09 DIIS
   @RHF iter  13:  -595.02648411067310   -3.41061e-13   7.68521e-10 DIIS
   @RHF iter  14:  -595.02648411067196    1.13687e-12   1.97573e-10 DIIS
   @RHF iter  15:  -595.02648411067287   -9.09495e-13   5.54338e-11 DIIS
  Energy and wave function converged.

  ==> Post-Iterations <==

    Orbital Energies [Eh]
    ---------------------

    Doubly Occupied:

       1A    -91.931773     2A    -11.255501     3A    -11.253820
       4A    -11.226890     5A    -11.214673     6A    -11.212898
       7A     -8.936199     8A     -6.618238     9A     -6.616667
      10A     -6.614469    11A     -1.082790    12A     -1.013017
      13A     -0.994727    14A     -0.884520    15A     -0.834511
      16A     -0.784161    17A     -0.633070    18A     -0.605158
      19A     -0.594312    20A     -0.593360    21A     -0.584065
      22A     -0.558752    23A     -0.529756    24A     -0.509699
      25A     -0.495074    26A     -0.483252    27A     -0.482161
      28A     -0.476244    29A     -0.421094    30A     -0.329904

    Virtual:

      31A      0.173792    32A      0.178965    33A      0.199160
      34A      0.215746    35A      0.229455    36A      0.237656
      37A      0.248864    38A      0.251155    39A      0.259876
      40A      0.268897    41A      0.277179    42A      0.289413
      43A      0.293665    44A      0.311561    45A      0.322452
      46A      0.353639    47A      0.382820    48A      0.400013
      49A      0.530991    50A      0.561937    51A      0.578135
      52A      0.592667    53A      0.600370    54A      0.604801
      55A      0.621275    56A      0.629592    57A      0.643917
      58A      0.663651    59A      0.689886    60A      0.729641
      61A      0.731225    62A      0.767534    63A      0.819281
      64A      0.826239    65A      0.838841    66A      0.857025
      67A      0.869101    68A      0.871230    69A      0.882389
      70A      0.884590    71A      0.895199    72A      0.898195
      73A      0.900187    74A      0.903101    75A      0.915553
      76A      0.922995    77A      0.928268    78A      0.933446
      79A      0.945911    80A      0.965380    81A      0.976553
      82A      0.991800    83A      1.000060    84A      1.038516
      85A      1.132471    86A      1.146321    87A      1.171731
      88A      1.234207    89A      1.240144    90A      1.258254
      91A      1.331635    92A      1.337328    93A      1.361203
      94A      1.421130    95A      1.473046    96A      1.474893
      97A      1.491307    98A      1.523744    99A      1.593612
     100A      1.622667   101A      1.664345   102A      1.683856
     103A      1.687115   104A      1.690923   105A      1.704891
     106A      1.850459   107A      1.871872   108A      1.881890
     109A      1.885981   110A      1.890531   111A      1.892565
     112A      1.907816   113A      1.918459   114A      1.921334
     115A      1.943787   116A      1.950523   117A      1.957071
     118A      1.961887   119A      1.968033   120A      1.975128
     121A      1.982354   122A      1.991720   123A      2.001662
     124A      2.033199   125A      2.046278   126A      2.069340
     127A      2.098241   128A      2.132131   129A      2.142709
     130A      2.217695   131A      2.236982   132A      2.297315
     133A      2.304093   134A      2.314673   135A      2.339312
     136A      2.417301   137A      2.452456   138A      2.461938
     139A      2.469989   140A      2.478302   141A      2.551716
     142A      2.561259   143A      2.562344   144A      2.588171
     145A      2.756617   146A      2.767109   147A      2.774234
     148A      2.786841   149A      2.792335   150A      2.799812
     151A      2.817358   152A      2.835946   153A      2.854016
     154A      2.865802   155A      2.896621   156A      2.952725
     157A      2.967662   158A      2.984165

    Final Occupation by Irrep:
              A
    DOCC [    30 ]

  @RHF Final Energy:  -595.02648411067287

   => Energetics <=

    Nuclear Repulsion Energy =            297.8492787506557988
    One-Electron Energy =               -1406.2100102650861118
    Two-Electron Energy =                 513.3342474037575585
    Total Energy =                       -595.0264841106728682

Computation Completed

Properties will be evaluated at   0.000000,   0.000000,   0.000000 [a0]

Properties computed using the SCF density matrix

  Nuclear Dipole Moment: [e a0]
     X:     2.8058      Y:    -1.4035      Z:     6.1880

  Electronic Dipole Moment: [e a0]
     X:    -2.3535      Y:     1.7619      Z:    -6.4864

  Dipole Moment: [e a0]
     X:     0.4523      Y:     0.3584      Z:    -0.2985     Total:     0.6497

  Dipole Moment: [D]
     X:     1.1496      Y:     0.9109      Z:    -0.7586     Total:     1.6514

*** tstop() called on ds3 at Tue Apr 28 07:45:04 2020
Module time:
	user time   =      29.03 seconds =       0.48 minutes
	system time =      10.53 seconds =       0.18 minutes
	total time  =         39 seconds =       0.65 minutes
Total time:
	user time   =      29.03 seconds =       0.48 minutes
	system time =      10.53 seconds =       0.18 minutes
	total time  =         39 seconds =       0.65 minutes
                                     G D M A

                                 by Anthony Stone

                           version 2.2.06, 22 June 2011

               Distributed Multipoles from Gaussian wavefunctions

Starting at 7:45:4 on 28 Apr 2020

Using SCF density matrix from file ./SSI/SSI-021MET-069ILE-1-dimer.test.6704.fchk

                         Distributed Multipole Analysis

Standard DMA

Positions and radii in angstrom
Multipole moments in atomic units, ea_0^k for rank k

C          x =  0.882578  y =  1.119298  z = -0.339705 angstrom
           Maximum rank =  0   Radius =  0.650 angstrom
                   Q00  =  -0.199855

C          x =  2.242578  y =  0.462298  z = -0.580705 angstrom
           Maximum rank =  0   Radius =  0.650 angstrom
                   Q00  =  -0.244708

C          x = -0.255422  y =  0.632298  z = -2.797705 angstrom
           Maximum rank =  0   Radius =  0.650 angstrom
                   Q00  =  -0.359206

S          x = -0.470422  y =  0.188298  z = -1.074705 angstrom
           Maximum rank =  0   Radius =  0.650 angstrom
                   Q00  =   0.105033

H          x =  0.687578  y =  1.180298  z =  0.730295 angstrom
           Maximum rank =  0   Radius =  0.325 angstrom
                   Q00  =   0.089338

H          x =  0.884578  y =  2.132298  z = -0.743705 angstrom
           Maximum rank =  0   Radius =  0.325 angstrom
                   Q00  =   0.060504

H          x =  2.451578  y =  0.457298  z = -1.650705 angstrom
           Maximum rank =  0   Radius =  0.325 angstrom
                   Q00  =   0.079311

H          x =  2.200578  y = -0.571702  z = -0.230705 angstrom
           Maximum rank =  0   Radius =  0.325 angstrom
                   Q00  =   0.091236

H          x =  0.724578  y =  0.311298  z = -3.151705 angstrom
           Maximum rank =  0   Radius =  0.325 angstrom
                   Q00  =   0.085637

H          x = -1.024422  y =  0.139298  z = -3.391705 angstrom
           Maximum rank =  0   Radius =  0.325 angstrom
                   Q00  =   0.120920

H          x = -0.346422  y =  1.713298  z = -2.912705 angstrom
           Maximum rank =  0   Radius =  0.325 angstrom
                   Q00  =   0.085128

H          x =  3.055738  y =  0.992588  z = -0.063438 angstrom
           Maximum rank =  0   Radius =  0.325 angstrom
                   Q00  =   0.087269

C          x = -0.427422  y = -1.158702  z =  2.451295 angstrom
           Maximum rank =  0   Radius =  0.650 angstrom
                   Q00  =  -0.240698

C          x = -1.441422  y = -1.430702  z =  3.573295 angstrom
           Maximum rank =  0   Radius =  0.650 angstrom
                   Q00  =  -0.239498

H          x =  0.528578  y = -0.846702  z =  2.867295 angstrom
           Maximum rank =  0   Radius =  0.325 angstrom
                   Q00  =   0.072525

H          x = -0.271422  y = -2.070702  z =  1.874295 angstrom
           Maximum rank =  0   Radius =  0.325 angstrom
                   Q00  =   0.085860

H          x = -0.812422  y = -0.378702  z =  1.795295 angstrom
           Maximum rank =  0   Radius =  0.325 angstrom
                   Q00  =   0.083445

H          x = -1.028422  y = -2.170702  z =  4.255295 angstrom
           Maximum rank =  0   Radius =  0.325 angstrom
                   Q00  =   0.076879

H          x = -2.330422  y = -1.861702  z =  3.112295 angstrom
           Maximum rank =  0   Radius =  0.325 angstrom
                   Q00  =   0.080235

H          x = -1.713482  y = -0.528562  z =  4.140860 angstrom
           Maximum rank =  0   Radius =  0.325 angstrom
                   Q00  =   0.080646

Total multipoles referred to origin at
           x =   0.000000,  y =    0.000000,  z =    0.000000 angstrom
                   Q00  =  -0.000000

Finished at 7:45:4 on 28 Apr 2020

  DMA results are available in the Python driver through the
	  variable('DMA DISTRIBUTED MULTIPOLES')
  and
	  variable('DMA TOTAL MULTIPOLES')
  commands.

    Psi4 stopped on: Tuesday, 28 April 2020 07:45AM
    Psi4 wall time for execution: 0:00:39.14

*** Psi4 exiting successfully. Buy a developer a beer!
