                               Psi4 1.3.2 release

  ==> Input File <==

--------------------------------------------------------------------------
import numpy as np
set {scf_type pk
basis cc-pvdz
d_convergence 10
gdma_switch   0
gdma_limit    0
gdma_origin   [ 0.0,  0.0,  0.0 ]
}
molecule test {
    units Angstrom
    0 1
    --
    0 1
    C               -0.983635813934329    -3.354787230798819    -0.386124040910318
    C               -0.281635813934329    -1.550787230798819    -2.017124040910318
    C                0.039364186065671    -2.390787230798819    -0.946124040910318
    C                0.645364186065671    -0.624787230798819    -2.501124040910318
    C                1.903364186065671    -0.528787230798819    -1.907124040910318
    C                1.307364186065671    -2.284787230798819    -0.364124040910318
    C                2.237364186065671    -1.359787230798819    -0.839124040910318
    O                2.791364186065671     0.391212769201181    -2.362124040910318
    H               -1.267635813934329    -1.586787230798819    -2.462124040910318
    H                0.385364186065671     0.018212769201181    -3.324124040910318
    H               -1.903635813934329    -2.802787230798819    -0.217124040910318
    H               -0.639635813934329    -3.699787230798819     0.589875959089682
    H                1.569364186065671    -2.900787230798819     0.482875959089682
    H                2.426364186065671     0.911212769201181    -3.082124040910318
    H                3.213364186065671    -1.275787230798819    -0.385124040910318
    H               -1.212155813934329    -4.235097230798820    -1.004854040910318
    C               -2.408635813934329     2.557212769201181     3.667875959089682
    C               -0.764635813934329     0.780212769201181     0.961875959089682
    C               -1.615635813934329     2.143212769201181     2.464875959089682
    C               -0.992635813934329     2.897212769201181     1.522875959089682
    N               -1.460635813934329     0.823212769201181     2.093875959089682
    N               -0.470635813934329     2.022212769201181     0.594875959089682
    H               -0.488635813934329    -0.116787230798819     0.422875959089682
    H                0.048364186065671     2.272212769201181    -0.239124040910318
    H               -0.948635813934329     3.977212769201181     1.488875959089682
    H               -1.997635813934329     3.484212769201181     4.064875959089681
    H               -2.288635813934329     1.788212769201181     4.431875959089682
    H               -3.480655813934329     2.676002769201181     3.451885959089682

}
e, wfn = energy('scf', return_wfn=True)
gdma(wfn)
dmavals = variable('DMA DISTRIBUTED MULTIPOLES')
charges = np.array(dmavals)
print(charges)
np.save('SSI-105TYR-149HIE-1-dimer.npy', np.array(charges))--------------------------------------------------------------------------

*** tstart() called on ds3
*** at Mon Apr 27 06:02:37 2020

   => Loading Basis Set <=

    Name: CC-PVDZ
    Role: ORBITAL
    Keyword: BASIS
    atoms 1-7, 17-20  entry C          line   138 file /theoryfs2/ds/metcalf/miniconda2/envs/tf2gpu/share/psi4/basis/cc-pvdz.gbs
    atoms 8           entry O          line   198 file /theoryfs2/ds/metcalf/miniconda2/envs/tf2gpu/share/psi4/basis/cc-pvdz.gbs
    atoms 9-16, 23-28 entry H          line    22 file /theoryfs2/ds/metcalf/miniconda2/envs/tf2gpu/share/psi4/basis/cc-pvdz.gbs
    atoms 21-22       entry N          line   168 file /theoryfs2/ds/metcalf/miniconda2/envs/tf2gpu/share/psi4/basis/cc-pvdz.gbs

         ---------------------------------------------------------
                                   SCF
               by Justin Turney, Rob Parrish, Andy Simmonett
                          and Daniel G. A. Smith
                              RHF Reference
                        1 Threads,    500 MiB Core
         ---------------------------------------------------------

  ==> Geometry <==

    Molecular point group: c1
    Full point group: C1

    Geometry (in Angstrom), charge = 0, multiplicity = 1:

       Center              X                  Y                   Z               Mass
    ------------   -----------------  -----------------  -----------------  -----------------
         C           -0.983635813934    -3.354787230799    -0.386124040910    12.000000000000
         C           -0.281635813934    -1.550787230799    -2.017124040910    12.000000000000
         C            0.039364186066    -2.390787230799    -0.946124040910    12.000000000000
         C            0.645364186066    -0.624787230799    -2.501124040910    12.000000000000
         C            1.903364186066    -0.528787230799    -1.907124040910    12.000000000000
         C            1.307364186066    -2.284787230799    -0.364124040910    12.000000000000
         C            2.237364186066    -1.359787230799    -0.839124040910    12.000000000000
         O            2.791364186066     0.391212769201    -2.362124040910    15.994914619570
         H           -1.267635813934    -1.586787230799    -2.462124040910     1.007825032230
         H            0.385364186066     0.018212769201    -3.324124040910     1.007825032230
         H           -1.903635813934    -2.802787230799    -0.217124040910     1.007825032230
         H           -0.639635813934    -3.699787230799     0.589875959090     1.007825032230
         H            1.569364186066    -2.900787230799     0.482875959090     1.007825032230
         H            2.426364186066     0.911212769201    -3.082124040910     1.007825032230
         H            3.213364186066    -1.275787230799    -0.385124040910     1.007825032230
         H           -1.212155813934    -4.235097230799    -1.004854040910     1.007825032230
         C           -2.408635813934     2.557212769201     3.667875959090    12.000000000000
         C           -0.764635813934     0.780212769201     0.961875959090    12.000000000000
         C           -1.615635813934     2.143212769201     2.464875959090    12.000000000000
         C           -0.992635813934     2.897212769201     1.522875959090    12.000000000000
         N           -1.460635813934     0.823212769201     2.093875959090    14.003074004430
         N           -0.470635813934     2.022212769201     0.594875959090    14.003074004430
         H           -0.488635813934    -0.116787230799     0.422875959090     1.007825032230
         H            0.048364186066     2.272212769201    -0.239124040910     1.007825032230
         H           -0.948635813934     3.977212769201     1.488875959090     1.007825032230
         H           -1.997635813934     3.484212769201     4.064875959090     1.007825032230
         H           -2.288635813934     1.788212769201     4.431875959090     1.007825032230
         H           -3.480655813934     2.676002769201     3.451885959090     1.007825032230

  Running in c1 symmetry.

  Rotational constants: A =      0.03412  B =      0.01121  C =      0.00936 [cm^-1]
  Rotational constants: A =   1022.87887  B =    335.91760  C =    280.64395 [MHz]
  Nuclear repulsion =  816.154323801315968

  Charge       = 0
  Multiplicity = 1
  Electrons    = 102
  Nalpha       = 51
  Nbeta        = 51

  ==> Algorithm <==

  SCF Algorithm Type is PK.
  DIIS enabled.
  MOM disabled.
  Fractional occupation disabled.
  Guess Type is SAD.
  Energy threshold   = 1.00e-06
  Density threshold  = 1.00e-10
  Integral threshold = 0.00e+00

  ==> Primary Basis <==

  Basis Set: CC-PVDZ
    Blend: CC-PVDZ
    Number of shells: 126
    Number of basis function: 266
    Number of Cartesian functions: 280
    Spherical Harmonics?: true
    Max angular momentum: 2

  ==> Pre-Iterations <==

   -------------------------------------------------------
    Irrep   Nso     Nmo     Nalpha   Nbeta   Ndocc  Nsocc
   -------------------------------------------------------
     A        266     266       0       0       0       0
   -------------------------------------------------------
    Total     266     266      51      51      51       0
   -------------------------------------------------------

  ==> Integral Setup <==

  Using integral reordering PK algorithm.
  Sizing the integral batches needed.
  Building batch lookup table.
   Calculation information:
      Number of atoms:                  28
      Number of AO shells:             126
      Number of primitives:            378
      Number of atomic orbitals:       280
      Number of basis functions:       266

      Integral cutoff                 1.00e-12
      Number of threads:                 1

	Batch   1 pq = [       0,    9405] index = [             0,44231715] size =     44231715
	Batch   2 pq = [    9405,   13301] index = [      44231715,88464951] size =     44233236
	Batch   3 pq = [   13301,   16290] index = [      88464951,132690195] size =     44225244
	Batch   4 pq = [   16290,   18810] index = [     132690195,176917455] size =     44227260
	Batch   5 pq = [   18810,   21030] index = [     176917455,221140965] size =     44223510
	Batch   6 pq = [   21030,   23037] index = [     221140965,265363203] size =     44222238
	Batch   7 pq = [   23037,   24883] index = [     265363203,309594286] size =     44231083
	Batch   8 pq = [   24883,   26601] index = [     309594286,353819901] size =     44225615
	Batch   9 pq = [   26601,   28214] index = [     353819901,398029005] size =     44209104
	Batch  10 pq = [   28214,   29740] index = [     398029005,442248670] size =     44219665
	Batch  11 pq = [   29740,   31191] index = [     442248670,486454836] size =     44206166
	Batch  12 pq = [   31191,   32578] index = [     486454836,530679331] size =     44224495
	Batch  13 pq = [   32578,   33908] index = [     530679331,574893186] size =     44213855
	Batch  14 pq = [   33908,   35188] index = [     574893186,619115266] size =     44222080
	Batch  15 pq = [   35188,   35511] index = [     619115266,630533316] size =     11418050
  Task number: 58
  Buffer size: 11059200
  Buffer per thread: 2
  We computed 28947982 shell quartets total.
  Whereas there are 32012001 unique shell quartets.

  ==> DiskJK: Disk-Based J/K Matrices <==

    J tasked:                  Yes
    K tasked:                  Yes
    wK tasked:                  No
    Memory [MiB]:              375
    Schwarz Cutoff:          1E-12

    OpenMP threads:              1

  Minimum eigenvalue in the overlap matrix is 3.2929283252E-04.
  Using Symmetric Orthogonalization.

  SCF Guess: Superposition of Atomic Densities via on-the-fly atomic UHF.

  ==> Iterations <==

                        Total Energy        Delta E     RMS |[F,P]|

   @RHF iter SAD:  -607.52342402169597   -6.07523e+02   0.00000e+00
   @RHF iter   1:  -608.18871418169351   -6.65290e-01   2.60578e-03 DIIS
   @RHF iter   2:  -608.44130464356590   -2.52590e-01   1.24194e-03 DIIS
   @RHF iter   3:  -608.49170703667994   -5.04024e-02   3.40060e-04 DIIS
   @RHF iter   4:  -608.49662405368622   -4.91702e-03   1.41075e-04 DIIS
   @RHF iter   5:  -608.49742381652084   -7.99763e-04   2.04465e-05 DIIS
   @RHF iter   6:  -608.49745276930537   -2.89528e-05   9.17803e-06 DIIS
   @RHF iter   7:  -608.49745785075822   -5.08145e-06   2.91870e-06 DIIS
   @RHF iter   8:  -608.49745878963643   -9.38878e-07   1.15142e-06 DIIS
   @RHF iter   9:  -608.49745895532919   -1.65693e-07   4.82971e-07 DIIS
   @RHF iter  10:  -608.49745898170818   -2.63790e-08   1.87526e-07 DIIS
   @RHF iter  11:  -608.49745898713184   -5.42366e-09   7.36836e-08 DIIS
   @RHF iter  12:  -608.49745898789217   -7.60338e-10   3.45937e-08 DIIS
   @RHF iter  13:  -608.49745898802928   -1.37106e-10   1.22049e-08 DIIS
   @RHF iter  14:  -608.49745898805827   -2.89901e-11   5.52332e-09 DIIS
   @RHF iter  15:  -608.49745898805827    0.00000e+00   2.39154e-09 DIIS
   @RHF iter  16:  -608.49745898805611    2.16005e-12   9.14143e-10 DIIS
   @RHF iter  17:  -608.49745898806009   -3.97904e-12   3.56930e-10 DIIS
   @RHF iter  18:  -608.49745898805736    2.72848e-12   1.35998e-10 DIIS
   @RHF iter  19:  -608.49745898805861   -1.25056e-12   6.11322e-11 DIIS
  Energy and wave function converged.

  ==> Post-Iterations <==

    Orbital Energies [Eh]
    ---------------------

    Doubly Occupied:

       1A    -20.594364     2A    -15.611297     3A    -15.518392
       4A    -11.310849     5A    -11.280108     6A    -11.249707
       7A    -11.247856     8A    -11.244412     9A    -11.243308
      10A    -11.241849    11A    -11.239877    12A    -11.233547
      13A    -11.230166    14A    -11.218079    15A     -1.414434
      16A     -1.331594    17A     -1.158588    18A     -1.143758
      19A     -1.043454    20A     -1.027035    21A     -1.022566
      22A     -0.933900    23A     -0.932060    24A     -0.854187
      25A     -0.811584    26A     -0.808122    27A     -0.752599
      28A     -0.743205    29A     -0.731762    30A     -0.676859
      31A     -0.650963    32A     -0.615959    33A     -0.603909
      34A     -0.596282    35A     -0.596093    36A     -0.594811
      37A     -0.588164    38A     -0.576433    39A     -0.570560
      40A     -0.547459    41A     -0.532325    42A     -0.530829
      43A     -0.514039    44A     -0.505009    45A     -0.493237
      46A     -0.474215    47A     -0.401683    48A     -0.369522
      49A     -0.349088    50A     -0.311243    51A     -0.300629

    Virtual:

      52A      0.118661    53A      0.146309    54A      0.156905
      55A      0.182111    56A      0.194533    57A      0.198022
      58A      0.208172    59A      0.210944    60A      0.217357
      61A      0.234920    62A      0.246637    63A      0.251034
      64A      0.262686    65A      0.270728    66A      0.282802
      67A      0.289784    68A      0.303473    69A      0.307639
      70A      0.362190    71A      0.364286    72A      0.382767
      73A      0.398792    74A      0.416530    75A      0.420924
      76A      0.448998    77A      0.477225    78A      0.479155
      79A      0.485003    80A      0.489118    81A      0.503429
      82A      0.603187    83A      0.607179    84A      0.623236
      85A      0.636433    86A      0.645168    87A      0.648580
      88A      0.655344    89A      0.661548    90A      0.670574
      91A      0.682258    92A      0.696792    93A      0.713714
      94A      0.721349    95A      0.726209    96A      0.740330
      97A      0.749370    98A      0.756370    99A      0.757855
     100A      0.767924   101A      0.785063   102A      0.794482
     103A      0.801595   104A      0.806798   105A      0.820001
     106A      0.837094   107A      0.839155   108A      0.855168
     109A      0.863716   110A      0.871313   111A      0.879598
     112A      0.884293   113A      0.885985   114A      0.889322
     115A      0.898162   116A      0.911488   117A      0.916069
     118A      0.924849   119A      0.930125   120A      0.936062
     121A      0.956201   122A      0.968953   123A      0.982405
     124A      0.990294   125A      1.005356   126A      1.026992
     127A      1.047094   128A      1.059424   129A      1.091052
     130A      1.096649   131A      1.112283   132A      1.129234
     133A      1.133772   134A      1.141004   135A      1.150808
     136A      1.174844   137A      1.181392   138A      1.197099
     139A      1.234413   140A      1.239912   141A      1.250655
     142A      1.257447   143A      1.276771   144A      1.279155
     145A      1.284558   146A      1.291591   147A      1.297399
     148A      1.319929   149A      1.330861   150A      1.337861
     151A      1.346391   152A      1.352219   153A      1.362578
     154A      1.399153   155A      1.446272   156A      1.478580
     157A      1.486743   158A      1.497695   159A      1.504398
     160A      1.516817   161A      1.533871   162A      1.542652
     163A      1.579906   164A      1.606735   165A      1.613240
     166A      1.620838   167A      1.638734   168A      1.683671
     169A      1.694566   170A      1.698903   171A      1.710411
     172A      1.720841   173A      1.738602   174A      1.770995
     175A      1.786462   176A      1.794481   177A      1.811327
     178A      1.821320   179A      1.837931   180A      1.866913
     181A      1.867992   182A      1.880544   183A      1.898458
     184A      1.904086   185A      1.909229   186A      1.909685
     187A      1.919028   188A      1.927383   189A      1.938265
     190A      1.949386   191A      1.950883   192A      1.957737
     193A      1.976298   194A      1.981441   195A      1.986436
     196A      2.001086   197A      2.016691   198A      2.038242
     199A      2.048813   200A      2.054965   201A      2.060714
     202A      2.068070   203A      2.076084   204A      2.103652
     205A      2.122628   206A      2.133144   207A      2.156799
     208A      2.176113   209A      2.189540   210A      2.206993
     211A      2.209036   212A      2.244176   213A      2.248152
     214A      2.249570   215A      2.259696   216A      2.294289
     217A      2.305195   218A      2.339631   219A      2.341933
     220A      2.355479   221A      2.381672   222A      2.398255
     223A      2.447464   224A      2.452795   225A      2.456262
     226A      2.484730   227A      2.496437   228A      2.513225
     229A      2.524481   230A      2.538085   231A      2.570127
     232A      2.594980   233A      2.624421   234A      2.634087
     235A      2.699561   236A      2.735352   237A      2.737728
     238A      2.760025   239A      2.773085   240A      2.780744
     241A      2.794160   242A      2.796924   243A      2.810442
     244A      2.847146   245A      2.855268   246A      2.857048
     247A      2.888320   248A      2.901057   249A      2.949267
     250A      2.959109   251A      2.983266   252A      3.023870
     253A      3.077175   254A      3.089558   255A      3.108222
     256A      3.167984   257A      3.242688   258A      3.249340
     259A      3.266257   260A      3.338510   261A      3.484280
     262A      3.568623   263A      3.663686   264A      3.815383
     265A      3.958427   266A      4.183484

    Final Occupation by Irrep:
              A
    DOCC [    51 ]

  @RHF Final Energy:  -608.49745898805861

   => Energetics <=

    Nuclear Repulsion Energy =            816.1543238013159680
    One-Electron Energy =               -2446.1596252586109586
    Two-Electron Energy =                1021.5078424692363797
    Total Energy =                       -608.4974589880586109

Computation Completed

Properties will be evaluated at   0.000000,   0.000000,   0.000000 [a0]

Properties computed using the SCF density matrix

  Nuclear Dipole Moment: [e a0]
     X:    -6.1537      Y:    -1.4037      Z:     3.9356

  Electronic Dipole Moment: [e a0]
     X:     6.3381      Y:     1.9812      Z:    -5.2621

  Dipole Moment: [e a0]
     X:     0.1844      Y:     0.5775      Z:    -1.3265     Total:     1.4585

  Dipole Moment: [D]
     X:     0.4686      Y:     1.4679      Z:    -3.3717     Total:     3.7071

*** tstop() called on ds3 at Mon Apr 27 06:08:02 2020
Module time:
	user time   =     234.88 seconds =       3.91 minutes
	system time =      99.67 seconds =       1.66 minutes
	total time  =        325 seconds =       5.42 minutes
Total time:
	user time   =     234.88 seconds =       3.91 minutes
	system time =      99.67 seconds =       1.66 minutes
	total time  =        325 seconds =       5.42 minutes
                                     G D M A

                                 by Anthony Stone

                           version 2.2.06, 22 June 2011

               Distributed Multipoles from Gaussian wavefunctions

Starting at 6:8:2 on 27 Apr 2020

Using SCF density matrix from file ./SSI/SSI-105TYR-149HIE-1-dimer.test.32546.fchk

                         Distributed Multipole Analysis

Standard DMA

Positions and radii in angstrom
Multipole moments in atomic units, ea_0^k for rank k

C          x = -0.983636  y = -3.354787  z = -0.386124 angstrom
           Maximum rank =  0   Radius =  0.650 angstrom
                   Q00  =  -0.198617

C          x = -0.281636  y = -1.550787  z = -2.017124 angstrom
           Maximum rank =  0   Radius =  0.650 angstrom
                   Q00  =  -0.028202

C          x =  0.039364  y = -2.390787  z = -0.946124 angstrom
           Maximum rank =  0   Radius =  0.650 angstrom
                   Q00  =  -0.144314

C          x =  0.645364  y = -0.624787  z = -2.501124 angstrom
           Maximum rank =  0   Radius =  0.650 angstrom
                   Q00  =  -0.190301

C          x =  1.903364  y = -0.528787  z = -1.907124 angstrom
           Maximum rank =  0   Radius =  0.650 angstrom
                   Q00  =   0.311015

C          x =  1.307364  y = -2.284787  z = -0.364124 angstrom
           Maximum rank =  0   Radius =  0.650 angstrom
                   Q00  =   0.033834

C          x =  2.237364  y = -1.359787  z = -0.839124 angstrom
           Maximum rank =  0   Radius =  0.650 angstrom
                   Q00  =  -0.122848

O          x =  2.791364  y =  0.391213  z = -2.362124 angstrom
           Maximum rank =  0   Radius =  0.650 angstrom
                   Q00  =  -0.668170

H          x = -1.267636  y = -1.586787  z = -2.462124 angstrom
           Maximum rank =  0   Radius =  0.325 angstrom
                   Q00  =   0.074059

H          x =  0.385364  y =  0.018213  z = -3.324124 angstrom
           Maximum rank =  0   Radius =  0.325 angstrom
                   Q00  =   0.071568

H          x = -1.903636  y = -2.802787  z = -0.217124 angstrom
           Maximum rank =  0   Radius =  0.325 angstrom
                   Q00  =   0.102840

H          x = -0.639636  y = -3.699787  z =  0.589876 angstrom
           Maximum rank =  0   Radius =  0.325 angstrom
                   Q00  =   0.101149

H          x =  1.569364  y = -2.900787  z =  0.482876 angstrom
           Maximum rank =  0   Radius =  0.325 angstrom
                   Q00  =   0.073187

H          x =  2.426364  y =  0.911213  z = -3.082124 angstrom
           Maximum rank =  0   Radius =  0.325 angstrom
                   Q00  =   0.404715

H          x =  3.213364  y = -1.275787  z = -0.385124 angstrom
           Maximum rank =  0   Radius =  0.325 angstrom
                   Q00  =   0.085382

H          x = -1.212156  y = -4.235097  z = -1.004854 angstrom
           Maximum rank =  0   Radius =  0.325 angstrom
                   Q00  =   0.101247

C          x = -2.408636  y =  2.557213  z =  3.667876 angstrom
           Maximum rank =  0   Radius =  0.650 angstrom
                   Q00  =  -0.196903

C          x = -0.764636  y =  0.780213  z =  0.961876 angstrom
           Maximum rank =  0   Radius =  0.650 angstrom
                   Q00  =   0.452775

C          x = -1.615636  y =  2.143213  z =  2.464876 angstrom
           Maximum rank =  0   Radius =  0.650 angstrom
                   Q00  =   0.230442

C          x = -0.992636  y =  2.897213  z =  1.522876 angstrom
           Maximum rank =  0   Radius =  0.650 angstrom
                   Q00  =  -0.005636

N          x = -1.460636  y =  0.823213  z =  2.093876 angstrom
           Maximum rank =  0   Radius =  0.650 angstrom
                   Q00  =  -0.773648

N          x = -0.470636  y =  2.022213  z =  0.594876 angstrom
           Maximum rank =  0   Radius =  0.650 angstrom
                   Q00  =  -0.475005

H          x = -0.488636  y = -0.116787  z =  0.422876 angstrom
           Maximum rank =  0   Radius =  0.325 angstrom
                   Q00  =   0.136512

H          x =  0.048364  y =  2.272213  z = -0.239124 angstrom
           Maximum rank =  0   Radius =  0.325 angstrom
                   Q00  =   0.217204

H          x = -0.948636  y =  3.977213  z =  1.488876 angstrom
           Maximum rank =  0   Radius =  0.325 angstrom
                   Q00  =   0.096703

H          x = -1.997636  y =  3.484213  z =  4.064876 angstrom
           Maximum rank =  0   Radius =  0.325 angstrom
                   Q00  =   0.092593

H          x = -2.288636  y =  1.788213  z =  4.431876 angstrom
           Maximum rank =  0   Radius =  0.325 angstrom
                   Q00  =   0.116084

H          x = -3.480656  y =  2.676003  z =  3.451886 angstrom
           Maximum rank =  0   Radius =  0.325 angstrom
                   Q00  =   0.102333

Total multipoles referred to origin at
           x =   0.000000,  y =    0.000000,  z =    0.000000 angstrom
                   Q00  =  -0.000000

Finished at 6:8:2 on 27 Apr 2020

  DMA results are available in the Python driver through the
	  variable('DMA DISTRIBUTED MULTIPOLES')
  and
	  variable('DMA TOTAL MULTIPOLES')
  commands.

    Psi4 stopped on: Monday, 27 April 2020 06:08AM
    Psi4 wall time for execution: 0:05:25.01

*** Psi4 exiting successfully. Buy a developer a beer!
