                               Psi4 1.3.2 release

  ==> Input File <==

--------------------------------------------------------------------------
import numpy as np
set {scf_type pk
basis cc-pvdz
d_convergence 10
gdma_switch   0
gdma_limit    0
gdma_origin   [ 0.0,  0.0,  0.0 ]
}
molecule test {
    units Angstrom
    0 1
    --
    0 1
    C               -2.595696685506972     0.053636768861525     1.250186522087530
    C               -2.651696685506972    -0.442363231138475     2.686186522087529
    H               -2.230696685506972    -0.742363231138475     0.601186522087530
    H               -3.594696685506972     0.342636768861525     0.931186522087530
    H               -1.947696685506972     0.927636768861525     1.175186522087530
    H               -3.121696685506972    -1.410363231138475     2.686186522087529
    H               -1.633446685506972    -0.537352231138475     3.091326522087530
    H               -3.265266685506972     0.230401768861525     3.303366522087530
    C               -0.029696685506972    -0.414363231138475    -1.479813477912470
    C                1.906303314493028     1.439636768861525    -0.814813477912470
    S                1.610303314493029    -0.331363231138475    -0.752813477912470
    H                0.009303314493028    -0.055363231138475    -2.508813477912470
    H               -0.376696685506972    -1.448363231138475    -1.469813477912470
    H               -0.724696685506972     0.202636768861525    -0.912813477912470
    H                1.664303314493028     1.803636768861525    -1.814813477912470
    H                2.966303314493028     1.622636768861525    -0.666813477912470
    H                1.305373314493028     1.997073768861525    -0.081233477912470

}
e, wfn = energy('scf', return_wfn=True)
gdma(wfn)
dmavals = variable('DMA DISTRIBUTED MULTIPOLES')
charges = np.array(dmavals)
print(charges)
np.save('SSI-061LEU-065MET-1-dimer.npy', np.array(charges))--------------------------------------------------------------------------

*** tstart() called on ds3
*** at Mon Apr 27 00:04:23 2020

   => Loading Basis Set <=

    Name: CC-PVDZ
    Role: ORBITAL
    Keyword: BASIS
    atoms 1-2, 9-10  entry C          line   138 file /theoryfs2/ds/metcalf/miniconda2/envs/tf2gpu/share/psi4/basis/cc-pvdz.gbs
    atoms 3-8, 12-17 entry H          line    22 file /theoryfs2/ds/metcalf/miniconda2/envs/tf2gpu/share/psi4/basis/cc-pvdz.gbs
    atoms 11         entry S          line   598 file /theoryfs2/ds/metcalf/miniconda2/envs/tf2gpu/share/psi4/basis/cc-pvdz.gbs

         ---------------------------------------------------------
                                   SCF
               by Justin Turney, Rob Parrish, Andy Simmonett
                          and Daniel G. A. Smith
                              RHF Reference
                        1 Threads,    500 MiB Core
         ---------------------------------------------------------

  ==> Geometry <==

    Molecular point group: c1
    Full point group: C1

    Geometry (in Angstrom), charge = 0, multiplicity = 1:

       Center              X                  Y                   Z               Mass
    ------------   -----------------  -----------------  -----------------  -----------------
         C           -2.595696685507     0.053636768862     1.250186522088    12.000000000000
         C           -2.651696685507    -0.442363231138     2.686186522088    12.000000000000
         H           -2.230696685507    -0.742363231138     0.601186522088     1.007825032230
         H           -3.594696685507     0.342636768862     0.931186522088     1.007825032230
         H           -1.947696685507     0.927636768862     1.175186522088     1.007825032230
         H           -3.121696685507    -1.410363231138     2.686186522088     1.007825032230
         H           -1.633446685507    -0.537352231138     3.091326522088     1.007825032230
         H           -3.265266685507     0.230401768862     3.303366522088     1.007825032230
         C           -0.029696685507    -0.414363231138    -1.479813477912    12.000000000000
         C            1.906303314493     1.439636768862    -0.814813477912    12.000000000000
         S            1.610303314493    -0.331363231138    -0.752813477912    31.972071174400
         H            0.009303314493    -0.055363231138    -2.508813477912     1.007825032230
         H           -0.376696685507    -1.448363231138    -1.469813477912     1.007825032230
         H           -0.724696685507     0.202636768862    -0.912813477912     1.007825032230
         H            1.664303314493     1.803636768862    -1.814813477912     1.007825032230
         H            2.966303314493     1.622636768862    -0.666813477912     1.007825032230
         H            1.305373314493     1.997073768862    -0.081233477912     1.007825032230

  Running in c1 symmetry.

  Rotational constants: A =      0.18463  B =      0.03089  C =      0.02983 [cm^-1]
  Rotational constants: A =   5534.95227  B =    926.03364  C =    894.18733 [MHz]
  Nuclear repulsion =  219.476870350454220

  Charge       = 0
  Multiplicity = 1
  Electrons    = 52
  Nalpha       = 26
  Nbeta        = 26

  ==> Algorithm <==

  SCF Algorithm Type is PK.
  DIIS enabled.
  MOM disabled.
  Fractional occupation disabled.
  Guess Type is SAD.
  Energy threshold   = 1.00e-06
  Density threshold  = 1.00e-10
  Integral threshold = 0.00e+00

  ==> Primary Basis <==

  Basis Set: CC-PVDZ
    Blend: CC-PVDZ
    Number of shells: 68
    Number of basis function: 134
    Number of Cartesian functions: 139
    Spherical Harmonics?: true
    Max angular momentum: 2

  ==> Pre-Iterations <==

   -------------------------------------------------------
    Irrep   Nso     Nmo     Nalpha   Nbeta   Ndocc  Nsocc
   -------------------------------------------------------
     A        134     134       0       0       0       0
   -------------------------------------------------------
    Total     134     134      26      26      26       0
   -------------------------------------------------------

  ==> Integral Setup <==

  Using integral reordering PK algorithm.
  Sizing the integral batches needed.
  Building batch lookup table.
   Calculation information:
      Number of atoms:                  17
      Number of AO shells:              68
      Number of primitives:            198
      Number of atomic orbitals:       139
      Number of basis functions:       134

      Integral cutoff                 1.00e-12
      Number of threads:                 1

	Batch   1 pq = [       0,    9045] index = [             0,40910535] size =     40910535
  Task number: 4
  Buffer size: 11059200
  Buffer per thread: 2
  We computed 2167215 shell quartets total.
  Whereas there are 2753031 unique shell quartets.

  ==> DiskJK: Disk-Based J/K Matrices <==

    J tasked:                  Yes
    K tasked:                  Yes
    wK tasked:                  No
    Memory [MiB]:              375
    Schwarz Cutoff:          1E-12

    OpenMP threads:              1

  Minimum eigenvalue in the overlap matrix is 6.9905284856E-03.
  Using Symmetric Orthogonalization.

  SCF Guess: Superposition of Atomic Densities via on-the-fly atomic UHF.

  ==> Iterations <==

                        Total Energy        Delta E     RMS |[F,P]|

   @RHF iter SAD:  -554.93918806751617   -5.54939e+02   0.00000e+00
   @RHF iter   1:  -555.84409772389131   -9.04910e-01   3.39403e-03 DIIS
   @RHF iter   2:  -555.96840498339589   -1.24307e-01   1.34849e-03 DIIS
   @RHF iter   3:  -555.98666903955802   -1.82641e-02   3.15441e-04 DIIS
   @RHF iter   4:  -555.98854432471990   -1.87529e-03   4.65796e-05 DIIS
   @RHF iter   5:  -555.98858179334604   -3.74686e-05   1.02926e-05 DIIS
   @RHF iter   6:  -555.98858367729486   -1.88395e-06   2.46842e-06 DIIS
   @RHF iter   7:  -555.98858377796125   -1.00666e-07   6.88045e-07 DIIS
   @RHF iter   8:  -555.98858378606678   -8.10553e-09   1.64886e-07 DIIS
   @RHF iter   9:  -555.98858378677323   -7.06450e-10   4.94391e-08 DIIS
   @RHF iter  10:  -555.98858378683235   -5.91172e-11   1.48715e-08 DIIS
   @RHF iter  11:  -555.98858378683644   -4.09273e-12   3.65943e-09 DIIS
   @RHF iter  12:  -555.98858378683769   -1.25056e-12   1.18681e-09 DIIS
   @RHF iter  13:  -555.98858378683838   -6.82121e-13   3.55014e-10 DIIS
   @RHF iter  14:  -555.98858378683747    9.09495e-13   1.07284e-10 DIIS
   @RHF iter  15:  -555.98858378683872   -1.25056e-12   2.80691e-11 DIIS
  Energy and wave function converged.

  ==> Post-Iterations <==

    Orbital Energies [Eh]
    ---------------------

    Doubly Occupied:

       1A    -91.934173     2A    -11.255425     3A    -11.253187
       4A    -11.218184     5A    -11.217254     6A     -8.938178
       7A     -6.620276     8A     -6.618682     9A     -6.616417
      10A     -1.063187    11A     -1.023005    12A     -0.951454
      13A     -0.838300    14A     -0.804183    15A     -0.606524
      16A     -0.603608    17A     -0.600768    18A     -0.597240
      19A     -0.574217    20A     -0.560461    21A     -0.501798
      22A     -0.497974    23A     -0.486985    24A     -0.486596
      25A     -0.426203    26A     -0.330204

    Virtual:

      27A      0.166217    28A      0.185175    29A      0.198207
      30A      0.216315    31A      0.232468    32A      0.244707
      33A      0.247944    34A      0.257018    35A      0.270091
      36A      0.276662    37A      0.291594    38A      0.302360
      39A      0.310721    40A      0.323085    41A      0.408866
      42A      0.517916    43A      0.566524    44A      0.579679
      45A      0.597749    46A      0.599261    47A      0.616730
      48A      0.629748    49A      0.637921    50A      0.679889
      51A      0.697520    52A      0.720590    53A      0.747811
      54A      0.779099    55A      0.801345    56A      0.822947
      57A      0.838465    58A      0.854626    59A      0.865222
      60A      0.881865    61A      0.883944    62A      0.889032
      63A      0.894368    64A      0.898261    65A      0.899215
      66A      0.909592    67A      0.920199    68A      0.938406
      69A      0.947933    70A      0.967721    71A      0.989774
      72A      1.014726    73A      1.119802    74A      1.151876
      75A      1.198899    76A      1.238320    77A      1.261835
      78A      1.303079    79A      1.315628    80A      1.360224
      81A      1.390128    82A      1.469096    83A      1.477920
      84A      1.484552    85A      1.495180    86A      1.568932
      87A      1.670127    88A      1.674222    89A      1.682486
      90A      1.693650    91A      1.857455    92A      1.867716
      93A      1.876656    94A      1.890187    95A      1.892540
      96A      1.909796    97A      1.923954    98A      1.932864
      99A      1.940936   100A      1.947253   101A      1.958207
     102A      1.961103   103A      1.974124   104A      1.981470
     105A      1.993689   106A      2.027621   107A      2.043985
     108A      2.068203   109A      2.126001   110A      2.137009
     111A      2.223344   112A      2.236249   113A      2.300743
     114A      2.308665   115A      2.400598   116A      2.435488
     117A      2.437844   118A      2.441974   119A      2.457978
     120A      2.481846   121A      2.574289   122A      2.590832
     123A      2.730913   124A      2.758135   125A      2.769246
     126A      2.775689   127A      2.784422   128A      2.795360
     129A      2.800915   130A      2.849561   131A      2.851941
     132A      2.855102   133A      2.955866   134A      2.972008

    Final Occupation by Irrep:
              A
    DOCC [    26 ]

  @RHF Final Energy:  -555.98858378683872

   => Energetics <=

    Nuclear Repulsion Energy =            219.4768703504542202
    One-Electron Energy =               -1197.6819370478415294
    Two-Electron Energy =                 422.2164829105486206
    Total Energy =                       -555.9885837868387171

Computation Completed

Properties will be evaluated at   0.000000,   0.000000,   0.000000 [a0]

Properties computed using the SCF density matrix

  Nuclear Dipole Moment: [e a0]
     X:   -10.2224      Y:     2.7407      Z:     4.0433

  Electronic Dipole Moment: [e a0]
     X:     9.8150      Y:    -2.2715      Z:    -4.2686

  Dipole Moment: [e a0]
     X:    -0.4075      Y:     0.4692      Z:    -0.2253     Total:     0.6610

  Dipole Moment: [D]
     X:    -1.0357      Y:     1.1926      Z:    -0.5727     Total:     1.6801

*** tstop() called on ds3 at Mon Apr 27 00:04:47 2020
Module time:
	user time   =      16.02 seconds =       0.27 minutes
	system time =       5.15 seconds =       0.09 minutes
	total time  =         24 seconds =       0.40 minutes
Total time:
	user time   =      16.02 seconds =       0.27 minutes
	system time =       5.15 seconds =       0.09 minutes
	total time  =         24 seconds =       0.40 minutes
                                     G D M A

                                 by Anthony Stone

                           version 2.2.06, 22 June 2011

               Distributed Multipoles from Gaussian wavefunctions

Starting at 0:4:47 on 27 Apr 2020

Using SCF density matrix from file ./SSI/SSI-061LEU-065MET-1-dimer.test.7273.fchk

                         Distributed Multipole Analysis

Standard DMA

Positions and radii in angstrom
Multipole moments in atomic units, ea_0^k for rank k

C          x = -2.595697  y =  0.053637  z =  1.250187 angstrom
           Maximum rank =  0   Radius =  0.650 angstrom
                   Q00  =  -0.229450

C          x = -2.651697  y = -0.442363  z =  2.686187 angstrom
           Maximum rank =  0   Radius =  0.650 angstrom
                   Q00  =  -0.237390

H          x = -2.230697  y = -0.742363  z =  0.601187 angstrom
           Maximum rank =  0   Radius =  0.325 angstrom
                   Q00  =   0.078657

H          x = -3.594697  y =  0.342637  z =  0.931187 angstrom
           Maximum rank =  0   Radius =  0.325 angstrom
                   Q00  =   0.077489

H          x = -1.947697  y =  0.927637  z =  1.175187 angstrom
           Maximum rank =  0   Radius =  0.325 angstrom
                   Q00  =   0.074513

H          x = -3.121697  y = -1.410363  z =  2.686187 angstrom
           Maximum rank =  0   Radius =  0.325 angstrom
                   Q00  =   0.079238

H          x = -1.633447  y = -0.537352  z =  3.091327 angstrom
           Maximum rank =  0   Radius =  0.325 angstrom
                   Q00  =   0.081472

H          x = -3.265267  y =  0.230402  z =  3.303367 angstrom
           Maximum rank =  0   Radius =  0.325 angstrom
                   Q00  =   0.077324

C          x = -0.029697  y = -0.414363  z = -1.479813 angstrom
           Maximum rank =  0   Radius =  0.650 angstrom
                   Q00  =  -0.353000

C          x =  1.906303  y =  1.439637  z = -0.814813 angstrom
           Maximum rank =  0   Radius =  0.650 angstrom
                   Q00  =  -0.358763

S          x =  1.610303  y = -0.331363  z = -0.752813 angstrom
           Maximum rank =  0   Radius =  0.650 angstrom
                   Q00  =   0.122455

H          x =  0.009303  y = -0.055363  z = -2.508813 angstrom
           Maximum rank =  0   Radius =  0.325 angstrom
                   Q00  =   0.083605

H          x = -0.376697  y = -1.448363  z = -1.469813 angstrom
           Maximum rank =  0   Radius =  0.325 angstrom
                   Q00  =   0.119527

H          x = -0.724697  y =  0.202637  z = -0.912813 angstrom
           Maximum rank =  0   Radius =  0.325 angstrom
                   Q00  =   0.090073

H          x =  1.664303  y =  1.803637  z = -1.814813 angstrom
           Maximum rank =  0   Radius =  0.325 angstrom
                   Q00  =   0.083935

H          x =  2.966303  y =  1.622637  z = -0.666813 angstrom
           Maximum rank =  0   Radius =  0.325 angstrom
                   Q00  =   0.121000

H          x =  1.305373  y =  1.997074  z = -0.081233 angstrom
           Maximum rank =  0   Radius =  0.325 angstrom
                   Q00  =   0.089315

Total multipoles referred to origin at
           x =   0.000000,  y =    0.000000,  z =    0.000000 angstrom
                   Q00  =  -0.000000

Finished at 0:4:47 on 27 Apr 2020

  DMA results are available in the Python driver through the
	  variable('DMA DISTRIBUTED MULTIPOLES')
  and
	  variable('DMA TOTAL MULTIPOLES')
  commands.

    Psi4 stopped on: Monday, 27 April 2020 12:04AM
    Psi4 wall time for execution: 0:00:23.53

*** Psi4 exiting successfully. Buy a developer a beer!
