                               Psi4 1.3.2 release

  ==> Input File <==

--------------------------------------------------------------------------
import numpy as np
set {scf_type pk
basis cc-pvdz
d_convergence 10
gdma_switch   0
gdma_limit    0
gdma_origin   [ 0.0,  0.0,  0.0 ]
}
molecule test {
    units Angstrom
    0 1
    --
    0 1
    C                0.530124996518089     0.250566441267483     0.114790591016752
    C                2.007124996518089     0.477566441267483     0.265790591016752
    C                1.689124996518089    -1.883433558732517     0.162790591016752
    C               -2.038875003481912    -1.065433558732517     0.511790591016752
    C               -0.759875003481911    -1.891433558732517     0.368790591016752
    O               -0.793875003481911    -3.123433558732517     0.454790591016752
    N                0.383124996518089    -1.215433558732517     0.223790591016752
    H               -0.009875003481911     0.780566441267483     0.899790591016752
    H                0.204124996518089     0.573566441267483    -0.875209408983248
    H                2.255124996518088     0.582566441267483     1.322790591016752
    H                2.319124996518088     1.363566441267483    -0.288209408983248
    H                1.678124996518089    -2.694433558732517    -0.568209408983248
    H               -1.882875003481911    -0.097433558732517     0.037790591016752
    H                2.470414996518089    -0.435282558732517    -0.136787408983248
    H                2.380004996518089    -1.092415558732517    -0.164279408983248
    H                1.970314996518089    -2.271883558732517     1.152758591016752
    H               -2.875325003481911    -1.583668558732517     0.020073591016752
    H               -2.249895003481912    -0.903219558732517     1.579103591016752
    C               -0.672875003481911     3.321566441267483    -1.080209408983247
    C               -0.405875003481911     4.812566441267482    -0.953209408983248
    H               -1.634875003481911     3.153566441267483    -1.567209408983248
    H                0.116124996518089     2.860566441267482    -1.676209408983248
    H               -0.686875003481911     2.866566441267483    -0.091209408983248
    H                0.573124996518089     4.913566441267482    -0.488209408983248
    H               -1.156525003481911     5.261236441267481    -0.285962408983248
    H               -0.348135003481911     5.292536441267482    -1.941288408983248

}
e, wfn = energy('scf', return_wfn=True)
gdma(wfn)
dmavals = variable('DMA DISTRIBUTED MULTIPOLES')
charges = np.array(dmavals)
print(charges)
np.save('SSI-135PRO-144LEU-1-dimer.npy', np.array(charges))--------------------------------------------------------------------------

*** tstart() called on ds3
*** at Tue Apr 28 14:13:22 2020

   => Loading Basis Set <=

    Name: CC-PVDZ
    Role: ORBITAL
    Keyword: BASIS
    atoms 1-5, 19-20  entry C          line   138 file /theoryfs2/ds/metcalf/miniconda2/envs/tf2gpu/share/psi4/basis/cc-pvdz.gbs
    atoms 6           entry O          line   198 file /theoryfs2/ds/metcalf/miniconda2/envs/tf2gpu/share/psi4/basis/cc-pvdz.gbs
    atoms 7           entry N          line   168 file /theoryfs2/ds/metcalf/miniconda2/envs/tf2gpu/share/psi4/basis/cc-pvdz.gbs
    atoms 8-18, 21-26 entry H          line    22 file /theoryfs2/ds/metcalf/miniconda2/envs/tf2gpu/share/psi4/basis/cc-pvdz.gbs

         ---------------------------------------------------------
                                   SCF
               by Justin Turney, Rob Parrish, Andy Simmonett
                          and Daniel G. A. Smith
                              RHF Reference
                        1 Threads,    500 MiB Core
         ---------------------------------------------------------

  ==> Geometry <==

    Molecular point group: c1
    Full point group: C1

    Geometry (in Angstrom), charge = 0, multiplicity = 1:

       Center              X                  Y                   Z               Mass
    ------------   -----------------  -----------------  -----------------  -----------------
         C            0.530124996518     0.250566441267     0.114790591017    12.000000000000
         C            2.007124996518     0.477566441267     0.265790591017    12.000000000000
         C            1.689124996518    -1.883433558733     0.162790591017    12.000000000000
         C           -2.038875003482    -1.065433558733     0.511790591017    12.000000000000
         C           -0.759875003482    -1.891433558733     0.368790591017    12.000000000000
         O           -0.793875003482    -3.123433558733     0.454790591017    15.994914619570
         N            0.383124996518    -1.215433558733     0.223790591017    14.003074004430
         H           -0.009875003482     0.780566441267     0.899790591017     1.007825032230
         H            0.204124996518     0.573566441267    -0.875209408983     1.007825032230
         H            2.255124996518     0.582566441267     1.322790591017     1.007825032230
         H            2.319124996518     1.363566441267    -0.288209408983     1.007825032230
         H            1.678124996518    -2.694433558733    -0.568209408983     1.007825032230
         H           -1.882875003482    -0.097433558733     0.037790591017     1.007825032230
         H            2.470414996518    -0.435282558733    -0.136787408983     1.007825032230
         H            2.380004996518    -1.092415558733    -0.164279408983     1.007825032230
         H            1.970314996518    -2.271883558733     1.152758591017     1.007825032230
         H           -2.875325003482    -1.583668558733     0.020073591017     1.007825032230
         H           -2.249895003482    -0.903219558733     1.579103591017     1.007825032230
         C           -0.672875003482     3.321566441267    -1.080209408983    12.000000000000
         C           -0.405875003482     4.812566441267    -0.953209408983    12.000000000000
         H           -1.634875003482     3.153566441267    -1.567209408983     1.007825032230
         H            0.116124996518     2.860566441267    -1.676209408983     1.007825032230
         H           -0.686875003482     2.866566441267    -0.091209408983     1.007825032230
         H            0.573124996518     4.913566441267    -0.488209408983     1.007825032230
         H           -1.156525003482     5.261236441267    -0.285962408983     1.007825032230
         H           -0.348135003482     5.292536441267    -1.941288408983     1.007825032230

  Running in c1 symmetry.

  Rotational constants: A =      0.07320  B =      0.01939  C =      0.01582 [cm^-1]
  Rotational constants: A =   2194.55417  B =    581.26765  C =    474.21932 [MHz]
  Nuclear repulsion =  469.421184132170538

  Charge       = 0
  Multiplicity = 1
  Electrons    = 74
  Nalpha       = 37
  Nbeta        = 37

  ==> Algorithm <==

  SCF Algorithm Type is PK.
  DIIS enabled.
  MOM disabled.
  Fractional occupation disabled.
  Guess Type is SAD.
  Energy threshold   = 1.00e-06
  Density threshold  = 1.00e-10
  Integral threshold = 0.00e+00

  ==> Primary Basis <==

  Basis Set: CC-PVDZ
    Blend: CC-PVDZ
    Number of shells: 105
    Number of basis function: 211
    Number of Cartesian functions: 220
    Spherical Harmonics?: true
    Max angular momentum: 2

  ==> Pre-Iterations <==

   -------------------------------------------------------
    Irrep   Nso     Nmo     Nalpha   Nbeta   Ndocc  Nsocc
   -------------------------------------------------------
     A        211     211       0       0       0       0
   -------------------------------------------------------
    Total     211     211      37      37      37       0
   -------------------------------------------------------

  ==> Integral Setup <==

  Using integral reordering PK algorithm.
  Sizing the integral batches needed.
  Building batch lookup table.
   Calculation information:
      Number of atoms:                  26
      Number of AO shells:             105
      Number of primitives:            283
      Number of atomic orbitals:       220
      Number of basis functions:       211

      Integral cutoff                 1.00e-12
      Number of threads:                 1

	Batch   1 pq = [       0,    9405] index = [             0,44231715] size =     44231715
	Batch   2 pq = [    9405,   13301] index = [      44231715,88464951] size =     44233236
	Batch   3 pq = [   13301,   16290] index = [      88464951,132690195] size =     44225244
	Batch   4 pq = [   16290,   18810] index = [     132690195,176917455] size =     44227260
	Batch   5 pq = [   18810,   21030] index = [     176917455,221140965] size =     44223510
	Batch   6 pq = [   21030,   22366] index = [     221140965,250130161] size =     28989196
  Task number: 23
  Buffer size: 11059200
  Buffer per thread: 2
  We computed 13249236 shell quartets total.
  Whereas there are 15487395 unique shell quartets.

  ==> DiskJK: Disk-Based J/K Matrices <==

    J tasked:                  Yes
    K tasked:                  Yes
    wK tasked:                  No
    Memory [MiB]:              375
    Schwarz Cutoff:          1E-12

    OpenMP threads:              1

  Minimum eigenvalue in the overlap matrix is 1.5217403142E-03.
  Using Symmetric Orthogonalization.

  SCF Guess: Superposition of Atomic Densities via on-the-fly atomic UHF.

  ==> Iterations <==

                        Total Energy        Delta E     RMS |[F,P]|

   @RHF iter SAD:  -403.41740923705572   -4.03417e+02   0.00000e+00
   @RHF iter   1:  -403.81861711089005   -4.01208e-01   3.34524e-03 DIIS
   @RHF iter   2:  -404.04741804981580   -2.28801e-01   1.86658e-03 DIIS
   @RHF iter   3:  -404.10859205327205   -6.11740e-02   4.46554e-04 DIIS
   @RHF iter   4:  -404.11394057489684   -5.34852e-03   1.73881e-04 DIIS
   @RHF iter   5:  -404.11479635928259   -8.55784e-04   3.01945e-05 DIIS
   @RHF iter   6:  -404.11484810658294   -5.17473e-05   1.52173e-05 DIIS
   @RHF iter   7:  -404.11485837227747   -1.02657e-05   5.60605e-06 DIIS
   @RHF iter   8:  -404.11486052592272   -2.15365e-06   2.22574e-06 DIIS
   @RHF iter   9:  -404.11486085860616   -3.32683e-07   5.98654e-07 DIIS
   @RHF iter  10:  -404.11486087825284   -1.96467e-08   1.71794e-07 DIIS
   @RHF iter  11:  -404.11486087987282   -1.61998e-09   5.21992e-08 DIIS
   @RHF iter  12:  -404.11486088000413   -1.31308e-10   1.65642e-08 DIIS
   @RHF iter  13:  -404.11486088001618   -1.20508e-11   4.93444e-09 DIIS
   @RHF iter  14:  -404.11486088001448    1.70530e-12   1.24052e-09 DIIS
   @RHF iter  15:  -404.11486088001516   -6.82121e-13   3.20086e-10 DIIS
   @RHF iter  16:  -404.11486088001402    1.13687e-12   1.31602e-10 DIIS
   @RHF iter  17:  -404.11486088002033   -6.30962e-12   3.54855e-11 DIIS
  Energy and wave function converged.

  ==> Post-Iterations <==

    Orbital Energies [Eh]
    ---------------------

    Doubly Occupied:

       1A    -20.493630     2A    -15.581621     3A    -11.337893
       4A    -11.277322     5A    -11.246553     6A    -11.236057
       7A    -11.227847     8A    -11.227223     9A    -11.221688
      10A     -1.355949    11A     -1.250967    12A     -1.072273
      13A     -1.032032    14A     -1.006140    15A     -0.968251
      16A     -0.855335    17A     -0.844843    18A     -0.755251
      19A     -0.727951    20A     -0.672965    21A     -0.650038
      22A     -0.614396    23A     -0.612854    24A     -0.607335
      25A     -0.597613    26A     -0.573846    27A     -0.548284
      28A     -0.537156    29A     -0.534542    30A     -0.521297
      31A     -0.506802    32A     -0.499650    33A     -0.490817
      34A     -0.483518    35A     -0.399342    36A     -0.394564
      37A     -0.358932

    Virtual:

      38A      0.156174    39A      0.182017    40A      0.185384
      41A      0.190942    42A      0.213984    43A      0.222815
      44A      0.230420    45A      0.244356    46A      0.250833
      47A      0.258955    48A      0.264511    49A      0.272693
      50A      0.279584    51A      0.290912    52A      0.292649
      53A      0.308820    54A      0.325160    55A      0.346358
      56A      0.370961    57A      0.376209    58A      0.404514
      59A      0.419157    60A      0.452986    61A      0.500244
      62A      0.517937    63A      0.549175    64A      0.576412
      65A      0.593012    66A      0.596628    67A      0.610650
      68A      0.637583    69A      0.640046    70A      0.655682
      71A      0.662190    72A      0.682988    73A      0.695164
      74A      0.706367    75A      0.731640    76A      0.759583
      77A      0.778308    78A      0.792285    79A      0.826664
      80A      0.844328    81A      0.854546    82A      0.860382
      83A      0.867999    84A      0.874192    85A      0.880688
      86A      0.884014    87A      0.887684    88A      0.894149
      89A      0.899127    90A      0.902755    91A      0.911243
      92A      0.916161    93A      0.922692    94A      0.943232
      95A      0.958154    96A      0.959449    97A      0.983497
      98A      1.002365    99A      1.009663   100A      1.040703
     101A      1.075397   102A      1.110999   103A      1.119137
     104A      1.127573   105A      1.145006   106A      1.170893
     107A      1.207917   108A      1.238208   109A      1.242980
     110A      1.259521   111A      1.356751   112A      1.373393
     113A      1.401102   114A      1.425134   115A      1.436845
     116A      1.459317   117A      1.464280   118A      1.481378
     119A      1.509950   120A      1.541926   121A      1.560217
     122A      1.575065   123A      1.587134   124A      1.593626
     125A      1.627316   126A      1.654317   127A      1.664326
     128A      1.680671   129A      1.683749   130A      1.697188
     131A      1.763742   132A      1.769667   133A      1.806892
     134A      1.836460   135A      1.840889   136A      1.845846
     137A      1.855128   138A      1.877857   139A      1.884490
     140A      1.902618   141A      1.906932   142A      1.920359
     143A      1.928929   144A      1.934231   145A      1.943501
     146A      1.953743   147A      1.958521   148A      1.973907
     149A      1.982862   150A      1.987747   151A      2.004185
     152A      2.031692   153A      2.042186   154A      2.059134
     155A      2.065453   156A      2.088405   157A      2.109069
     158A      2.121606   159A      2.130681   160A      2.136419
     161A      2.153819   162A      2.180563   163A      2.183010
     164A      2.228711   165A      2.247341   166A      2.265888
     167A      2.275757   168A      2.291176   169A      2.308194
     170A      2.345642   171A      2.359023   172A      2.418124
     173A      2.436610   174A      2.462763   175A      2.467743
     176A      2.496829   177A      2.509002   178A      2.536294
     179A      2.549783   180A      2.559704   181A      2.580903
     182A      2.617544   183A      2.646161   184A      2.705277
     185A      2.746213   186A      2.753881   187A      2.762413
     188A      2.778324   189A      2.782660   190A      2.798745
     191A      2.817608   192A      2.822806   193A      2.828511
     194A      2.829304   195A      2.850453   196A      2.860539
     197A      2.930287   198A      2.946729   199A      2.971806
     200A      2.980405   201A      3.032463   202A      3.096356
     203A      3.121801   204A      3.168411   205A      3.219974
     206A      3.319276   207A      3.354253   208A      3.526960
     209A      3.826539   210A      3.905466   211A      5.040510

    Final Occupation by Irrep:
              A
    DOCC [    37 ]

  @RHF Final Energy:  -404.11486088002033

   => Energetics <=

    Nuclear Repulsion Energy =            469.4211841321705379
    One-Electron Energy =               -1478.4265368307812878
    Two-Electron Energy =                 604.8904918185904762
    Total Energy =                       -404.1148608800202737

Computation Completed

Properties will be evaluated at   0.000000,   0.000000,   0.000000 [a0]

Properties computed using the SCF density matrix

  Nuclear Dipole Moment: [e a0]
     X:     2.9220      Y:    17.3973      Z:    -2.8769

  Electronic Dipole Moment: [e a0]
     X:    -2.3177      Y:   -15.6565      Z:     2.7197

  Dipole Moment: [e a0]
     X:     0.6043      Y:     1.7408      Z:    -0.1572     Total:     1.8494

  Dipole Moment: [D]
     X:     1.5359      Y:     4.4247      Z:    -0.3997     Total:     4.7007

*** tstop() called on ds3 at Tue Apr 28 14:16:01 2020
Module time:
	user time   =      85.90 seconds =       1.43 minutes
	system time =      36.82 seconds =       0.61 minutes
	total time  =        159 seconds =       2.65 minutes
Total time:
	user time   =      85.90 seconds =       1.43 minutes
	system time =      36.82 seconds =       0.61 minutes
	total time  =        159 seconds =       2.65 minutes
                                     G D M A

                                 by Anthony Stone

                           version 2.2.06, 22 June 2011

               Distributed Multipoles from Gaussian wavefunctions

Starting at 14:16:1 on 28 Apr 2020

Using SCF density matrix from file ./SSI/SSI-135PRO-144LEU-1-dimer.test.8906.fchk

                         Distributed Multipole Analysis

Standard DMA

Positions and radii in angstrom
Multipole moments in atomic units, ea_0^k for rank k

C          x =  0.530125  y =  0.250566  z =  0.114791 angstrom
           Maximum rank =  0   Radius =  0.650 angstrom
                   Q00  =   0.004596

C          x =  2.007125  y =  0.477566  z =  0.265791 angstrom
           Maximum rank =  0   Radius =  0.650 angstrom
                   Q00  =  -0.240567

C          x =  1.689125  y = -1.883434  z =  0.162791 angstrom
           Maximum rank =  0   Radius =  0.650 angstrom
                   Q00  =  -0.100072

C          x = -2.038875  y = -1.065434  z =  0.511791 angstrom
           Maximum rank =  0   Radius =  0.650 angstrom
                   Q00  =  -0.267809

C          x = -0.759875  y = -1.891434  z =  0.368791 angstrom
           Maximum rank =  0   Radius =  0.650 angstrom
                   Q00  =   0.754270

O          x = -0.793875  y = -3.123434  z =  0.454791 angstrom
           Maximum rank =  0   Radius =  0.650 angstrom
                   Q00  =  -0.791031

N          x =  0.383125  y = -1.215434  z =  0.223791 angstrom
           Maximum rank =  0   Radius =  0.650 angstrom
                   Q00  =  -0.469229

H          x = -0.009875  y =  0.780566  z =  0.899791 angstrom
           Maximum rank =  0   Radius =  0.325 angstrom
                   Q00  =   0.086952

H          x =  0.204125  y =  0.573566  z = -0.875209 angstrom
           Maximum rank =  0   Radius =  0.325 angstrom
                   Q00  =   0.063144

H          x =  2.255125  y =  0.582566  z =  1.322791 angstrom
           Maximum rank =  0   Radius =  0.325 angstrom
                   Q00  =   0.099886

H          x =  2.319125  y =  1.363566  z = -0.288209 angstrom
           Maximum rank =  0   Radius =  0.325 angstrom
                   Q00  =   0.089513

H          x =  1.678125  y = -2.694434  z = -0.568209 angstrom
           Maximum rank =  0   Radius =  0.325 angstrom
                   Q00  =   0.109969

H          x = -1.882875  y = -0.097434  z =  0.037791 angstrom
           Maximum rank =  0   Radius =  0.325 angstrom
                   Q00  =   0.087260

H          x =  2.470415  y = -0.435283  z = -0.136787 angstrom
           Maximum rank =  0   Radius =  0.325 angstrom
                   Q00  =   0.107322

H          x =  2.380005  y = -1.092416  z = -0.164279 angstrom
           Maximum rank =  0   Radius =  0.325 angstrom
                   Q00  =   0.106573

H          x =  1.970315  y = -2.271884  z =  1.152759 angstrom
           Maximum rank =  0   Radius =  0.325 angstrom
                   Q00  =   0.101534

H          x = -2.875325  y = -1.583669  z =  0.020074 angstrom
           Maximum rank =  0   Radius =  0.325 angstrom
                   Q00  =   0.129829

H          x = -2.249895  y = -0.903220  z =  1.579104 angstrom
           Maximum rank =  0   Radius =  0.325 angstrom
                   Q00  =   0.126459

C          x = -0.672875  y =  3.321566  z = -1.080209 angstrom
           Maximum rank =  0   Radius =  0.650 angstrom
                   Q00  =  -0.231466

C          x = -0.405875  y =  4.812566  z = -0.953209 angstrom
           Maximum rank =  0   Radius =  0.650 angstrom
                   Q00  =  -0.236822

H          x = -1.634875  y =  3.153566  z = -1.567209 angstrom
           Maximum rank =  0   Radius =  0.325 angstrom
                   Q00  =   0.081766

H          x =  0.116125  y =  2.860566  z = -1.676209 angstrom
           Maximum rank =  0   Radius =  0.325 angstrom
                   Q00  =   0.073453

H          x = -0.686875  y =  2.866566  z = -0.091209 angstrom
           Maximum rank =  0   Radius =  0.325 angstrom
                   Q00  =   0.074424

H          x =  0.573125  y =  4.913566  z = -0.488209 angstrom
           Maximum rank =  0   Radius =  0.325 angstrom
                   Q00  =   0.073874

H          x = -1.156525  y =  5.261236  z = -0.285962 angstrom
           Maximum rank =  0   Radius =  0.325 angstrom
                   Q00  =   0.082161

H          x = -0.348135  y =  5.292536  z = -1.941288 angstrom
           Maximum rank =  0   Radius =  0.325 angstrom
                   Q00  =   0.084012

Total multipoles referred to origin at
           x =   0.000000,  y =    0.000000,  z =    0.000000 angstrom
                   Q00  =  -0.000000

Finished at 14:16:1 on 28 Apr 2020

  DMA results are available in the Python driver through the
	  variable('DMA DISTRIBUTED MULTIPOLES')
  and
	  variable('DMA TOTAL MULTIPOLES')
  commands.

    Psi4 stopped on: Tuesday, 28 April 2020 02:16PM
    Psi4 wall time for execution: 0:02:39.36

*** Psi4 exiting successfully. Buy a developer a beer!
