                               Psi4 1.3.2 release

  ==> Input File <==

--------------------------------------------------------------------------
import numpy as np
set {scf_type pk
basis cc-pvdz
d_convergence 10
gdma_switch   0
gdma_limit    0
gdma_origin   [ 0.0,  0.0,  0.0 ]
}
molecule test {
    units Angstrom
    0 1
    --
    0 1
    C                2.457266965494636     2.090373528865245    -2.571825124474775
    C               -1.050733034505364     2.387373528865245    -1.161825124474775
    C               -0.821733034505364     2.745373528865245     0.160174875525225
    C                0.013266965494636     2.186373528865245    -2.028825124474775
    C                1.328266965494636     2.306373528865245    -1.584825124474775
    C                0.484266965494636     2.909373528865245     0.613174875525225
    C                1.557266965494636     2.708373528865245    -0.261825124474775
    H               -2.062733034505364     2.289373528865245    -1.526825124474775
    H               -1.650733034505364     2.889373528865245     0.835174875525225
    H               -0.188733034505364     1.927373528865245    -3.056825124474775
    H                0.658266965494636     3.205373528865245     1.635174875525225
    H                2.714266965494636     3.058373528865245    -3.002825124474775
    H                2.092266965494636     1.456373528865245    -3.380825124474776
    H                2.559266965494636     2.867373528865245     0.098174875525225
    H                3.365136965494636     1.627465528865245    -2.157725124474775
    C               -0.770733034505364    -4.634626471134755    -0.124825124474775
    C               -0.082733034505364    -0.948626471134755     0.531174875525225
    C               -0.486733034505364    -0.821626471134755     1.866174875525225
    C               -0.172733034505364    -2.184626471134755    -0.108825124474775
    C               -0.647733034505364    -3.309626471134755     0.575174875525225
    C               -0.959733034505364    -1.943626471134755     2.551174875525224
    C               -1.039733034505364    -3.181626471134755     1.904174875525225
    H                0.285266965494636    -0.085626471134755    -0.005825124474775
    H               -0.427733034505364     0.138373528865245     2.361174875525224
    H                0.132266965494636    -2.264626471134755    -1.142825124474775
    H               -1.276733034505364    -1.849626471134755     3.581174875525225
    H               -0.924733034505364    -4.459626471134755    -1.186825124474775
    H               -1.663733034505364    -5.142626471134754     0.239174875525225
    H               -1.418733034505364    -4.039626471134754     2.441174875525224
    H                0.096361965494636    -5.299636471134756     0.001294875525225

}
e, wfn = energy('scf', return_wfn=True)
gdma(wfn)
dmavals = variable('DMA DISTRIBUTED MULTIPOLES')
charges = np.array(dmavals)
print(charges)
np.save('SSI-021PHE-072PHE-1-dimer.npy', np.array(charges))--------------------------------------------------------------------------

*** tstart() called on ds3
*** at Sun Apr 26 23:57:20 2020

   => Loading Basis Set <=

    Name: CC-PVDZ
    Role: ORBITAL
    Keyword: BASIS
    atoms 1-7, 16-22  entry C          line   138 file /theoryfs2/ds/metcalf/miniconda2/envs/tf2gpu/share/psi4/basis/cc-pvdz.gbs
    atoms 8-15, 23-30 entry H          line    22 file /theoryfs2/ds/metcalf/miniconda2/envs/tf2gpu/share/psi4/basis/cc-pvdz.gbs

         ---------------------------------------------------------
                                   SCF
               by Justin Turney, Rob Parrish, Andy Simmonett
                          and Daniel G. A. Smith
                              RHF Reference
                        1 Threads,    500 MiB Core
         ---------------------------------------------------------

  ==> Geometry <==

    Molecular point group: c1
    Full point group: C1

    Geometry (in Angstrom), charge = 0, multiplicity = 1:

       Center              X                  Y                   Z               Mass
    ------------   -----------------  -----------------  -----------------  -----------------
         C            2.457266965495     2.090373528865    -2.571825124475    12.000000000000
         C           -1.050733034505     2.387373528865    -1.161825124475    12.000000000000
         C           -0.821733034505     2.745373528865     0.160174875525    12.000000000000
         C            0.013266965495     2.186373528865    -2.028825124475    12.000000000000
         C            1.328266965495     2.306373528865    -1.584825124475    12.000000000000
         C            0.484266965495     2.909373528865     0.613174875525    12.000000000000
         C            1.557266965495     2.708373528865    -0.261825124475    12.000000000000
         H           -2.062733034505     2.289373528865    -1.526825124475     1.007825032230
         H           -1.650733034505     2.889373528865     0.835174875525     1.007825032230
         H           -0.188733034505     1.927373528865    -3.056825124475     1.007825032230
         H            0.658266965495     3.205373528865     1.635174875525     1.007825032230
         H            2.714266965495     3.058373528865    -3.002825124475     1.007825032230
         H            2.092266965495     1.456373528865    -3.380825124475     1.007825032230
         H            2.559266965495     2.867373528865     0.098174875525     1.007825032230
         H            3.365136965495     1.627465528865    -2.157725124475     1.007825032230
         C           -0.770733034505    -4.634626471135    -0.124825124475    12.000000000000
         C           -0.082733034505    -0.948626471135     0.531174875525    12.000000000000
         C           -0.486733034505    -0.821626471135     1.866174875525    12.000000000000
         C           -0.172733034505    -2.184626471135    -0.108825124475    12.000000000000
         C           -0.647733034505    -3.309626471135     0.575174875525    12.000000000000
         C           -0.959733034505    -1.943626471135     2.551174875525    12.000000000000
         C           -1.039733034505    -3.181626471135     1.904174875525    12.000000000000
         H            0.285266965495    -0.085626471135    -0.005825124475     1.007825032230
         H           -0.427733034505     0.138373528865     2.361174875525     1.007825032230
         H            0.132266965495    -2.264626471135    -1.142825124475     1.007825032230
         H           -1.276733034505    -1.849626471135     3.581174875525     1.007825032230
         H           -0.924733034505    -4.459626471135    -1.186825124475     1.007825032230
         H           -1.663733034505    -5.142626471135     0.239174875525     1.007825032230
         H           -1.418733034505    -4.039626471135     2.441174875525     1.007825032230
         H            0.096361965495    -5.299636471135     0.001294875525     1.007825032230

  Running in c1 symmetry.

  Rotational constants: A =      0.03942  B =      0.01026  C =      0.00916 [cm^-1]
  Rotational constants: A =   1181.79017  B =    307.68300  C =    274.49515 [MHz]
  Nuclear repulsion =  773.898958527786931

  Charge       = 0
  Multiplicity = 1
  Electrons    = 100
  Nalpha       = 50
  Nbeta        = 50

  ==> Algorithm <==

  SCF Algorithm Type is PK.
  DIIS enabled.
  MOM disabled.
  Fractional occupation disabled.
  Guess Type is SAD.
  Energy threshold   = 1.00e-06
  Density threshold  = 1.00e-10
  Integral threshold = 0.00e+00

  ==> Primary Basis <==

  Basis Set: CC-PVDZ
    Blend: CC-PVDZ
    Number of shells: 132
    Number of basis function: 276
    Number of Cartesian functions: 290
    Spherical Harmonics?: true
    Max angular momentum: 2

  ==> Pre-Iterations <==

   -------------------------------------------------------
    Irrep   Nso     Nmo     Nalpha   Nbeta   Ndocc  Nsocc
   -------------------------------------------------------
     A        276     276       0       0       0       0
   -------------------------------------------------------
    Total     276     276      50      50      50       0
   -------------------------------------------------------

  ==> Integral Setup <==

  Using integral reordering PK algorithm.
  Sizing the integral batches needed.
  Building batch lookup table.
   Calculation information:
      Number of atoms:                  30
      Number of AO shells:             132
      Number of primitives:            388
      Number of atomic orbitals:       290
      Number of basis functions:       276

      Integral cutoff                 1.00e-12
      Number of threads:                 1

	Batch   1 pq = [       0,    9405] index = [             0,44231715] size =     44231715
	Batch   2 pq = [    9405,   13301] index = [      44231715,88464951] size =     44233236
	Batch   3 pq = [   13301,   16290] index = [      88464951,132690195] size =     44225244
	Batch   4 pq = [   16290,   18810] index = [     132690195,176917455] size =     44227260
	Batch   5 pq = [   18810,   21030] index = [     176917455,221140965] size =     44223510
	Batch   6 pq = [   21030,   23037] index = [     221140965,265363203] size =     44222238
	Batch   7 pq = [   23037,   24883] index = [     265363203,309594286] size =     44231083
	Batch   8 pq = [   24883,   26601] index = [     309594286,353819901] size =     44225615
	Batch   9 pq = [   26601,   28214] index = [     353819901,398029005] size =     44209104
	Batch  10 pq = [   28214,   29740] index = [     398029005,442248670] size =     44219665
	Batch  11 pq = [   29740,   31191] index = [     442248670,486454836] size =     44206166
	Batch  12 pq = [   31191,   32578] index = [     486454836,530679331] size =     44224495
	Batch  13 pq = [   32578,   33908] index = [     530679331,574893186] size =     44213855
	Batch  14 pq = [   33908,   35188] index = [     574893186,619115266] size =     44222080
	Batch  15 pq = [   35188,   36423] index = [     619115266,663335676] size =     44220410
	Batch  16 pq = [   36423,   37617] index = [     663335676,707538153] size =     44202477
	Batch  17 pq = [   37617,   38226] index = [     707538153,730632651] size =     23094498
  Task number: 67
  Buffer size: 11059200
  Buffer per thread: 2
  We computed 36153763 shell quartets total.
  Whereas there are 38531031 unique shell quartets.

  ==> DiskJK: Disk-Based J/K Matrices <==

    J tasked:                  Yes
    K tasked:                  Yes
    wK tasked:                  No
    Memory [MiB]:              375
    Schwarz Cutoff:          1E-12

    OpenMP threads:              1

  Minimum eigenvalue in the overlap matrix is 3.0664999055E-04.
  Using Symmetric Orthogonalization.

  SCF Guess: Superposition of Atomic Densities via on-the-fly atomic UHF.

  ==> Iterations <==

                        Total Energy        Delta E     RMS |[F,P]|

   @RHF iter SAD:  -538.32182804167974   -5.38322e+02   0.00000e+00
   @RHF iter   1:  -539.23155431965006   -9.09726e-01   2.28648e-03 DIIS
   @RHF iter   2:  -539.48123926867856   -2.49685e-01   9.19645e-04 DIIS
   @RHF iter   3:  -539.51670846945899   -3.54692e-02   2.11556e-04 DIIS
   @RHF iter   4:  -539.51978131079534   -3.07284e-03   4.62115e-05 DIIS
   @RHF iter   5:  -539.51988922874284   -1.07918e-04   1.42035e-05 DIIS
   @RHF iter   6:  -539.51989900144645   -9.77270e-06   4.26031e-06 DIIS
   @RHF iter   7:  -539.51990002259095   -1.02114e-06   1.12762e-06 DIIS
   @RHF iter   8:  -539.51990011502062   -9.24297e-08   3.14687e-07 DIIS
   @RHF iter   9:  -539.51990012856641   -1.35458e-08   1.52657e-07 DIIS
   @RHF iter  10:  -539.51990013170234   -3.13594e-09   7.44829e-08 DIIS
   @RHF iter  11:  -539.51990013286786   -1.16552e-09   3.09784e-08 DIIS
   @RHF iter  12:  -539.51990013306977   -2.01908e-10   1.39179e-08 DIIS
   @RHF iter  13:  -539.51990013309478   -2.50111e-11   4.07669e-09 DIIS
   @RHF iter  14:  -539.51990013309785   -3.06954e-12   1.07734e-09 DIIS
   @RHF iter  15:  -539.51990013310058   -2.72848e-12   3.87356e-10 DIIS
   @RHF iter  16:  -539.51990013309819    2.38742e-12   1.70360e-10 DIIS
   @RHF iter  17:  -539.51990013309728    9.09495e-13   8.79902e-11 DIIS
  Energy and wave function converged.

  ==> Post-Iterations <==

    Orbital Energies [Eh]
    ---------------------

    Doubly Occupied:

       1A    -11.246382     2A    -11.239055     3A    -11.236456
       4A    -11.235231     5A    -11.234439     6A    -11.233022
       7A    -11.232864     8A    -11.232326     9A    -11.230168
      10A    -11.225877    11A    -11.224185    12A    -11.224024
      13A    -11.223960    14A    -11.223182    15A     -1.155154
      16A     -1.142332    17A     -1.045905    18A     -1.036037
      19A     -1.014200    20A     -1.001825    21A     -0.934018
      22A     -0.924391    23A     -0.826935    24A     -0.815853
      25A     -0.798688    26A     -0.787300    27A     -0.694088
      28A     -0.681989    29A     -0.633884    30A     -0.631856
      31A     -0.623235    32A     -0.621950    33A     -0.585095
      34A     -0.579840    35A     -0.572713    36A     -0.571904
      37A     -0.565654    38A     -0.555707    39A     -0.537727
      40A     -0.528054    41A     -0.492482    42A     -0.487441
      43A     -0.483507    44A     -0.477435    45A     -0.475595
      46A     -0.471895    47A     -0.336041    48A     -0.326623
      49A     -0.321700    50A     -0.313122

    Virtual:

      51A      0.132295    52A      0.136158    53A      0.144236
      54A      0.148388    55A      0.176025    56A      0.193606
      57A      0.195383    58A      0.211281    59A      0.218385
      60A      0.232325    61A      0.241608    62A      0.249771
      63A      0.258073    64A      0.260855    65A      0.272968
      66A      0.276393    67A      0.282878    68A      0.289885
      69A      0.295547    70A      0.312538    71A      0.362174
      72A      0.371434    73A      0.373820    74A      0.382062
      75A      0.449731    76A      0.454257    77A      0.461562
      78A      0.468317    79A      0.474180    80A      0.484010
      81A      0.489118    82A      0.494659    83A      0.557090
      84A      0.563937    85A      0.587431    86A      0.608374
      87A      0.632627    88A      0.644170    89A      0.667016
      90A      0.674640    91A      0.681742    92A      0.683242
      93A      0.693602    94A      0.707117    95A      0.716476
      96A      0.725140    97A      0.732530    98A      0.737861
      99A      0.738519   100A      0.745952   101A      0.749943
     102A      0.751367   103A      0.753966   104A      0.761958
     105A      0.770375   106A      0.779526   107A      0.780810
     108A      0.796902   109A      0.815720   110A      0.830544
     111A      0.839957   112A      0.843738   113A      0.855761
     114A      0.861401   115A      0.872812   116A      0.877194
     117A      0.879154   118A      0.884666   119A      0.892848
     120A      0.894216   121A      0.895627   122A      0.901124
     123A      0.911253   124A      0.919555   125A      0.925228
     126A      0.929329   127A      0.941794   128A      0.943398
     129A      0.948979   130A      0.972948   131A      0.989075
     132A      0.999033   133A      1.002876   134A      1.026552
     135A      1.049457   136A      1.107695   137A      1.116523
     138A      1.122599   139A      1.141957   140A      1.148621
     141A      1.156277   142A      1.161797   143A      1.170959
     144A      1.191699   145A      1.203842   146A      1.214844
     147A      1.227583   148A      1.234595   149A      1.248310
     150A      1.248989   151A      1.257930   152A      1.263275
     153A      1.277573   154A      1.288197   155A      1.301911
     156A      1.305639   157A      1.312422   158A      1.316410
     159A      1.322763   160A      1.324829   161A      1.331197
     162A      1.361423   163A      1.420589   164A      1.435657
     165A      1.496772   166A      1.518522   167A      1.519493
     168A      1.537491   169A      1.557478   170A      1.566307
     171A      1.593934   172A      1.613396   173A      1.662596
     174A      1.689156   175A      1.699592   176A      1.707384
     177A      1.730841   178A      1.735926   179A      1.747447
     180A      1.751358   181A      1.761471   182A      1.772659
     183A      1.787834   184A      1.798818   185A      1.815078
     186A      1.841021   187A      1.858002   188A      1.867439
     189A      1.880233   190A      1.883305   191A      1.890701
     192A      1.902594   193A      1.908074   194A      1.913243
     195A      1.920275   196A      1.924828   197A      1.928909
     198A      1.934228   199A      1.940743   200A      1.945783
     201A      1.946721   202A      1.956900   203A      1.971280
     204A      1.977833   205A      1.980584   206A      1.986458
     207A      1.998001   208A      2.005352   209A      2.038057
     210A      2.044186   211A      2.065154   212A      2.072139
     213A      2.075948   214A      2.084233   215A      2.111498
     216A      2.112658   217A      2.134298   218A      2.149149
     219A      2.152513   220A      2.160462   221A      2.165773
     222A      2.171056   223A      2.172654   224A      2.174365
     225A      2.189868   226A      2.217906   227A      2.256808
     228A      2.263740   229A      2.269052   230A      2.285418
     231A      2.289634   232A      2.294841   233A      2.303401
     234A      2.314247   235A      2.315692   236A      2.323331
     237A      2.327306   238A      2.360125   239A      2.446560
     240A      2.470765   241A      2.477765   242A      2.479390
     243A      2.483070   244A      2.500975   245A      2.543260
     246A      2.548186   247A      2.625751   248A      2.627468
     249A      2.735273   250A      2.749634   251A      2.753862
     252A      2.762233   253A      2.765331   254A      2.774826
     255A      2.783259   256A      2.795461   257A      2.810035
     258A      2.830952   259A      2.849269   260A      2.859941
     261A      2.861629   262A      2.880933   263A      2.982762
     264A      2.988900   265A      3.011262   266A      3.013236
     267A      3.020012   268A      3.029819   269A      3.157760
     270A      3.158531   271A      3.197372   272A      3.201095
     273A      3.297839   274A      3.304503   275A      3.958582
     276A      3.962128

    Final Occupation by Irrep:
              A
    DOCC [    50 ]

  @RHF Final Energy:  -539.51990013309728

   => Energetics <=

    Nuclear Repulsion Energy =            773.8989585277869310
    One-Electron Energy =               -2264.2510239891107631
    Two-Electron Energy =                 950.8321653282266652
    Total Energy =                       -539.5199001330972806

Computation Completed

Properties will be evaluated at   0.000000,   0.000000,   0.000000 [a0]

Properties computed using the SCF density matrix

  Nuclear Dipole Moment: [e a0]
     X:     2.1461      Y:    -3.4517      Z:    -4.0011

  Electronic Dipole Moment: [e a0]
     X:    -2.0465      Y:     3.5357      Z:     3.7663

  Dipole Moment: [e a0]
     X:     0.0995      Y:     0.0840      Z:    -0.2348     Total:     0.2685

  Dipole Moment: [D]
     X:     0.2530      Y:     0.2135      Z:    -0.5967     Total:     0.6824

*** tstop() called on ds3 at Mon Apr 27 00:09:57 2020
Module time:
	user time   =     295.32 seconds =       4.92 minutes
	system time =     132.94 seconds =       2.22 minutes
	total time  =        757 seconds =      12.62 minutes
Total time:
	user time   =     295.32 seconds =       4.92 minutes
	system time =     132.94 seconds =       2.22 minutes
	total time  =        757 seconds =      12.62 minutes
                                     G D M A

                                 by Anthony Stone

                           version 2.2.06, 22 June 2011

               Distributed Multipoles from Gaussian wavefunctions

Starting at 0:9:57 on 27 Apr 2020

Using SCF density matrix from file ./SSI/SSI-021PHE-072PHE-1-dimer.test.5758.fchk

                         Distributed Multipole Analysis

Standard DMA

Positions and radii in angstrom
Multipole moments in atomic units, ea_0^k for rank k

C          x =  2.457267  y =  2.090374  z = -2.571825 angstrom
           Maximum rank =  0   Radius =  0.650 angstrom
                   Q00  =  -0.213035

C          x = -1.050733  y =  2.387374  z = -1.161825 angstrom
           Maximum rank =  0   Radius =  0.650 angstrom
                   Q00  =  -0.036288

C          x = -0.821733  y =  2.745374  z =  0.160175 angstrom
           Maximum rank =  0   Radius =  0.650 angstrom
                   Q00  =  -0.076684

C          x =  0.013267  y =  2.186374  z = -2.028825 angstrom
           Maximum rank =  0   Radius =  0.650 angstrom
                   Q00  =  -0.010892

C          x =  1.328267  y =  2.306374  z = -1.584825 angstrom
           Maximum rank =  0   Radius =  0.650 angstrom
                   Q00  =  -0.103445

C          x =  0.484267  y =  2.909374  z =  0.613175 angstrom
           Maximum rank =  0   Radius =  0.650 angstrom
                   Q00  =  -0.082077

C          x =  1.557267  y =  2.708374  z = -0.261825 angstrom
           Maximum rank =  0   Radius =  0.650 angstrom
                   Q00  =  -0.091874

H          x = -2.062733  y =  2.289374  z = -1.526825 angstrom
           Maximum rank =  0   Radius =  0.325 angstrom
                   Q00  =   0.066968

H          x = -1.650733  y =  2.889374  z =  0.835175 angstrom
           Maximum rank =  0   Radius =  0.325 angstrom
                   Q00  =   0.063620

H          x = -0.188733  y =  1.927374  z = -3.056825 angstrom
           Maximum rank =  0   Radius =  0.325 angstrom
                   Q00  =   0.056962

H          x =  0.658267  y =  3.205374  z =  1.635175 angstrom
           Maximum rank =  0   Radius =  0.325 angstrom
                   Q00  =   0.066480

H          x =  2.714267  y =  3.058374  z = -3.002825 angstrom
           Maximum rank =  0   Radius =  0.325 angstrom
                   Q00  =   0.105511

H          x =  2.092267  y =  1.456374  z = -3.380825 angstrom
           Maximum rank =  0   Radius =  0.325 angstrom
                   Q00  =   0.097314

H          x =  2.559267  y =  2.867374  z =  0.098175 angstrom
           Maximum rank =  0   Radius =  0.325 angstrom
                   Q00  =   0.059385

H          x =  3.365137  y =  1.627466  z = -2.157725 angstrom
           Maximum rank =  0   Radius =  0.325 angstrom
                   Q00  =   0.104141

C          x = -0.770733  y = -4.634626  z = -0.124825 angstrom
           Maximum rank =  0   Radius =  0.650 angstrom
                   Q00  =  -0.205366

C          x = -0.082733  y = -0.948626  z =  0.531175 angstrom
           Maximum rank =  0   Radius =  0.650 angstrom
                   Q00  =  -0.068987

C          x = -0.486733  y = -0.821626  z =  1.866175 angstrom
           Maximum rank =  0   Radius =  0.650 angstrom
                   Q00  =  -0.077165

C          x = -0.172733  y = -2.184626  z = -0.108825 angstrom
           Maximum rank =  0   Radius =  0.650 angstrom
                   Q00  =  -0.037799

C          x = -0.647733  y = -3.309626  z =  0.575175 angstrom
           Maximum rank =  0   Radius =  0.650 angstrom
                   Q00  =  -0.098858

C          x = -0.959733  y = -1.943626  z =  2.551175 angstrom
           Maximum rank =  0   Radius =  0.650 angstrom
                   Q00  =  -0.063278

C          x = -1.039733  y = -3.181626  z =  1.904175 angstrom
           Maximum rank =  0   Radius =  0.650 angstrom
                   Q00  =  -0.052634

H          x =  0.285267  y = -0.085626  z = -0.005825 angstrom
           Maximum rank =  0   Radius =  0.325 angstrom
                   Q00  =   0.078038

H          x = -0.427733  y =  0.138374  z =  2.361175 angstrom
           Maximum rank =  0   Radius =  0.325 angstrom
                   Q00  =   0.056854

H          x =  0.132267  y = -2.264626  z = -1.142825 angstrom
           Maximum rank =  0   Radius =  0.325 angstrom
                   Q00  =   0.050939

H          x = -1.276733  y = -1.849626  z =  3.581175 angstrom
           Maximum rank =  0   Radius =  0.325 angstrom
                   Q00  =   0.061881

H          x = -0.924733  y = -4.459626  z = -1.186825 angstrom
           Maximum rank =  0   Radius =  0.325 angstrom
                   Q00  =   0.096307

H          x = -1.663733  y = -5.142626  z =  0.239175 angstrom
           Maximum rank =  0   Radius =  0.325 angstrom
                   Q00  =   0.096090

H          x = -1.418733  y = -4.039626  z =  2.441175 angstrom
           Maximum rank =  0   Radius =  0.325 angstrom
                   Q00  =   0.054300

H          x =  0.096362  y = -5.299636  z =  0.001295 angstrom
           Maximum rank =  0   Radius =  0.325 angstrom
                   Q00  =   0.103590

Total multipoles referred to origin at
           x =   0.000000,  y =    0.000000,  z =    0.000000 angstrom
                   Q00  =  -0.000000

Finished at 0:9:57 on 27 Apr 2020

  DMA results are available in the Python driver through the
	  variable('DMA DISTRIBUTED MULTIPOLES')
  and
	  variable('DMA TOTAL MULTIPOLES')
  commands.

    Psi4 stopped on: Monday, 27 April 2020 12:09AM
    Psi4 wall time for execution: 0:12:36.82

*** Psi4 exiting successfully. Buy a developer a beer!
