                               Psi4 1.3.2 release

  ==> Input File <==

--------------------------------------------------------------------------
import numpy as np
set {scf_type pk
basis cc-pvdz
d_convergence 10
gdma_switch   0
gdma_limit    0
gdma_origin   [ 0.0,  0.0,  0.0 ]
}
molecule test {
    units Angstrom
    0 1
    --
    0 1
    C               -0.182506557865484    -0.878559201056029    -1.434163255482659
    C               -0.806506557865484    -1.762559201056029    -2.513163255482659
    H                0.800493442134516    -0.540559201056029    -1.763163255482658
    H               -0.805506557865484     0.002440798943971    -1.271163255482658
    H               -0.059506557865484    -1.433559201056029    -0.506163255482659
    H               -1.819506557865484    -2.022559201056029    -2.218163255482659
    H               -0.242260557865484    -2.703473201056029    -2.592583255482659
    H               -0.886057557865484    -1.214304201056029    -3.463473255482659
    C                0.364493442134516     0.942440798943971     1.322836744517341
    C                0.618493442134516     1.698440798943971     2.626836744517342
    H                0.266493442134516     1.632440798943971     0.485836744517341
    H                1.213493442134516     0.291440798943971     1.114836744517341
    H               -0.525506557865484     0.327440798943971     1.397836744517341
    H                1.534493442134516     2.254440798943971     2.504836744517342
    H               -0.178407557865484     2.427138798943972     2.836471744517341
    H                0.773531442134516     0.981931798943971     3.446945744517341

}
e, wfn = energy('scf', return_wfn=True)
gdma(wfn)
dmavals = variable('DMA DISTRIBUTED MULTIPOLES')
charges = np.array(dmavals)
print(charges)
np.save('SSI-018ALA-023VAL-1-dimer.npy', np.array(charges))--------------------------------------------------------------------------

*** tstart() called on ds3
*** at Sun Apr 26 20:06:03 2020

   => Loading Basis Set <=

    Name: CC-PVDZ
    Role: ORBITAL
    Keyword: BASIS
    atoms 1-2, 9-10  entry C          line   138 file /theoryfs2/ds/metcalf/miniconda2/envs/tf2gpu/share/psi4/basis/cc-pvdz.gbs
    atoms 3-8, 11-16 entry H          line    22 file /theoryfs2/ds/metcalf/miniconda2/envs/tf2gpu/share/psi4/basis/cc-pvdz.gbs

         ---------------------------------------------------------
                                   SCF
               by Justin Turney, Rob Parrish, Andy Simmonett
                          and Daniel G. A. Smith
                              RHF Reference
                        1 Threads,    500 MiB Core
         ---------------------------------------------------------

  ==> Geometry <==

    Molecular point group: c1
    Full point group: C1

    Geometry (in Angstrom), charge = 0, multiplicity = 1:

       Center              X                  Y                   Z               Mass
    ------------   -----------------  -----------------  -----------------  -----------------
         C           -0.182506557865    -0.878559201056    -1.434163255483    12.000000000000
         C           -0.806506557865    -1.762559201056    -2.513163255483    12.000000000000
         H            0.800493442135    -0.540559201056    -1.763163255483     1.007825032230
         H           -0.805506557865     0.002440798944    -1.271163255483     1.007825032230
         H           -0.059506557865    -1.433559201056    -0.506163255483     1.007825032230
         H           -1.819506557865    -2.022559201056    -2.218163255483     1.007825032230
         H           -0.242260557865    -2.703473201056    -2.592583255483     1.007825032230
         H           -0.886057557865    -1.214304201056    -3.463473255483     1.007825032230
         C            0.364493442135     0.942440798944     1.322836744517    12.000000000000
         C            0.618493442135     1.698440798944     2.626836744517    12.000000000000
         H            0.266493442135     1.632440798944     0.485836744517     1.007825032230
         H            1.213493442135     0.291440798944     1.114836744517     1.007825032230
         H           -0.525506557865     0.327440798944     1.397836744517     1.007825032230
         H            1.534493442135     2.254440798944     2.504836744517     1.007825032230
         H           -0.178407557865     2.427138798944     2.836471744517     1.007825032230
         H            0.773531442135     0.981931798944     3.446945744517     1.007825032230

  Running in c1 symmetry.

  Rotational constants: A =      1.21701  B =      0.04188  C =      0.04181 [cm^-1]
  Rotational constants: A =  36485.06741  B =   1255.50613  C =   1253.52817 [MHz]
  Nuclear repulsion =  121.919133133371645

  Charge       = 0
  Multiplicity = 1
  Electrons    = 36
  Nalpha       = 18
  Nbeta        = 18

  ==> Algorithm <==

  SCF Algorithm Type is PK.
  DIIS enabled.
  MOM disabled.
  Fractional occupation disabled.
  Guess Type is SAD.
  Energy threshold   = 1.00e-06
  Density threshold  = 1.00e-10
  Integral threshold = 0.00e+00

  ==> Primary Basis <==

  Basis Set: CC-PVDZ
    Blend: CC-PVDZ
    Number of shells: 60
    Number of basis function: 116
    Number of Cartesian functions: 120
    Spherical Harmonics?: true
    Max angular momentum: 2

  ==> Pre-Iterations <==

   -------------------------------------------------------
    Irrep   Nso     Nmo     Nalpha   Nbeta   Ndocc  Nsocc
   -------------------------------------------------------
     A        116     116       0       0       0       0
   -------------------------------------------------------
    Total     116     116      18      18      18       0
   -------------------------------------------------------

  ==> Integral Setup <==

  Using integral reordering PK algorithm.
  Sizing the integral batches needed.
  Building batch lookup table.
   Calculation information:
      Number of atoms:                  16
      Number of AO shells:              60
      Number of primitives:            148
      Number of atomic orbitals:       120
      Number of basis functions:       116

      Integral cutoff                 1.00e-12
      Number of threads:                 1

	Batch   1 pq = [       0,    6786] index = [             0,23028291] size =     23028291
  Task number: 3
  Buffer size: 11059200
  Buffer per thread: 2
  We computed 1389125 shell quartets total.
  Whereas there are 1675365 unique shell quartets.

  ==> DiskJK: Disk-Based J/K Matrices <==

    J tasked:                  Yes
    K tasked:                  Yes
    wK tasked:                  No
    Memory [MiB]:              375
    Schwarz Cutoff:          1E-12

    OpenMP threads:              1

  Minimum eigenvalue in the overlap matrix is 5.0914033045E-03.
  Using Symmetric Orthogonalization.

  SCF Guess: Superposition of Atomic Densities via on-the-fly atomic UHF.

  ==> Iterations <==

                        Total Energy        Delta E     RMS |[F,P]|

   @RHF iter SAD:  -157.37568514458303   -1.57376e+02   0.00000e+00
   @RHF iter   1:  -158.30478667846737   -9.29102e-01   4.22249e-03 DIIS
   @RHF iter   2:  -158.43935676711575   -1.34570e-01   1.78666e-03 DIIS
   @RHF iter   3:  -158.46254924936082   -2.31925e-02   3.51670e-04 DIIS
   @RHF iter   4:  -158.46439785301214   -1.84860e-03   3.95343e-05 DIIS
   @RHF iter   5:  -158.46442202727738   -2.41743e-05   7.14971e-06 DIIS
   @RHF iter   6:  -158.46442274429143   -7.17014e-07   1.31911e-06 DIIS
   @RHF iter   7:  -158.46442275996512   -1.56737e-08   3.23530e-07 DIIS
   @RHF iter   8:  -158.46442276096786   -1.00275e-09   3.73979e-08 DIIS
   @RHF iter   9:  -158.46442276098938   -2.15152e-11   6.15098e-09 DIIS
   @RHF iter  10:  -158.46442276099032   -9.37916e-13   1.78925e-09 DIIS
   @RHF iter  11:  -158.46442276099060   -2.84217e-13   5.14106e-10 DIIS
   @RHF iter  12:  -158.46442276099032    2.84217e-13   8.85808e-11 DIIS
  Energy and wave function converged.

  ==> Post-Iterations <==

    Orbital Energies [Eh]
    ---------------------

    Doubly Occupied:

       1A    -11.217606     2A    -11.216916     3A    -11.214810
       4A    -11.214264     5A     -1.019341     6A     -1.015836
       7A     -0.842404     8A     -0.830564     9A     -0.603244
      10A     -0.597602    11A     -0.596550    12A     -0.591046
      13A     -0.508603    14A     -0.494138    15A     -0.489953
      16A     -0.484720    17A     -0.483458    18A     -0.475929

    Virtual:

      19A      0.177130    20A      0.194895    21A      0.223125
      22A      0.239432    23A      0.246208    24A      0.265326
      25A      0.267921    26A      0.279245    27A      0.286893
      28A      0.289922    29A      0.301364    30A      0.303596
      31A      0.370708    32A      0.431334    33A      0.565647
      34A      0.594204    35A      0.597372    36A      0.599180
      37A      0.610282    38A      0.650892    39A      0.682137
      40A      0.708442    41A      0.725436    42A      0.750841
      43A      0.848039    44A      0.889759    45A      0.892765
      46A      0.894581    47A      0.895466    48A      0.897574
      49A      0.903917    50A      0.913072    51A      0.915907
      52A      0.919680    53A      0.926430    54A      0.953072
      55A      0.979054    56A      1.038971    57A      1.125876
      58A      1.127574    59A      1.139847    60A      1.147357
      61A      1.201846    62A      1.331622    63A      1.458653
      64A      1.470293    65A      1.481866    66A      1.495642
      67A      1.581170    68A      1.593656    69A      1.678852
      70A      1.680810    71A      1.693164    72A      1.698517
      73A      1.846760    74A      1.852925    75A      1.880850
      76A      1.896067    77A      1.912691    78A      1.924683
      79A      1.935927    80A      1.939348    81A      1.946806
      82A      1.955596    83A      1.958693    84A      1.964177
      85A      1.975844    86A      1.982124    87A      2.023063
      88A      2.072922    89A      2.095602    90A      2.112818
      91A      2.118777    92A      2.129635    93A      2.296626
      94A      2.310389    95A      2.325637    96A      2.405092
      97A      2.445158    98A      2.463310    99A      2.465201
     100A      2.493520   101A      2.555035   102A      2.567541
     103A      2.574989   104A      2.586028   105A      2.762860
     106A      2.774303   107A      2.794312   108A      2.797251
     109A      2.835696   110A      2.859309   111A      2.867254
     112A      2.873343   113A      2.925589   114A      2.949724
     115A      2.962864   116A      2.984466

    Final Occupation by Irrep:
              A
    DOCC [    18 ]

  @RHF Final Energy:  -158.46442276099032

   => Energetics <=

    Nuclear Repulsion Energy =            121.9191331333716448
    One-Electron Energy =                -452.9731458048516970
    Two-Electron Energy =                 172.5895899104897353
    Total Energy =                       -158.4644227609903169

Computation Completed

Properties will be evaluated at   0.000000,   0.000000,   0.000000 [a0]

Properties computed using the SCF density matrix

  Nuclear Dipole Moment: [e a0]
     X:     0.0673      Y:     0.0026      Z:    -0.0262

  Electronic Dipole Moment: [e a0]
     X:    -0.0575      Y:     0.0035      Z:     0.0262

  Dipole Moment: [e a0]
     X:     0.0098      Y:     0.0062      Z:    -0.0000     Total:     0.0116

  Dipole Moment: [D]
     X:     0.0249      Y:     0.0157      Z:    -0.0000     Total:     0.0294

*** tstop() called on ds3 at Sun Apr 26 20:06:13 2020
Module time:
	user time   =       7.66 seconds =       0.13 minutes
	system time =       2.85 seconds =       0.05 minutes
	total time  =         10 seconds =       0.17 minutes
Total time:
	user time   =       7.66 seconds =       0.13 minutes
	system time =       2.85 seconds =       0.05 minutes
	total time  =         10 seconds =       0.17 minutes
                                     G D M A

                                 by Anthony Stone

                           version 2.2.06, 22 June 2011

               Distributed Multipoles from Gaussian wavefunctions

Starting at 20:6:13 on 26 Apr 2020

Using SCF density matrix from file ./SSI/SSI-018ALA-023VAL-1-dimer.test.11563.fchk

                         Distributed Multipole Analysis

Standard DMA

Positions and radii in angstrom
Multipole moments in atomic units, ea_0^k for rank k

C          x = -0.182507  y = -0.878559  z = -1.434163 angstrom
           Maximum rank =  0   Radius =  0.650 angstrom
                   Q00  =  -0.244053

C          x = -0.806507  y = -1.762559  z = -2.513163 angstrom
           Maximum rank =  0   Radius =  0.650 angstrom
                   Q00  =  -0.227642

H          x =  0.800493  y = -0.540559  z = -1.763163 angstrom
           Maximum rank =  0   Radius =  0.325 angstrom
                   Q00  =   0.076767

H          x = -0.805507  y =  0.002441  z = -1.271163 angstrom
           Maximum rank =  0   Radius =  0.325 angstrom
                   Q00  =   0.077820

H          x = -0.059507  y = -1.433559  z = -0.506163 angstrom
           Maximum rank =  0   Radius =  0.325 angstrom
                   Q00  =   0.079554

H          x = -1.819507  y = -2.022559  z = -2.218163 angstrom
           Maximum rank =  0   Radius =  0.325 angstrom
                   Q00  =   0.076702

H          x = -0.242261  y = -2.703473  z = -2.592583 angstrom
           Maximum rank =  0   Radius =  0.325 angstrom
                   Q00  =   0.079612

H          x = -0.886058  y = -1.214304  z = -3.463473 angstrom
           Maximum rank =  0   Radius =  0.325 angstrom
                   Q00  =   0.080848

C          x =  0.364493  y =  0.942441  z =  1.322837 angstrom
           Maximum rank =  0   Radius =  0.650 angstrom
                   Q00  =  -0.245678

C          x =  0.618493  y =  1.698441  z =  2.626837 angstrom
           Maximum rank =  0   Radius =  0.650 angstrom
                   Q00  =  -0.226891

H          x =  0.266493  y =  1.632441  z =  0.485837 angstrom
           Maximum rank =  0   Radius =  0.325 angstrom
                   Q00  =   0.078655

H          x =  1.213493  y =  0.291441  z =  1.114837 angstrom
           Maximum rank =  0   Radius =  0.325 angstrom
                   Q00  =   0.076472

H          x = -0.525507  y =  0.327441  z =  1.397837 angstrom
           Maximum rank =  0   Radius =  0.325 angstrom
                   Q00  =   0.078024

H          x =  1.534493  y =  2.254441  z =  2.504837 angstrom
           Maximum rank =  0   Radius =  0.325 angstrom
                   Q00  =   0.078769

H          x = -0.178408  y =  2.427139  z =  2.836472 angstrom
           Maximum rank =  0   Radius =  0.325 angstrom
                   Q00  =   0.081026

H          x =  0.773531  y =  0.981932  z =  3.446946 angstrom
           Maximum rank =  0   Radius =  0.325 angstrom
                   Q00  =   0.080016

Total multipoles referred to origin at
           x =   0.000000,  y =    0.000000,  z =    0.000000 angstrom
                   Q00  =  -0.000000

Finished at 20:6:13 on 26 Apr 2020

  DMA results are available in the Python driver through the
	  variable('DMA DISTRIBUTED MULTIPOLES')
  and
	  variable('DMA TOTAL MULTIPOLES')
  commands.

    Psi4 stopped on: Sunday, 26 April 2020 08:06PM
    Psi4 wall time for execution: 0:00:10.30

*** Psi4 exiting successfully. Buy a developer a beer!
