                               Psi4 1.3.2 release

  ==> Input File <==

--------------------------------------------------------------------------
import numpy as np
set {scf_type pk
basis cc-pvdz
d_convergence 10
gdma_switch   0
gdma_limit    0
gdma_origin   [ 0.0,  0.0,  0.0 ]
}
molecule test {
    units Angstrom
    0 1
    --
    0 1
    C                1.854611274440094     0.069479735952497     2.500573636117534
    C                2.215611274440094    -0.927520264047503     1.398573636117533
    O                1.620611274440094    -0.837520264047502     0.299573636117534
    O                3.092611274440094    -1.792520264047503     1.615573636117533
    H                0.785611274440094     0.296479735952497     2.472573636117533
    H                2.395611274440094     1.000479735952498     2.314573636117533
    H                2.120641274440095    -0.285940264047503     3.507004636117534
    C               -2.686388725559905     2.373479735952498    -0.625426363882467
    C               -1.532388725559906     0.276479735952497    -1.291426363882467
    N               -0.867388725559906     0.227479735952497    -0.151426363882466
    N               -2.389388725559906     1.260479735952498    -1.538426363882466
    N               -1.338388725559906    -0.664520264047502    -2.192426363882466
    H               -0.969388725559906     0.967479735952498     0.514573636117534
    H               -0.053388725559906    -0.385520264047503    -0.068426363882466
    H               -2.785388725559906     1.308479735952498    -2.479426363882467
    H               -1.807388725559906    -0.600520264047502    -3.083426363882466
    H               -0.650388725559905    -1.381520264047503    -2.028426363882466
    H               -3.135388725559906     3.184479735952498    -1.193426363882466
    H               -1.755388725559906     2.781479735952498    -0.226426363882466
    H               -3.331738725559906     2.078049735952498     0.214959636117534

}
e, wfn = energy('scf', return_wfn=True)
gdma(wfn)
dmavals = variable('DMA DISTRIBUTED MULTIPOLES')
charges = np.array(dmavals)
print(charges)
np.save('SSI-013GLU-039ARG-1-dimer.npy', np.array(charges))--------------------------------------------------------------------------

*** tstart() called on ds3
*** at Sun Apr 26 20:34:34 2020

   => Loading Basis Set <=

    Name: CC-PVDZ
    Role: ORBITAL
    Keyword: BASIS
    atoms 1-2, 8-9   entry C          line   138 file /theoryfs2/ds/metcalf/miniconda2/envs/tf2gpu/share/psi4/basis/cc-pvdz.gbs
    atoms 3-4        entry O          line   198 file /theoryfs2/ds/metcalf/miniconda2/envs/tf2gpu/share/psi4/basis/cc-pvdz.gbs
    atoms 5-7, 13-20 entry H          line    22 file /theoryfs2/ds/metcalf/miniconda2/envs/tf2gpu/share/psi4/basis/cc-pvdz.gbs
    atoms 10-12      entry N          line   168 file /theoryfs2/ds/metcalf/miniconda2/envs/tf2gpu/share/psi4/basis/cc-pvdz.gbs

         ---------------------------------------------------------
                                   SCF
               by Justin Turney, Rob Parrish, Andy Simmonett
                          and Daniel G. A. Smith
                              RHF Reference
                        1 Threads,    500 MiB Core
         ---------------------------------------------------------

  ==> Geometry <==

    Molecular point group: c1
    Full point group: C1

    Geometry (in Angstrom), charge = 0, multiplicity = 1:

       Center              X                  Y                   Z               Mass
    ------------   -----------------  -----------------  -----------------  -----------------
         C            1.854611274440     0.069479735952     2.500573636118    12.000000000000
         C            2.215611274440    -0.927520264048     1.398573636118    12.000000000000
         O            1.620611274440    -0.837520264048     0.299573636118    15.994914619570
         O            3.092611274440    -1.792520264048     1.615573636118    15.994914619570
         H            0.785611274440     0.296479735952     2.472573636118     1.007825032230
         H            2.395611274440     1.000479735952     2.314573636118     1.007825032230
         H            2.120641274440    -0.285940264048     3.507004636118     1.007825032230
         C           -2.686388725560     2.373479735952    -0.625426363882    12.000000000000
         C           -1.532388725560     0.276479735952    -1.291426363882    12.000000000000
         N           -0.867388725560     0.227479735952    -0.151426363882    14.003074004430
         N           -2.389388725560     1.260479735952    -1.538426363882    14.003074004430
         N           -1.338388725560    -0.664520264048    -2.192426363882    14.003074004430
         H           -0.969388725560     0.967479735952     0.514573636118     1.007825032230
         H           -0.053388725560    -0.385520264048    -0.068426363882     1.007825032230
         H           -2.785388725560     1.308479735952    -2.479426363882     1.007825032230
         H           -1.807388725560    -0.600520264048    -3.083426363882     1.007825032230
         H           -0.650388725560    -1.381520264048    -2.028426363882     1.007825032230
         H           -3.135388725560     3.184479735952    -1.193426363882     1.007825032230
         H           -1.755388725560     2.781479735952    -0.226426363882     1.007825032230
         H           -3.331738725560     2.078049735952     0.214959636118     1.007825032230

  Running in c1 symmetry.

  Rotational constants: A =      0.10361  B =      0.01812  C =      0.01564 [cm^-1]
  Rotational constants: A =   3106.24664  B =    543.34619  C =    468.89134 [MHz]
  Nuclear repulsion =  444.396479353148720

  Charge       = 0
  Multiplicity = 1
  Electrons    = 72
  Nalpha       = 36
  Nbeta        = 36

  ==> Algorithm <==

  SCF Algorithm Type is PK.
  DIIS enabled.
  MOM disabled.
  Fractional occupation disabled.
  Guess Type is SAD.
  Energy threshold   = 1.00e-06
  Density threshold  = 1.00e-10
  Integral threshold = 0.00e+00

  ==> Primary Basis <==

  Basis Set: CC-PVDZ
    Blend: CC-PVDZ
    Number of shells: 87
    Number of basis function: 181
    Number of Cartesian functions: 190
    Spherical Harmonics?: true
    Max angular momentum: 2

  ==> Pre-Iterations <==

   -------------------------------------------------------
    Irrep   Nso     Nmo     Nalpha   Nbeta   Ndocc  Nsocc
   -------------------------------------------------------
     A        181     181       0       0       0       0
   -------------------------------------------------------
    Total     181     181      36      36      36       0
   -------------------------------------------------------

  ==> Integral Setup <==

  Using integral reordering PK algorithm.
  Sizing the integral batches needed.
  Building batch lookup table.
   Calculation information:
      Number of atoms:                  20
      Number of AO shells:              87
      Number of primitives:            253
      Number of atomic orbitals:       190
      Number of basis functions:       181

      Integral cutoff                 1.00e-12
      Number of threads:                 1

	Batch   1 pq = [       0,    9405] index = [             0,44231715] size =     44231715
	Batch   2 pq = [    9405,   13301] index = [      44231715,88464951] size =     44233236
	Batch   3 pq = [   13301,   16471] index = [      88464951,135655156] size =     47190205
  Task number: 13
  Buffer size: 11059200
  Buffer per thread: 2
  We computed 5467233 shell quartets total.
  Whereas there are 7328706 unique shell quartets.

  ==> DiskJK: Disk-Based J/K Matrices <==

    J tasked:                  Yes
    K tasked:                  Yes
    wK tasked:                  No
    Memory [MiB]:              375
    Schwarz Cutoff:          1E-12

    OpenMP threads:              1

  Minimum eigenvalue in the overlap matrix is 3.8309433898E-03.
  Using Symmetric Orthogonalization.

  SCF Guess: Superposition of Atomic Densities via on-the-fly atomic UHF.

  ==> Iterations <==

                        Total Energy        Delta E     RMS |[F,P]|

   @RHF iter SAD:  -469.65688348180606   -4.69657e+02   0.00000e+00
   @RHF iter   1:  -470.66916951727359   -1.01229e+00   4.28677e-03 DIIS
   @RHF iter   2:  -470.89957699292921   -2.30407e-01   2.28724e-03 DIIS
   @RHF iter   3:  -470.96143539568175   -6.18584e-02   4.07922e-04 DIIS
   @RHF iter   4:  -470.96489595005818   -3.46055e-03   1.53673e-04 DIIS
   @RHF iter   5:  -470.96535959275218   -4.63643e-04   3.13894e-05 DIIS
   @RHF iter   6:  -470.96538674518786   -2.71524e-05   1.62637e-05 DIIS
   @RHF iter   7:  -470.96539230030118   -5.55511e-06   4.11866e-06 DIIS
   @RHF iter   8:  -470.96539312959936   -8.29298e-07   1.94250e-06 DIIS
   @RHF iter   9:  -470.96539327005246   -1.40453e-07   7.01064e-07 DIIS
   @RHF iter  10:  -470.96539329655820   -2.65057e-08   2.26776e-07 DIIS
   @RHF iter  11:  -470.96539329888623   -2.32802e-09   6.75883e-08 DIIS
   @RHF iter  12:  -470.96539329901441   -1.28182e-10   2.01318e-08 DIIS
   @RHF iter  13:  -470.96539329902896   -1.45519e-11   5.38805e-09 DIIS
   @RHF iter  14:  -470.96539329902902   -5.68434e-14   1.66981e-09 DIIS
   @RHF iter  15:  -470.96539329903061   -1.59162e-12   6.11987e-10 DIIS
   @RHF iter  16:  -470.96539329903163   -1.02318e-12   2.09910e-10 DIIS
   @RHF iter  17:  -470.96539329903032    1.30740e-12   8.81880e-11 DIIS
  Energy and wave function converged.

  ==> Post-Iterations <==

    Orbital Energies [Eh]
    ---------------------

    Doubly Occupied:

       1A    -20.404436     2A    -20.382302     3A    -15.672733
       4A    -15.662486     5A    -15.626416     6A    -11.456917
       7A    -11.343643     8A    -11.247478     9A    -11.169856
      10A     -1.415800    11A     -1.284062    12A     -1.280851
      13A     -1.248433    14A     -1.167371    15A     -1.033879
      16A     -0.914995    17A     -0.906070    18A     -0.847129
      19A     -0.813648    20A     -0.728653    21A     -0.710430
      22A     -0.708126    23A     -0.683333    24A     -0.631528
      25A     -0.626890    26A     -0.619511    27A     -0.536951
      28A     -0.530306    29A     -0.526352    30A     -0.480429
      31A     -0.469658    32A     -0.464544    33A     -0.433640
      34A     -0.322128    35A     -0.297638    36A     -0.294280

    Virtual:

      37A      0.100171    38A      0.134139    39A      0.149934
      40A      0.156381    41A      0.194677    42A      0.204471
      43A      0.216112    44A      0.226627    45A      0.262182
      46A      0.282147    47A      0.299207    48A      0.324698
      49A      0.351743    50A      0.373032    51A      0.406914
      52A      0.452849    53A      0.464295    54A      0.470841
      55A      0.550697    56A      0.572471    57A      0.587874
      58A      0.610535    59A      0.623635    60A      0.647180
      61A      0.666790    62A      0.676801    63A      0.684399
      64A      0.709486    65A      0.718498    66A      0.777127
      67A      0.788288    68A      0.799700    69A      0.807360
      70A      0.808877    71A      0.834629    72A      0.849577
      73A      0.861366    74A      0.890117    75A      0.905319
      76A      0.912342    77A      0.923761    78A      0.931517
      79A      0.947743    80A      0.961531    81A      0.971652
      82A      0.984871    83A      1.011751    84A      1.034632
      85A      1.048698    86A      1.075673    87A      1.107547
      88A      1.126669    89A      1.159941    90A      1.209614
      91A      1.221590    92A      1.230523    93A      1.246136
      94A      1.264608    95A      1.285449    96A      1.322090
      97A      1.347548    98A      1.397524    99A      1.418876
     100A      1.433723   101A      1.449514   102A      1.467574
     103A      1.519468   104A      1.530841   105A      1.550014
     106A      1.597170   107A      1.609208   108A      1.617248
     109A      1.623242   110A      1.640475   111A      1.658554
     112A      1.679955   113A      1.718897   114A      1.730898
     115A      1.764851   116A      1.777235   117A      1.816495
     118A      1.843581   119A      1.857348   120A      1.874370
     121A      1.905714   122A      1.910410   123A      1.925640
     124A      1.934966   125A      1.955374   126A      1.965880
     127A      1.971948   128A      2.002349   129A      2.024030
     130A      2.045152   131A      2.089236   132A      2.105932
     133A      2.117510   134A      2.145203   135A      2.172106
     136A      2.215178   137A      2.242044   138A      2.269774
     139A      2.284950   140A      2.299877   141A      2.311804
     142A      2.344296   143A      2.381484   144A      2.428364
     145A      2.446288   146A      2.461259   147A      2.487788
     148A      2.527444   149A      2.555695   150A      2.581225
     151A      2.587102   152A      2.602279   153A      2.626136
     154A      2.691558   155A      2.694922   156A      2.731315
     157A      2.767939   158A      2.799262   159A      2.822451
     160A      2.855786   161A      2.873828   162A      2.888235
     163A      2.928060   164A      2.937026   165A      2.985688
     166A      3.003934   167A      3.106990   168A      3.139128
     169A      3.162948   170A      3.193411   171A      3.227246
     172A      3.231738   173A      3.329840   174A      3.529961
     175A      3.641021   176A      3.682582   177A      3.697174
     178A      3.780592   179A      3.938639   180A      3.972263
     181A      4.065225

    Final Occupation by Irrep:
              A
    DOCC [    36 ]

  @RHF Final Energy:  -470.96539329903032

   => Energetics <=

    Nuclear Repulsion Energy =            444.3964793531487203
    One-Electron Energy =               -1524.8379381601132536
    Two-Electron Energy =                 609.4760655079340950
    Total Energy =                       -470.9653932990303247

Computation Completed

Properties will be evaluated at   0.000000,   0.000000,   0.000000 [a0]

Properties computed using the SCF density matrix

  Nuclear Dipole Moment: [e a0]
     X:    -8.5762      Y:     8.3879      Z:    -0.0319

  Electronic Dipole Moment: [e a0]
     X:     2.4621      Y:    -5.2021      Z:    -3.3494

  Dipole Moment: [e a0]
     X:    -6.1140      Y:     3.1858      Z:    -3.3813     Total:     7.6788

  Dipole Moment: [D]
     X:   -15.5403      Y:     8.0976      Z:    -8.5945     Total:    19.5176

*** tstop() called on ds3 at Sun Apr 26 20:35:44 2020
Module time:
	user time   =      41.55 seconds =       0.69 minutes
	system time =      19.40 seconds =       0.32 minutes
	total time  =         70 seconds =       1.17 minutes
Total time:
	user time   =      41.55 seconds =       0.69 minutes
	system time =      19.40 seconds =       0.32 minutes
	total time  =         70 seconds =       1.17 minutes
                                     G D M A

                                 by Anthony Stone

                           version 2.2.06, 22 June 2011

               Distributed Multipoles from Gaussian wavefunctions

Starting at 20:35:44 on 26 Apr 2020

Using SCF density matrix from file ./SSI/SSI-013GLU-039ARG-1-dimer.test.29905.fchk

                         Distributed Multipole Analysis

Standard DMA

Positions and radii in angstrom
Multipole moments in atomic units, ea_0^k for rank k

C          x =  1.854611  y =  0.069480  z =  2.500574 angstrom
           Maximum rank =  0   Radius =  0.650 angstrom
                   Q00  =  -0.277948

C          x =  2.215611  y = -0.927520  z =  1.398574 angstrom
           Maximum rank =  0   Radius =  0.650 angstrom
                   Q00  =   0.922125

O          x =  1.620611  y = -0.837520  z =  0.299574 angstrom
           Maximum rank =  0   Radius =  0.650 angstrom
                   Q00  =  -0.970569

O          x =  3.092611  y = -1.792520  z =  1.615574 angstrom
           Maximum rank =  0   Radius =  0.650 angstrom
                   Q00  =  -0.867036

H          x =  0.785611  y =  0.296480  z =  2.472574 angstrom
           Maximum rank =  0   Radius =  0.325 angstrom
                   Q00  =   0.030329

H          x =  2.395611  y =  1.000480  z =  2.314574 angstrom
           Maximum rank =  0   Radius =  0.325 angstrom
                   Q00  =   0.095647

H          x =  2.120641  y = -0.285940  z =  3.507005 angstrom
           Maximum rank =  0   Radius =  0.325 angstrom
                   Q00  =   0.092815

C          x = -2.686389  y =  2.373480  z = -0.625426 angstrom
           Maximum rank =  0   Radius =  0.650 angstrom
                   Q00  =  -0.117916

C          x = -1.532389  y =  0.276480  z = -1.291426 angstrom
           Maximum rank =  0   Radius =  0.650 angstrom
                   Q00  =   1.071522

N          x = -0.867389  y =  0.227480  z = -0.151426 angstrom
           Maximum rank =  0   Radius =  0.650 angstrom
                   Q00  =  -0.587877

N          x = -2.389389  y =  1.260480  z = -1.538426 angstrom
           Maximum rank =  0   Radius =  0.650 angstrom
                   Q00  =  -0.503927

N          x = -1.338389  y = -0.664520  z = -2.192426 angstrom
           Maximum rank =  0   Radius =  0.650 angstrom
                   Q00  =  -0.588908

H          x = -0.969389  y =  0.967480  z =  0.514574 angstrom
           Maximum rank =  0   Radius =  0.325 angstrom
                   Q00  =   0.240471

H          x = -0.053389  y = -0.385520  z = -0.068426 angstrom
           Maximum rank =  0   Radius =  0.325 angstrom
                   Q00  =   0.358378

H          x = -2.785389  y =  1.308480  z = -2.479426 angstrom
           Maximum rank =  0   Radius =  0.325 angstrom
                   Q00  =   0.210414

H          x = -1.807389  y = -0.600520  z = -3.083426 angstrom
           Maximum rank =  0   Radius =  0.325 angstrom
                   Q00  =   0.236492

H          x = -0.650389  y = -1.381520  z = -2.028426 angstrom
           Maximum rank =  0   Radius =  0.325 angstrom
                   Q00  =   0.282519

H          x = -3.135389  y =  3.184480  z = -1.193426 angstrom
           Maximum rank =  0   Radius =  0.325 angstrom
                   Q00  =   0.145177

H          x = -1.755389  y =  2.781480  z = -0.226426 angstrom
           Maximum rank =  0   Radius =  0.325 angstrom
                   Q00  =   0.109633

H          x = -3.331739  y =  2.078050  z =  0.214960 angstrom
           Maximum rank =  0   Radius =  0.325 angstrom
                   Q00  =   0.118658

Total multipoles referred to origin at
           x =   0.000000,  y =    0.000000,  z =    0.000000 angstrom
                   Q00  =  -0.000000

Finished at 20:35:44 on 26 Apr 2020

  DMA results are available in the Python driver through the
	  variable('DMA DISTRIBUTED MULTIPOLES')
  and
	  variable('DMA TOTAL MULTIPOLES')
  commands.

    Psi4 stopped on: Sunday, 26 April 2020 08:35PM
    Psi4 wall time for execution: 0:01:10.47

*** Psi4 exiting successfully. Buy a developer a beer!
