                               Psi4 1.3.2 release

  ==> Input File <==

--------------------------------------------------------------------------
import numpy as np
set {scf_type pk
basis cc-pvdz
d_convergence 10
gdma_switch   0
gdma_limit    0
gdma_origin   [ 0.0,  0.0,  0.0 ]
}
molecule test {
    units Angstrom
    1 1
    --
    1 1
    C                1.691890703124614     0.924947553827049     0.419366603084402
    C                2.302890703124614     1.624947553827049    -0.785633396915598
    C                2.674890703124613     0.369947553827049     1.363366603084402
    H                1.101890703124613     1.655947553827049     0.975366603084402
    H                1.014890703124613     0.135947553827049     0.106366603084402
    H                3.055890703124613     2.323947553827049    -0.420633396915598
    H                3.368890703124613     1.146947553827049     1.684366603084402
    H                2.151890703124613    -0.013052446172951     2.240366603084401
    H                3.224890703124613    -0.454052446172951     0.912366603084402
    H                2.799269703124613     0.914497553827049    -1.463033396915598
    H                1.522995703124614     2.209867553827049    -1.295173396915598
    C               -1.580109296875386    -0.840052446172951    -0.452633396915598
    C               -2.225109296875386    -2.165052446172951    -0.820633396915598
    N               -2.515109296875386     0.075947553827049     0.233366603084402
    H               -0.730109296875387    -1.039052446172951     0.207366603084402
    H               -1.193109296875387    -0.374052446172951    -1.365633396915598
    H               -2.986109296875387    -1.978052446172951    -1.581633396915598
    H               -2.726109296875387    -2.592052446172951     0.051366603084402
    H               -2.866109296875387    -0.327052446172951     1.095366603084402
    H               -2.072109296875386     0.955947553827049     0.472366603084402
    H               -3.317109296875387     0.290947553827049    -0.347633396915598
    H               -1.510592296875386    -2.896722446172951    -1.225763396915598

}
e, wfn = energy('scf', return_wfn=True)
gdma(wfn)
dmavals = variable('DMA DISTRIBUTED MULTIPOLES')
charges = np.array(dmavals)
print(charges)
np.save('SSI-100ILE-104LYS-1-dimer.npy', np.array(charges))--------------------------------------------------------------------------

*** tstart() called on ds3
*** at Tue Apr 28 03:35:17 2020

   => Loading Basis Set <=

    Name: CC-PVDZ
    Role: ORBITAL
    Keyword: BASIS
    atoms 1-3, 12-13  entry C          line   138 file /theoryfs2/ds/metcalf/miniconda2/envs/tf2gpu/share/psi4/basis/cc-pvdz.gbs
    atoms 4-11, 15-22 entry H          line    22 file /theoryfs2/ds/metcalf/miniconda2/envs/tf2gpu/share/psi4/basis/cc-pvdz.gbs
    atoms 14          entry N          line   168 file /theoryfs2/ds/metcalf/miniconda2/envs/tf2gpu/share/psi4/basis/cc-pvdz.gbs

         ---------------------------------------------------------
                                   SCF
               by Justin Turney, Rob Parrish, Andy Simmonett
                          and Daniel G. A. Smith
                              RHF Reference
                        1 Threads,    500 MiB Core
         ---------------------------------------------------------

  ==> Geometry <==

    Molecular point group: c1
    Full point group: C1

    Geometry (in Angstrom), charge = 1, multiplicity = 1:

       Center              X                  Y                   Z               Mass
    ------------   -----------------  -----------------  -----------------  -----------------
         C            1.691890703125     0.924947553827     0.419366603084    12.000000000000
         C            2.302890703125     1.624947553827    -0.785633396916    12.000000000000
         C            2.674890703125     0.369947553827     1.363366603084    12.000000000000
         H            1.101890703125     1.655947553827     0.975366603084     1.007825032230
         H            1.014890703125     0.135947553827     0.106366603084     1.007825032230
         H            3.055890703125     2.323947553827    -0.420633396916     1.007825032230
         H            3.368890703125     1.146947553827     1.684366603084     1.007825032230
         H            2.151890703125    -0.013052446173     2.240366603084     1.007825032230
         H            3.224890703125    -0.454052446173     0.912366603084     1.007825032230
         H            2.799269703125     0.914497553827    -1.463033396916     1.007825032230
         H            1.522995703125     2.209867553827    -1.295173396916     1.007825032230
         C           -1.580109296875    -0.840052446173    -0.452633396916    12.000000000000
         C           -2.225109296875    -2.165052446173    -0.820633396916    12.000000000000
         N           -2.515109296875     0.075947553827     0.233366603084    14.003074004430
         H           -0.730109296875    -1.039052446173     0.207366603084     1.007825032230
         H           -1.193109296875    -0.374052446173    -1.365633396916     1.007825032230
         H           -2.986109296875    -1.978052446173    -1.581633396916     1.007825032230
         H           -2.726109296875    -2.592052446173     0.051366603084     1.007825032230
         H           -2.866109296875    -0.327052446173     1.095366603084     1.007825032230
         H           -2.072109296875     0.955947553827     0.472366603084     1.007825032230
         H           -3.317109296875     0.290947553827    -0.347633396916     1.007825032230
         H           -1.510592296875    -2.896722446173    -1.225763396916     1.007825032230

  Running in c1 symmetry.

  Rotational constants: A =      0.14485  B =      0.02804  C =      0.02757 [cm^-1]
  Rotational constants: A =   4342.52814  B =    840.60630  C =    826.39169 [MHz]
  Nuclear repulsion =  249.183290083376193

  Charge       = 1
  Multiplicity = 1
  Electrons    = 52
  Nalpha       = 26
  Nbeta        = 26

  ==> Algorithm <==

  SCF Algorithm Type is PK.
  DIIS enabled.
  MOM disabled.
  Fractional occupation disabled.
  Guess Type is SAD.
  Energy threshold   = 1.00e-06
  Density threshold  = 1.00e-10
  Integral threshold = 0.00e+00

  ==> Primary Basis <==

  Basis Set: CC-PVDZ
    Blend: CC-PVDZ
    Number of shells: 84
    Number of basis function: 164
    Number of Cartesian functions: 170
    Spherical Harmonics?: true
    Max angular momentum: 2

  ==> Pre-Iterations <==

   -------------------------------------------------------
    Irrep   Nso     Nmo     Nalpha   Nbeta   Ndocc  Nsocc
   -------------------------------------------------------
     A        164     164       0       0       0       0
   -------------------------------------------------------
    Total     164     164      26      26      26       0
   -------------------------------------------------------

  ==> Integral Setup <==

  Using integral reordering PK algorithm.
  Sizing the integral batches needed.
  Building batch lookup table.
   Calculation information:
      Number of atoms:                  22
      Number of AO shells:              84
      Number of primitives:            212
      Number of atomic orbitals:       170
      Number of basis functions:       164

      Integral cutoff                 1.00e-12
      Number of threads:                 1

	Batch   1 pq = [       0,    9405] index = [             0,44231715] size =     44231715
	Batch   2 pq = [    9405,   13530] index = [      44231715,91537215] size =     47305500
  Task number: 9
  Buffer size: 11059200
  Buffer per thread: 2
  We computed 5240660 shell quartets total.
  Whereas there are 6374235 unique shell quartets.

  ==> DiskJK: Disk-Based J/K Matrices <==

    J tasked:                  Yes
    K tasked:                  Yes
    wK tasked:                  No
    Memory [MiB]:              375
    Schwarz Cutoff:          1E-12

    OpenMP threads:              1

  Minimum eigenvalue in the overlap matrix is 4.6902556931E-03.
  Using Symmetric Orthogonalization.

  SCF Guess: Superposition of Atomic Densities via on-the-fly atomic UHF.

  ==> Iterations <==

                        Total Energy        Delta E     RMS |[F,P]|

   @RHF iter SAD:  -252.33930080836745   -2.52339e+02   0.00000e+00
   @RHF iter   1:  -252.68572369098089   -3.46423e-01   3.37846e-03 DIIS
   @RHF iter   2:  -252.86749564360548   -1.81772e-01   1.35908e-03 DIIS
   @RHF iter   3:  -252.89475233802563   -2.72567e-02   3.30475e-04 DIIS
   @RHF iter   4:  -252.89746094210111   -2.70860e-03   5.39582e-05 DIIS
   @RHF iter   5:  -252.89752709354053   -6.61514e-05   1.72158e-05 DIIS
   @RHF iter   6:  -252.89753348744352   -6.39390e-06   3.32222e-06 DIIS
   @RHF iter   7:  -252.89753379678064   -3.09337e-07   8.32475e-07 DIIS
   @RHF iter   8:  -252.89753381863869   -2.18581e-08   2.20142e-07 DIIS
   @RHF iter   9:  -252.89753381995399   -1.31530e-09   6.11034e-08 DIIS
   @RHF iter  10:  -252.89753382003593   -8.19398e-11   1.36126e-08 DIIS
   @RHF iter  11:  -252.89753382004056   -4.63274e-12   3.04653e-09 DIIS
   @RHF iter  12:  -252.89753382004034    2.27374e-13   9.23472e-10 DIIS
   @RHF iter  13:  -252.89753382004164   -1.30740e-12   1.83013e-10 DIIS
   @RHF iter  14:  -252.89753382004045    1.19371e-12   4.57730e-11 DIIS
  Energy and wave function converged.

  ==> Post-Iterations <==

    Orbital Energies [Eh]
    ---------------------

    Doubly Occupied:

       1A    -15.908782     2A    -11.481038     3A    -11.407178
       4A    -11.329690     5A    -11.319123     6A    -11.310849
       7A     -1.530759     8A     -1.223680     9A     -1.174237
      10A     -1.060473    11A     -1.030686    12A     -0.985320
      13A     -0.972472    14A     -0.903690    15A     -0.865944
      16A     -0.798577    17A     -0.741910    18A     -0.729386
      19A     -0.707184    20A     -0.699560    21A     -0.684583
      22A     -0.657766    23A     -0.632062    24A     -0.584417
      25A     -0.575408    26A     -0.570345

    Virtual:

      27A     -0.052012    28A      0.009849    29A      0.014148
      30A      0.031101    31A      0.075119    32A      0.076897
      33A      0.100224    34A      0.109198    35A      0.118673
      36A      0.138687    37A      0.143673    38A      0.152926
      39A      0.160385    40A      0.179953    41A      0.193360
      42A      0.197631    43A      0.217079    44A      0.223296
      45A      0.270866    46A      0.331708    47A      0.374974
      48A      0.391042    49A      0.429071    50A      0.430421
      51A      0.470544    52A      0.483799    53A      0.499535
      54A      0.510873    55A      0.520629    56A      0.576170
      57A      0.598841    58A      0.615953    59A      0.646415
      60A      0.668735    61A      0.686053    62A      0.697006
      63A      0.705357    64A      0.712676    65A      0.715272
      66A      0.720710    67A      0.756901    68A      0.771589
      69A      0.776442    70A      0.789831    71A      0.792337
      72A      0.798940    73A      0.806279    74A      0.807042
      75A      0.813286    76A      0.822569    77A      0.840632
      78A      0.850537    79A      0.870758    80A      0.888153
      81A      0.926084    82A      0.989876    83A      1.018594
      84A      1.025924    85A      1.034384    86A      1.140286
      87A      1.187334    88A      1.264986    89A      1.289124
      90A      1.303252    91A      1.360225    92A      1.383260
      93A      1.393052    94A      1.426255    95A      1.462142
      96A      1.487314    97A      1.509530    98A      1.516165
      99A      1.556903   100A      1.587537   101A      1.595114
     102A      1.601123   103A      1.684570   104A      1.687396
     105A      1.723622   106A      1.729314   107A      1.752999
     108A      1.761223   109A      1.774761   110A      1.777745
     111A      1.781779   112A      1.793580   113A      1.805885
     114A      1.813685   115A      1.829260   116A      1.850467
     117A      1.858989   118A      1.869448   119A      1.885732
     120A      1.892492   121A      1.897427   122A      1.905611
     123A      1.924278   124A      1.937581   125A      1.955219
     126A      1.964580   127A      1.993990   128A      2.036272
     129A      2.051886   130A      2.055848   131A      2.139387
     132A      2.144935   133A      2.182601   134A      2.192235
     135A      2.198609   136A      2.239226   137A      2.257831
     138A      2.300277   139A      2.317813   140A      2.371317
     141A      2.392662   142A      2.422616   143A      2.443623
     144A      2.496859   145A      2.508336   146A      2.519800
     147A      2.532422   148A      2.548465   149A      2.587943
     150A      2.624204   151A      2.654224   152A      2.665389
     153A      2.675720   154A      2.692278   155A      2.718095
     156A      2.744565   157A      2.780232   158A      2.826228
     159A      2.857199   160A      2.867033   161A      2.892120
     162A      3.000619   163A      3.101129   164A      3.138792

    Final Occupation by Irrep:
              A
    DOCC [    26 ]

  @RHF Final Energy:  -252.89753382004045

   => Energetics <=

    Nuclear Repulsion Energy =            249.1832900833761926
    One-Electron Energy =                -824.3914116869409554
    Two-Electron Energy =                 322.3105877835243405
    Total Energy =                       -252.8975338200404508

Computation Completed

Properties will be evaluated at   0.000000,   0.000000,   0.000000 [a0]

Properties computed using the SCF density matrix

  Nuclear Dipole Moment: [e a0]
     X:     0.7941      Y:    -0.0378      Z:     0.0423

  Electronic Dipole Moment: [e a0]
     X:    -4.9587      Y:    -0.2715      Z:     0.1189

  Dipole Moment: [e a0]
     X:    -4.1646      Y:    -0.3093      Z:     0.1612     Total:     4.1792

  Dipole Moment: [D]
     X:   -10.5855      Y:    -0.7861      Z:     0.4097     Total:    10.6225

*** tstop() called on ds3 at Tue Apr 28 03:35:57 2020
Module time:
	user time   =      28.82 seconds =       0.48 minutes
	system time =      12.46 seconds =       0.21 minutes
	total time  =         40 seconds =       0.67 minutes
Total time:
	user time   =      28.82 seconds =       0.48 minutes
	system time =      12.46 seconds =       0.21 minutes
	total time  =         40 seconds =       0.67 minutes
                                     G D M A

                                 by Anthony Stone

                           version 2.2.06, 22 June 2011

               Distributed Multipoles from Gaussian wavefunctions

Starting at 3:35:57 on 28 Apr 2020

Using SCF density matrix from file ./SSI/SSI-100ILE-104LYS-1-dimer.test.9752.fchk

                         Distributed Multipole Analysis

Standard DMA

Positions and radii in angstrom
Multipole moments in atomic units, ea_0^k for rank k

C          x =  1.691891  y =  0.924948  z =  0.419367 angstrom
           Maximum rank =  0   Radius =  0.650 angstrom
                   Q00  =  -0.092797

C          x =  2.302891  y =  1.624948  z = -0.785633 angstrom
           Maximum rank =  0   Radius =  0.650 angstrom
                   Q00  =  -0.225297

C          x =  2.674891  y =  0.369948  z =  1.363367 angstrom
           Maximum rank =  0   Radius =  0.650 angstrom
                   Q00  =  -0.214386

H          x =  1.101891  y =  1.655948  z =  0.975367 angstrom
           Maximum rank =  0   Radius =  0.325 angstrom
                   Q00  =   0.023167

H          x =  1.014891  y =  0.135948  z =  0.106367 angstrom
           Maximum rank =  0   Radius =  0.325 angstrom
                   Q00  =  -0.012857

H          x =  3.055891  y =  2.323948  z = -0.420633 angstrom
           Maximum rank =  0   Radius =  0.325 angstrom
                   Q00  =   0.099456

H          x =  3.368891  y =  1.146948  z =  1.684367 angstrom
           Maximum rank =  0   Radius =  0.325 angstrom
                   Q00  =   0.096446

H          x =  2.151891  y = -0.013052  z =  2.240367 angstrom
           Maximum rank =  0   Radius =  0.325 angstrom
                   Q00  =   0.073155

H          x =  3.224891  y = -0.454052  z =  0.912367 angstrom
           Maximum rank =  0   Radius =  0.325 angstrom
                   Q00  =   0.083441

H          x =  2.799270  y =  0.914498  z = -1.463033 angstrom
           Maximum rank =  0   Radius =  0.325 angstrom
                   Q00  =   0.090857

H          x =  1.522996  y =  2.209868  z = -1.295173 angstrom
           Maximum rank =  0   Radius =  0.325 angstrom
                   Q00  =   0.073547

C          x = -1.580109  y = -0.840052  z = -0.452633 angstrom
           Maximum rank =  0   Radius =  0.650 angstrom
                   Q00  =  -0.033827

C          x = -2.225109  y = -2.165052  z = -0.820633 angstrom
           Maximum rank =  0   Radius =  0.650 angstrom
                   Q00  =  -0.224510

N          x = -2.515109  y =  0.075948  z =  0.233367 angstrom
           Maximum rank =  0   Radius =  0.650 angstrom
                   Q00  =  -0.131501

H          x = -0.730109  y = -1.039052  z =  0.207367 angstrom
           Maximum rank =  0   Radius =  0.325 angstrom
                   Q00  =   0.126312

H          x = -1.193109  y = -0.374052  z = -1.365633 angstrom
           Maximum rank =  0   Radius =  0.325 angstrom
                   Q00  =   0.132020

H          x = -2.986109  y = -1.978052  z = -1.581633 angstrom
           Maximum rank =  0   Radius =  0.325 angstrom
                   Q00  =   0.103920

H          x = -2.726109  y = -2.592052  z =  0.051367 angstrom
           Maximum rank =  0   Radius =  0.325 angstrom
                   Q00  =   0.099571

H          x = -2.866109  y = -0.327052  z =  1.095367 angstrom
           Maximum rank =  0   Radius =  0.325 angstrom
                   Q00  =   0.257508

H          x = -2.072109  y =  0.955948  z =  0.472367 angstrom
           Maximum rank =  0   Radius =  0.325 angstrom
                   Q00  =   0.262871

H          x = -3.317109  y =  0.290948  z = -0.347633 angstrom
           Maximum rank =  0   Radius =  0.325 angstrom
                   Q00  =   0.255050

H          x = -1.510592  y = -2.896722  z = -1.225763 angstrom
           Maximum rank =  0   Radius =  0.325 angstrom
                   Q00  =   0.157854

Total multipoles referred to origin at
           x =   0.000000,  y =    0.000000,  z =    0.000000 angstrom
                   Q00  =   1.000000

Finished at 3:35:57 on 28 Apr 2020

  DMA results are available in the Python driver through the
	  variable('DMA DISTRIBUTED MULTIPOLES')
  and
	  variable('DMA TOTAL MULTIPOLES')
  commands.

    Psi4 stopped on: Tuesday, 28 April 2020 03:35AM
    Psi4 wall time for execution: 0:00:40.10

*** Psi4 exiting successfully. Buy a developer a beer!
