                               Psi4 1.3.2 release

  ==> Input File <==

--------------------------------------------------------------------------
import numpy as np
set {scf_type pk
basis cc-pvdz
d_convergence 10
gdma_switch   0
gdma_limit    0
gdma_origin   [ 0.0,  0.0,  0.0 ]
}
molecule test {
    units Angstrom
    0 1
    --
    0 1
    C                1.574949508156990    -1.069894163933516     0.341943338287083
    C                1.730949508156990    -2.401894163933516     1.073943338287083
    C                0.287949508156990    -0.350894163933516     0.623943338287083
    C               -0.839050491843010    -0.594894163933516    -0.150056661712917
    C                0.217949508156990     0.580105836066484     1.653943338287083
    C               -2.030050491843010     0.074105836066484     0.105943338287083
    C               -0.972050491843010     1.250105836066484     1.911943338287083
    C               -2.097050491843010     1.001105836066484     1.133943338287083
    H                2.395949508156990    -0.401894163933516     0.609943338287083
    H                1.656949508156990    -1.277894163933516    -0.722056661712917
    H                1.175949508156990    -3.148894163933517     0.512943338287083
    H               -0.793050491843010    -1.311894163933516    -0.957056661712917
    H                1.086949508156990     0.788105836066484     2.259943338287083
    H               -2.896050491843010    -0.155894163933516    -0.486056661712917
    H               -1.018050491843010     1.971105836066483     2.713943338287083
    H               -3.022050491843010     1.518105836066484     1.347943338287083
    H                1.339396508156990    -2.349286163933516     2.100553338287083
    H                2.798401508156990    -2.667307163933517     1.063793338287083
    C                1.319949508156990     0.833105836066484    -2.446056661712917
    C                0.193949508156990     0.844105836066484    -3.469056661712917
    H                0.912949508156990     0.930105836066484    -1.449056661712917
    H                1.907949508156990    -0.075894163933516    -2.549056661712916
    H                1.970949508156990     1.694105836066484    -2.602056661712917
    H               -0.278050491843010    -0.137894163933516    -3.481056661712917
    H                0.614220508156990     1.063251836066484    -4.461706661712918
    H               -0.559421491843010     1.596749836066484    -3.193446661712917

}
e, wfn = energy('scf', return_wfn=True)
gdma(wfn)
dmavals = variable('DMA DISTRIBUTED MULTIPOLES')
charges = np.array(dmavals)
print(charges)
np.save('SSI-021PHE-097LEU-1-dimer.npy', np.array(charges))--------------------------------------------------------------------------

*** tstart() called on ds3
*** at Mon Apr 27 09:50:45 2020

   => Loading Basis Set <=

    Name: CC-PVDZ
    Role: ORBITAL
    Keyword: BASIS
    atoms 1-8, 19-20  entry C          line   138 file /theoryfs2/ds/metcalf/miniconda2/envs/tf2gpu/share/psi4/basis/cc-pvdz.gbs
    atoms 9-18, 21-26 entry H          line    22 file /theoryfs2/ds/metcalf/miniconda2/envs/tf2gpu/share/psi4/basis/cc-pvdz.gbs

         ---------------------------------------------------------
                                   SCF
               by Justin Turney, Rob Parrish, Andy Simmonett
                          and Daniel G. A. Smith
                              RHF Reference
                        1 Threads,    500 MiB Core
         ---------------------------------------------------------

  ==> Geometry <==

    Molecular point group: c1
    Full point group: C1

    Geometry (in Angstrom), charge = 0, multiplicity = 1:

       Center              X                  Y                   Z               Mass
    ------------   -----------------  -----------------  -----------------  -----------------
         C            1.574949508157    -1.069894163934     0.341943338287    12.000000000000
         C            1.730949508157    -2.401894163934     1.073943338287    12.000000000000
         C            0.287949508157    -0.350894163934     0.623943338287    12.000000000000
         C           -0.839050491843    -0.594894163934    -0.150056661713    12.000000000000
         C            0.217949508157     0.580105836066     1.653943338287    12.000000000000
         C           -2.030050491843     0.074105836066     0.105943338287    12.000000000000
         C           -0.972050491843     1.250105836066     1.911943338287    12.000000000000
         C           -2.097050491843     1.001105836066     1.133943338287    12.000000000000
         H            2.395949508157    -0.401894163934     0.609943338287     1.007825032230
         H            1.656949508157    -1.277894163934    -0.722056661713     1.007825032230
         H            1.175949508157    -3.148894163934     0.512943338287     1.007825032230
         H           -0.793050491843    -1.311894163934    -0.957056661713     1.007825032230
         H            1.086949508157     0.788105836066     2.259943338287     1.007825032230
         H           -2.896050491843    -0.155894163934    -0.486056661713     1.007825032230
         H           -1.018050491843     1.971105836066     2.713943338287     1.007825032230
         H           -3.022050491843     1.518105836066     1.347943338287     1.007825032230
         H            1.339396508157    -2.349286163934     2.100553338287     1.007825032230
         H            2.798401508157    -2.667307163934     1.063793338287     1.007825032230
         C            1.319949508157     0.833105836066    -2.446056661713    12.000000000000
         C            0.193949508157     0.844105836066    -3.469056661713    12.000000000000
         H            0.912949508157     0.930105836066    -1.449056661713     1.007825032230
         H            1.907949508157    -0.075894163934    -2.549056661713     1.007825032230
         H            1.970949508157     1.694105836066    -2.602056661713     1.007825032230
         H           -0.278050491843    -0.137894163934    -3.481056661713     1.007825032230
         H            0.614220508157     1.063251836066    -4.461706661713     1.007825032230
         H           -0.559421491843     1.596749836066    -3.193446661713     1.007825032230

  Running in c1 symmetry.

  Rotational constants: A =      0.04088  B =      0.03240  C =      0.02196 [cm^-1]
  Rotational constants: A =   1225.51947  B =    971.31113  C =    658.38770 [MHz]
  Nuclear repulsion =  508.404101144324159

  Charge       = 0
  Multiplicity = 1
  Electrons    = 76
  Nalpha       = 38
  Nbeta        = 38

  ==> Algorithm <==

  SCF Algorithm Type is PK.
  DIIS enabled.
  MOM disabled.
  Fractional occupation disabled.
  Guess Type is SAD.
  Energy threshold   = 1.00e-06
  Density threshold  = 1.00e-10
  Integral threshold = 0.00e+00

  ==> Primary Basis <==

  Basis Set: CC-PVDZ
    Blend: CC-PVDZ
    Number of shells: 108
    Number of basis function: 220
    Number of Cartesian functions: 230
    Spherical Harmonics?: true
    Max angular momentum: 2

  ==> Pre-Iterations <==

   -------------------------------------------------------
    Irrep   Nso     Nmo     Nalpha   Nbeta   Ndocc  Nsocc
   -------------------------------------------------------
     A        220     220       0       0       0       0
   -------------------------------------------------------
    Total     220     220      38      38      38       0
   -------------------------------------------------------

  ==> Integral Setup <==

  Using integral reordering PK algorithm.
  Sizing the integral batches needed.
  Building batch lookup table.
   Calculation information:
      Number of atoms:                  26
      Number of AO shells:             108
      Number of primitives:            300
      Number of atomic orbitals:       230
      Number of basis functions:       220

      Integral cutoff                 1.00e-12
      Number of threads:                 1

	Batch   1 pq = [       0,    9405] index = [             0,44231715] size =     44231715
	Batch   2 pq = [    9405,   13301] index = [      44231715,88464951] size =     44233236
	Batch   3 pq = [   13301,   16290] index = [      88464951,132690195] size =     44225244
	Batch   4 pq = [   16290,   18810] index = [     132690195,176917455] size =     44227260
	Batch   5 pq = [   18810,   21030] index = [     176917455,221140965] size =     44223510
	Batch   6 pq = [   21030,   23037] index = [     221140965,265363203] size =     44222238
	Batch   7 pq = [   23037,   24310] index = [     265363203,295500205] size =     30137002
  Task number: 27
  Buffer size: 11059200
  Buffer per thread: 2
  We computed 17910166 shell quartets total.
  Whereas there are 17325441 unique shell quartets.
     3.37 percent of shell quartets recomputed by reordering.

  ==> DiskJK: Disk-Based J/K Matrices <==

    J tasked:                  Yes
    K tasked:                  Yes
    wK tasked:                  No
    Memory [MiB]:              375
    Schwarz Cutoff:          1E-12

    OpenMP threads:              1

  Minimum eigenvalue in the overlap matrix is 3.0104801143E-04.
  Using Symmetric Orthogonalization.

  SCF Guess: Superposition of Atomic Densities via on-the-fly atomic UHF.

  ==> Iterations <==

                        Total Energy        Delta E     RMS |[F,P]|

   @RHF iter SAD:  -387.02348160546200   -3.87023e+02   0.00000e+00
   @RHF iter   1:  -387.76714982463847   -7.43668e-01   2.74058e-03 DIIS
   @RHF iter   2:  -387.98390531142968   -2.16755e-01   1.13674e-03 DIIS
   @RHF iter   3:  -388.01810050355192   -3.41952e-02   2.50456e-04 DIIS
   @RHF iter   4:  -388.02094307450591   -2.84257e-03   6.34244e-05 DIIS
   @RHF iter   5:  -388.02106252027693   -1.19446e-04   2.16166e-05 DIIS
   @RHF iter   6:  -388.02107770834141   -1.51881e-05   4.04133e-06 DIIS
   @RHF iter   7:  -388.02107846078525   -7.52444e-07   1.33775e-06 DIIS
   @RHF iter   8:  -388.02107855475009   -9.39648e-08   5.04066e-07 DIIS
   @RHF iter   9:  -388.02107858445339   -2.97033e-08   2.44935e-07 DIIS
   @RHF iter  10:  -388.02107859321814   -8.76474e-09   1.20483e-07 DIIS
   @RHF iter  11:  -388.02107859488149   -1.66335e-09   3.42226e-08 DIIS
   @RHF iter  12:  -388.02107859497823   -9.67475e-11   1.31732e-08 DIIS
   @RHF iter  13:  -388.02107859498733   -9.09495e-12   4.39441e-09 DIIS
   @RHF iter  14:  -388.02107859498830   -9.66338e-13   1.05105e-09 DIIS
   @RHF iter  15:  -388.02107859498739    9.09495e-13   3.27480e-10 DIIS
   @RHF iter  16:  -388.02107859499063   -3.24007e-12   8.55128e-11 DIIS
  Energy and wave function converged.

  ==> Post-Iterations <==

    Orbital Energies [Eh]
    ---------------------

    Doubly Occupied:

       1A    -11.235732     2A    -11.235187     3A    -11.234314
       4A    -11.230973     5A    -11.229929     6A    -11.229244
       7A    -11.225135     8A    -11.222015     9A    -11.213614
      10A    -11.205662    11A     -1.157013    12A     -1.064635
      13A     -1.016198    14A     -1.012683    15A     -0.983408
      16A     -0.861965    17A     -0.830887    18A     -0.826130
      19A     -0.786237    20A     -0.692227    21A     -0.642223
      22A     -0.635351    23A     -0.598864    24A     -0.596247
      25A     -0.590692    26A     -0.587505    27A     -0.578218
      28A     -0.541700    29A     -0.521579    30A     -0.500279
      31A     -0.493218    32A     -0.486895    33A     -0.479342
      34A     -0.476228    35A     -0.469647    36A     -0.467198
      37A     -0.333311    38A     -0.321901

    Virtual:

      39A      0.135611    40A      0.137226    41A      0.174327
      42A      0.197353    43A      0.200095    44A      0.214164
      45A      0.231820    46A      0.237265    47A      0.240959
      48A      0.258128    49A      0.261311    50A      0.265814
      51A      0.269322    52A      0.282881    53A      0.302942
      54A      0.312444    55A      0.333509    56A      0.349336
      57A      0.350341    58A      0.388898    59A      0.405349
      60A      0.425519    61A      0.454435    62A      0.467431
      63A      0.492036    64A      0.498254    65A      0.566072
      66A      0.582754    67A      0.586221    68A      0.598255
      69A      0.610231    70A      0.627895    71A      0.641226
      72A      0.655915    73A      0.678980    74A      0.688994
      75A      0.703084    76A      0.725691    77A      0.734050
      78A      0.741781    79A      0.745068    80A      0.756133
      81A      0.766846    82A      0.775049    83A      0.802716
      84A      0.814173    85A      0.834759    86A      0.844979
      87A      0.849774    88A      0.869493    89A      0.881165
      90A      0.883512    91A      0.891968    92A      0.899176
      93A      0.900253    94A      0.907330    95A      0.911020
      96A      0.920189    97A      0.922717    98A      0.939359
      99A      0.943377   100A      0.959481   101A      0.966182
     102A      0.985178   103A      0.989616   104A      1.006343
     105A      1.013031   106A      1.022745   107A      1.041992
     108A      1.081144   109A      1.120808   110A      1.127652
     111A      1.141394   112A      1.153826   113A      1.169420
     114A      1.187931   115A      1.203409   116A      1.232461
     117A      1.239934   118A      1.248424   119A      1.252790
     120A      1.290557   121A      1.297879   122A      1.316098
     123A      1.324502   124A      1.329704   125A      1.417032
     126A      1.439614   127A      1.452541   128A      1.489981
     129A      1.500759   130A      1.512810   131A      1.543017
     132A      1.583649   133A      1.613196   134A      1.623451
     135A      1.667219   136A      1.687481   137A      1.691997
     138A      1.718523   139A      1.734695   140A      1.757204
     141A      1.765098   142A      1.784238   143A      1.845756
     144A      1.855690   145A      1.865979   146A      1.871201
     147A      1.875899   148A      1.880930   149A      1.898008
     150A      1.907507   151A      1.912882   152A      1.925436
     153A      1.931387   154A      1.938891   155A      1.939696
     156A      1.944252   157A      1.947403   158A      1.954044
     159A      1.962729   160A      1.973914   161A      1.986531
     162A      1.987464   163A      1.995576   164A      2.015974
     165A      2.022464   166A      2.041693   167A      2.052947
     168A      2.074996   169A      2.100289   170A      2.117126
     171A      2.142430   172A      2.150067   173A      2.160681
     174A      2.163451   175A      2.177425   176A      2.182215
     177A      2.191174   178A      2.207326   179A      2.242729
     180A      2.267449   181A      2.277640   182A      2.304265
     183A      2.309531   184A      2.318718   185A      2.328448
     186A      2.353023   187A      2.394333   188A      2.445176
     189A      2.460050   190A      2.471997   191A      2.489312
     192A      2.509757   193A      2.516912   194A      2.551430
     195A      2.585494   196A      2.607398   197A      2.624466
     198A      2.649298   199A      2.752120   200A      2.769772
     201A      2.774554   202A      2.776230   203A      2.794339
     204A      2.809342   205A      2.828229   206A      2.847465
     207A      2.850381   208A      2.864414   209A      2.876037
     210A      2.919655   211A      2.962113   212A      2.973277
     213A      3.004611   214A      3.011963   215A      3.054244
     216A      3.069436   217A      3.195038   218A      3.216071
     219A      3.319013   220A      3.989674

    Final Occupation by Irrep:
              A
    DOCC [    38 ]

  @RHF Final Energy:  -388.02107859499063

   => Energetics <=

    Nuclear Repulsion Energy =            508.4041011443241587
    One-Electron Energy =               -1531.2231867883865561
    Two-Electron Energy =                 634.7980070490717708
    Total Energy =                       -388.0210785949906267

Computation Completed

Properties will be evaluated at   0.000000,   0.000000,   0.000000 [a0]

Properties computed using the SCF density matrix

  Nuclear Dipole Moment: [e a0]
     X:     6.8370      Y:    -1.8424      Z:    -8.7114

  Electronic Dipole Moment: [e a0]
     X:    -6.7627      Y:     1.7921      Z:     8.7593

  Dipole Moment: [e a0]
     X:     0.0742      Y:    -0.0504      Z:     0.0478     Total:     0.1017

  Dipole Moment: [D]
     X:     0.1887      Y:    -0.1280      Z:     0.1216     Total:     0.2584

*** tstop() called on ds3 at Mon Apr 27 09:59:28 2020
Module time:
	user time   =     125.36 seconds =       2.09 minutes
	system time =      37.00 seconds =       0.62 minutes
	total time  =        523 seconds =       8.72 minutes
Total time:
	user time   =     125.36 seconds =       2.09 minutes
	system time =      37.00 seconds =       0.62 minutes
	total time  =        523 seconds =       8.72 minutes
                                     G D M A

                                 by Anthony Stone

                           version 2.2.06, 22 June 2011

               Distributed Multipoles from Gaussian wavefunctions

Starting at 9:59:28 on 27 Apr 2020

Using SCF density matrix from file ./SSI/SSI-021PHE-097LEU-1-dimer.test.2011.fchk

                         Distributed Multipole Analysis

Standard DMA

Positions and radii in angstrom
Multipole moments in atomic units, ea_0^k for rank k

C          x =  1.574950  y = -1.069894  z =  0.341943 angstrom
           Maximum rank =  0   Radius =  0.650 angstrom
                   Q00  =  -0.041438

C          x =  1.730950  y = -2.401894  z =  1.073943 angstrom
           Maximum rank =  0   Radius =  0.650 angstrom
                   Q00  =  -0.234751

C          x =  0.287950  y = -0.350894  z =  0.623943 angstrom
           Maximum rank =  0   Radius =  0.650 angstrom
                   Q00  =  -0.119245

C          x = -0.839050  y = -0.594894  z = -0.150057 angstrom
           Maximum rank =  0   Radius =  0.650 angstrom
                   Q00  =   0.014664

C          x =  0.217950  y =  0.580106  z =  1.653943 angstrom
           Maximum rank =  0   Radius =  0.650 angstrom
                   Q00  =  -0.085535

C          x = -2.030050  y =  0.074106  z =  0.105943 angstrom
           Maximum rank =  0   Radius =  0.650 angstrom
                   Q00  =  -0.076790

C          x = -0.972050  y =  1.250106  z =  1.911943 angstrom
           Maximum rank =  0   Radius =  0.650 angstrom
                   Q00  =  -0.050834

C          x = -2.097050  y =  1.001106  z =  1.133943 angstrom
           Maximum rank =  0   Radius =  0.650 angstrom
                   Q00  =  -0.097584

H          x =  2.395950  y = -0.401894  z =  0.609943 angstrom
           Maximum rank =  0   Radius =  0.325 angstrom
                   Q00  =   0.063007

H          x =  1.656950  y = -1.277894  z = -0.722057 angstrom
           Maximum rank =  0   Radius =  0.325 angstrom
                   Q00  =   0.072172

H          x =  1.175950  y = -3.148894  z =  0.512943 angstrom
           Maximum rank =  0   Radius =  0.325 angstrom
                   Q00  =   0.085482

H          x = -0.793050  y = -1.311894  z = -0.957057 angstrom
           Maximum rank =  0   Radius =  0.325 angstrom
                   Q00  =   0.055006

H          x =  1.086950  y =  0.788106  z =  2.259943 angstrom
           Maximum rank =  0   Radius =  0.325 angstrom
                   Q00  =   0.056047

H          x = -2.896050  y = -0.155894  z = -0.486057 angstrom
           Maximum rank =  0   Radius =  0.325 angstrom
                   Q00  =   0.064113

H          x = -1.018050  y =  1.971106  z =  2.713943 angstrom
           Maximum rank =  0   Radius =  0.325 angstrom
                   Q00  =   0.064079

H          x = -3.022050  y =  1.518106  z =  1.347943 angstrom
           Maximum rank =  0   Radius =  0.325 angstrom
                   Q00  =   0.061153

H          x =  1.339397  y = -2.349286  z =  2.100553 angstrom
           Maximum rank =  0   Radius =  0.325 angstrom
                   Q00  =   0.087085

H          x =  2.798402  y = -2.667307  z =  1.063793 angstrom
           Maximum rank =  0   Radius =  0.325 angstrom
                   Q00  =   0.086115

C          x =  1.319950  y =  0.833106  z = -2.446057 angstrom
           Maximum rank =  0   Radius =  0.650 angstrom
                   Q00  =  -0.232737

C          x =  0.193950  y =  0.844106  z = -3.469057 angstrom
           Maximum rank =  0   Radius =  0.650 angstrom
                   Q00  =  -0.230654

H          x =  0.912950  y =  0.930106  z = -1.449057 angstrom
           Maximum rank =  0   Radius =  0.325 angstrom
                   Q00  =   0.093326

H          x =  1.907950  y = -0.075894  z = -2.549057 angstrom
           Maximum rank =  0   Radius =  0.325 angstrom
                   Q00  =   0.067576

H          x =  1.970950  y =  1.694106  z = -2.602057 angstrom
           Maximum rank =  0   Radius =  0.325 angstrom
                   Q00  =   0.073161

H          x = -0.278050  y = -0.137894  z = -3.481057 angstrom
           Maximum rank =  0   Radius =  0.325 angstrom
                   Q00  =   0.070830

H          x =  0.614221  y =  1.063252  z = -4.461707 angstrom
           Maximum rank =  0   Radius =  0.325 angstrom
                   Q00  =   0.073922

H          x = -0.559421  y =  1.596750  z = -3.193447 angstrom
           Maximum rank =  0   Radius =  0.325 angstrom
                   Q00  =   0.081831

Total multipoles referred to origin at
           x =   0.000000,  y =    0.000000,  z =    0.000000 angstrom
                   Q00  =  -0.000000

Finished at 9:59:28 on 27 Apr 2020

  DMA results are available in the Python driver through the
	  variable('DMA DISTRIBUTED MULTIPOLES')
  and
	  variable('DMA TOTAL MULTIPOLES')
  commands.

    Psi4 stopped on: Monday, 27 April 2020 09:59AM
    Psi4 wall time for execution: 0:08:42.80

*** Psi4 exiting successfully. Buy a developer a beer!
