                               Psi4 1.3.2 release

  ==> Input File <==

--------------------------------------------------------------------------
import numpy as np
set {scf_type pk
basis cc-pvdz
d_convergence 10
gdma_switch   0
gdma_limit    0
gdma_origin   [ 0.0,  0.0,  0.0 ]
}
molecule test {
    units Angstrom
    0 1
    --
    0 1
    C               -0.589642377109000     1.847264724089186     1.498793546593535
    C               -0.818642377109000     3.037264724089186     2.423793546593535
    H                0.348357622891000     1.973264724089187     0.955793546593535
    H               -0.532642377109000     0.932264724089187     2.089793546593535
    H               -1.413642377109000     1.735264724089187     0.793793546593535
    H               -1.808642377109000     2.923264724089186     2.850793546593535
    H               -0.801460277109000     3.982284724089186     1.861078546593535
    H               -0.066790377109000     3.053044724089187     3.226582546593534
    C                0.480357622891000    -0.069735275910813    -1.352206453406466
    C                0.772357622891000    -0.716735275910813    -2.701206453406465
    C                0.207357622891000    -1.095735275910813    -0.271206453406465
    O                1.041357622891000    -1.348735275910814     0.595793546593535
    N               -0.974642377109000    -1.692735275910813    -0.306206453406465
    H                1.327357622891000     0.544264724089187    -1.044206453406465
    H               -0.392642377109000     0.574264724089187    -1.445206453406465
    H               -0.024642377109000    -1.418735275910813    -2.949206453406465
    H                1.706357622891000    -1.262735275910813    -2.584206453406465
    H               -1.185642377109000    -2.390735275910814     0.390793546593535
    H               -1.636642377109000    -1.474735275910813    -1.036206453406465
    H                0.878963622891000     0.005734724089187    -3.523803453406465

}
e, wfn = energy('scf', return_wfn=True)
gdma(wfn)
dmavals = variable('DMA DISTRIBUTED MULTIPOLES')
charges = np.array(dmavals)
print(charges)
np.save('SSI-024VAL-143GLN-1-dimer.npy', np.array(charges))--------------------------------------------------------------------------

*** tstart() called on ds3
*** at Sun Apr 26 17:54:58 2020

   => Loading Basis Set <=

    Name: CC-PVDZ
    Role: ORBITAL
    Keyword: BASIS
    atoms 1-2, 9-11  entry C          line   138 file /theoryfs2/ds/metcalf/miniconda2/envs/tf2gpu/share/psi4/basis/cc-pvdz.gbs
    atoms 3-8, 14-20 entry H          line    22 file /theoryfs2/ds/metcalf/miniconda2/envs/tf2gpu/share/psi4/basis/cc-pvdz.gbs
    atoms 12         entry O          line   198 file /theoryfs2/ds/metcalf/miniconda2/envs/tf2gpu/share/psi4/basis/cc-pvdz.gbs
    atoms 13         entry N          line   168 file /theoryfs2/ds/metcalf/miniconda2/envs/tf2gpu/share/psi4/basis/cc-pvdz.gbs

         ---------------------------------------------------------
                                   SCF
               by Justin Turney, Rob Parrish, Andy Simmonett
                          and Daniel G. A. Smith
                              RHF Reference
                        1 Threads,    500 MiB Core
         ---------------------------------------------------------

  ==> Geometry <==

    Molecular point group: c1
    Full point group: C1

    Geometry (in Angstrom), charge = 0, multiplicity = 1:

       Center              X                  Y                   Z               Mass
    ------------   -----------------  -----------------  -----------------  -----------------
         C           -0.589642377109     1.847264724089     1.498793546594    12.000000000000
         C           -0.818642377109     3.037264724089     2.423793546594    12.000000000000
         H            0.348357622891     1.973264724089     0.955793546594     1.007825032230
         H           -0.532642377109     0.932264724089     2.089793546594     1.007825032230
         H           -1.413642377109     1.735264724089     0.793793546594     1.007825032230
         H           -1.808642377109     2.923264724089     2.850793546594     1.007825032230
         H           -0.801460277109     3.982284724089     1.861078546594     1.007825032230
         H           -0.066790377109     3.053044724089     3.226582546594     1.007825032230
         C            0.480357622891    -0.069735275911    -1.352206453406    12.000000000000
         C            0.772357622891    -0.716735275911    -2.701206453406    12.000000000000
         C            0.207357622891    -1.095735275911    -0.271206453406    12.000000000000
         O            1.041357622891    -1.348735275911     0.595793546594    15.994914619570
         N           -0.974642377109    -1.692735275911    -0.306206453406    14.003074004430
         H            1.327357622891     0.544264724089    -1.044206453406     1.007825032230
         H           -0.392642377109     0.574264724089    -1.445206453406     1.007825032230
         H           -0.024642377109    -1.418735275911    -2.949206453406     1.007825032230
         H            1.706357622891    -1.262735275911    -2.584206453406     1.007825032230
         H           -1.185642377109    -2.390735275911     0.390793546594     1.007825032230
         H           -1.636642377109    -1.474735275911    -1.036206453406     1.007825032230
         H            0.878963622891     0.005734724089    -3.523803453406     1.007825032230

  Running in c1 symmetry.

  Rotational constants: A =      0.11008  B =      0.03150  C =      0.02845 [cm^-1]
  Rotational constants: A =   3300.04564  B =    944.33212  C =    853.01986 [MHz]
  Nuclear repulsion =  305.273386281198498

  Charge       = 0
  Multiplicity = 1
  Electrons    = 58
  Nalpha       = 29
  Nbeta        = 29

  ==> Algorithm <==

  SCF Algorithm Type is PK.
  DIIS enabled.
  MOM disabled.
  Fractional occupation disabled.
  Guess Type is SAD.
  Energy threshold   = 1.00e-06
  Density threshold  = 1.00e-10
  Integral threshold = 0.00e+00

  ==> Primary Basis <==

  Basis Set: CC-PVDZ
    Blend: CC-PVDZ
    Number of shells: 81
    Number of basis function: 163
    Number of Cartesian functions: 170
    Spherical Harmonics?: true
    Max angular momentum: 2

  ==> Pre-Iterations <==

   -------------------------------------------------------
    Irrep   Nso     Nmo     Nalpha   Nbeta   Ndocc  Nsocc
   -------------------------------------------------------
     A        163     163       0       0       0       0
   -------------------------------------------------------
    Total     163     163      29      29      29       0
   -------------------------------------------------------

  ==> Integral Setup <==

  Using integral reordering PK algorithm.
  Sizing the integral batches needed.
  Building batch lookup table.
   Calculation information:
      Number of atoms:                  20
      Number of AO shells:              81
      Number of primitives:            219
      Number of atomic orbitals:       170
      Number of basis functions:       163

      Integral cutoff                 1.00e-12
      Number of threads:                 1

	Batch   1 pq = [       0,    9405] index = [             0,44231715] size =     44231715
	Batch   2 pq = [    9405,   13366] index = [      44231715,89331661] size =     45099946
  Task number: 9
  Buffer size: 11059200
  Buffer per thread: 2
  We computed 4863903 shell quartets total.
  Whereas there are 5516181 unique shell quartets.

  ==> DiskJK: Disk-Based J/K Matrices <==

    J tasked:                  Yes
    K tasked:                  Yes
    wK tasked:                  No
    Memory [MiB]:              375
    Schwarz Cutoff:          1E-12

    OpenMP threads:              1

  Minimum eigenvalue in the overlap matrix is 3.8788790797E-03.
  Using Symmetric Orthogonalization.

  SCF Guess: Superposition of Atomic Densities via on-the-fly atomic UHF.

  ==> Iterations <==

                        Total Energy        Delta E     RMS |[F,P]|

   @RHF iter SAD:  -324.97450505357000   -3.24975e+02   0.00000e+00
   @RHF iter   1:  -326.00735325827105   -1.03285e+00   4.10498e-03 DIIS
   @RHF iter   2:  -326.20474469415325   -1.97391e-01   2.23739e-03 DIIS
   @RHF iter   3:  -326.25704896141826   -5.23043e-02   4.84025e-04 DIIS
   @RHF iter   4:  -326.26076093291090   -3.71197e-03   2.03631e-04 DIIS
   @RHF iter   5:  -326.26142644319987   -6.65510e-04   2.97190e-05 DIIS
   @RHF iter   6:  -326.26145882170931   -3.23785e-05   1.23542e-05 DIIS
   @RHF iter   7:  -326.26146339742525   -4.57572e-06   5.20006e-06 DIIS
   @RHF iter   8:  -326.26146439223180   -9.94807e-07   1.97408e-06 DIIS
   @RHF iter   9:  -326.26146454142929   -1.49197e-07   4.47184e-07 DIIS
   @RHF iter  10:  -326.26146454773470   -6.30541e-09   1.36020e-07 DIIS
   @RHF iter  11:  -326.26146454824880   -5.14092e-10   3.76303e-08 DIIS
   @RHF iter  12:  -326.26146454828847   -3.96767e-11   1.00045e-08 DIIS
   @RHF iter  13:  -326.26146454829308   -4.60432e-12   2.02951e-09 DIIS
   @RHF iter  14:  -326.26146454829188    1.19371e-12   6.86126e-10 DIIS
   @RHF iter  15:  -326.26146454829302   -1.13687e-12   2.24224e-10 DIIS
   @RHF iter  16:  -326.26146454829410   -1.08002e-12   5.41378e-11 DIIS
  Energy and wave function converged.

  ==> Post-Iterations <==

    Orbital Energies [Eh]
    ---------------------

    Doubly Occupied:

       1A    -20.502017     2A    -15.587450     3A    -11.342082
       4A    -11.237662     5A    -11.236510     6A    -11.214748
       7A    -11.211250     8A     -1.365564     9A     -1.216228
      10A     -1.054489    11A     -1.015308    12A     -0.890859
      13A     -0.832268    14A     -0.790796    15A     -0.727833
      16A     -0.661752    17A     -0.609154    18A     -0.602842
      19A     -0.596576    20A     -0.592473    21A     -0.568886
      22A     -0.532764    23A     -0.508521    24A     -0.498886
      25A     -0.495250    26A     -0.481920    27A     -0.477495
      28A     -0.404418    29A     -0.401386

    Virtual:

      30A      0.155535    31A      0.188765    32A      0.194290
      33A      0.217370    34A      0.221625    35A      0.229081
      36A      0.250912    37A      0.261318    38A      0.263818
      39A      0.274120    40A      0.283104    41A      0.293266
      42A      0.308616    43A      0.327133    44A      0.364387
      45A      0.399741    46A      0.420506    47A      0.479824
      48A      0.537229    49A      0.592936    50A      0.601247
      51A      0.603633    52A      0.614275    53A      0.627535
      54A      0.662807    55A      0.676954    56A      0.695488
      57A      0.732476    58A      0.738530    59A      0.754737
      60A      0.812907    61A      0.840804    62A      0.851630
      63A      0.872063    64A      0.882187    65A      0.887103
      66A      0.894445    67A      0.897909    68A      0.903084
      69A      0.906466    70A      0.918734    71A      0.922015
      72A      0.946049    73A      0.952252    74A      0.962800
      75A      0.973333    76A      1.013434    77A      1.028589
      78A      1.065376    79A      1.084953    80A      1.113462
      81A      1.128035    82A      1.129815    83A      1.147892
      84A      1.256774    85A      1.323149    86A      1.337368
      87A      1.361911    88A      1.369389    89A      1.413861
      90A      1.444615    91A      1.458075    92A      1.463141
      93A      1.481534    94A      1.493697    95A      1.523141
      96A      1.591603    97A      1.653749    98A      1.679829
      99A      1.683886   100A      1.698709   101A      1.747928
     102A      1.801031   103A      1.817515   104A      1.863737
     105A      1.870977   106A      1.877547   107A      1.892349
     108A      1.903037   109A      1.911112   110A      1.922182
     111A      1.932653   112A      1.939510   113A      1.948428
     114A      1.953681   115A      1.959114   116A      1.967513
     117A      1.983725   118A      1.993628   119A      2.006976
     120A      2.040592   121A      2.052451   122A      2.084409
     123A      2.105590   124A      2.115105   125A      2.132888
     126A      2.160931   127A      2.218242   128A      2.292285
     129A      2.307813   130A      2.326117   131A      2.357214
     132A      2.398475   133A      2.456372   134A      2.467355
     135A      2.483359   136A      2.501984   137A      2.553300
     138A      2.557338   139A      2.565331   140A      2.586368
     141A      2.601107   142A      2.611509   143A      2.620389
     144A      2.751632   145A      2.760291   146A      2.773786
     147A      2.796283   148A      2.840888   149A      2.846264
     150A      2.854500   151A      2.863874   152A      2.893228
     153A      2.953010   154A      2.956953   155A      2.986992
     156A      3.027888   157A      3.100113   158A      3.147800
     159A      3.308559   160A      3.522830   161A      3.532899
     162A      3.869886   163A      3.910451

    Final Occupation by Irrep:
              A
    DOCC [    29 ]

  @RHF Final Energy:  -326.26146454829410

   => Energetics <=

    Nuclear Repulsion Energy =            305.2733862811984977
    One-Electron Energy =               -1047.7549307639760627
    Two-Electron Energy =                 416.2200799344834081
    Total Energy =                       -326.2614645482941000

Computation Completed

Properties will be evaluated at   0.000000,   0.000000,   0.000000 [a0]

Properties computed using the SCF density matrix

  Nuclear Dipole Moment: [e a0]
     X:    -3.3687      Y:     8.6013      Z:    -0.3846

  Electronic Dipole Moment: [e a0]
     X:     2.1197      Y:    -8.5424      Z:    -0.6703

  Dipole Moment: [e a0]
     X:    -1.2489      Y:     0.0589      Z:    -1.0549     Total:     1.6359

  Dipole Moment: [D]
     X:    -3.1745      Y:     0.1498      Z:    -2.6813     Total:     4.1580

*** tstop() called on ds3 at Sun Apr 26 17:55:41 2020
Module time:
	user time   =      31.76 seconds =       0.53 minutes
	system time =      12.85 seconds =       0.21 minutes
	total time  =         43 seconds =       0.72 minutes
Total time:
	user time   =      31.76 seconds =       0.53 minutes
	system time =      12.85 seconds =       0.21 minutes
	total time  =         43 seconds =       0.72 minutes
                                     G D M A

                                 by Anthony Stone

                           version 2.2.06, 22 June 2011

               Distributed Multipoles from Gaussian wavefunctions

Starting at 17:55:41 on 26 Apr 2020

Using SCF density matrix from file ./SSI/SSI-024VAL-143GLN-1-dimer.test.28652.fchk

                         Distributed Multipole Analysis

Standard DMA

Positions and radii in angstrom
Multipole moments in atomic units, ea_0^k for rank k

C          x = -0.589642  y =  1.847265  z =  1.498794 angstrom
           Maximum rank =  0   Radius =  0.650 angstrom
                   Q00  =  -0.257201

C          x = -0.818642  y =  3.037265  z =  2.423794 angstrom
           Maximum rank =  0   Radius =  0.650 angstrom
                   Q00  =  -0.217141

H          x =  0.348358  y =  1.973265  z =  0.955794 angstrom
           Maximum rank =  0   Radius =  0.325 angstrom
                   Q00  =   0.081062

H          x = -0.532642  y =  0.932265  z =  2.089794 angstrom
           Maximum rank =  0   Radius =  0.325 angstrom
                   Q00  =   0.092338

H          x = -1.413642  y =  1.735265  z =  0.793794 angstrom
           Maximum rank =  0   Radius =  0.325 angstrom
                   Q00  =   0.065807

H          x = -1.808642  y =  2.923265  z =  2.850794 angstrom
           Maximum rank =  0   Radius =  0.325 angstrom
                   Q00  =   0.075057

H          x = -0.801460  y =  3.982285  z =  1.861079 angstrom
           Maximum rank =  0   Radius =  0.325 angstrom
                   Q00  =   0.074881

H          x = -0.066790  y =  3.053045  z =  3.226583 angstrom
           Maximum rank =  0   Radius =  0.325 angstrom
                   Q00  =   0.084124

C          x =  0.480358  y = -0.069735  z = -1.352206 angstrom
           Maximum rank =  0   Radius =  0.650 angstrom
                   Q00  =  -0.119516

C          x =  0.772358  y = -0.716735  z = -2.701206 angstrom
           Maximum rank =  0   Radius =  0.650 angstrom
                   Q00  =  -0.208040

C          x =  0.207358  y = -1.095735  z = -0.271206 angstrom
           Maximum rank =  0   Radius =  0.650 angstrom
                   Q00  =   0.817170

O          x =  1.041358  y = -1.348735  z =  0.595794 angstrom
           Maximum rank =  0   Radius =  0.650 angstrom
                   Q00  =  -0.796182

N          x = -0.974642  y = -1.692735  z = -0.306206 angstrom
           Maximum rank =  0   Radius =  0.650 angstrom
                   Q00  =  -0.531252

H          x =  1.327358  y =  0.544265  z = -1.044206 angstrom
           Maximum rank =  0   Radius =  0.325 angstrom
                   Q00  =   0.099050

H          x = -0.392642  y =  0.574265  z = -1.445206 angstrom
           Maximum rank =  0   Radius =  0.325 angstrom
                   Q00  =   0.055234

H          x = -0.024642  y = -1.418735  z = -2.949206 angstrom
           Maximum rank =  0   Radius =  0.325 angstrom
                   Q00  =   0.070699

H          x =  1.706358  y = -1.262735  z = -2.584206 angstrom
           Maximum rank =  0   Radius =  0.325 angstrom
                   Q00  =   0.093796

H          x = -1.185642  y = -2.390735  z =  0.390794 angstrom
           Maximum rank =  0   Radius =  0.325 angstrom
                   Q00  =   0.220777

H          x = -1.636642  y = -1.474735  z = -1.036206 angstrom
           Maximum rank =  0   Radius =  0.325 angstrom
                   Q00  =   0.203799

H          x =  0.878964  y =  0.005735  z = -3.523803 angstrom
           Maximum rank =  0   Radius =  0.325 angstrom
                   Q00  =   0.095542

Total multipoles referred to origin at
           x =   0.000000,  y =    0.000000,  z =    0.000000 angstrom
                   Q00  =  -0.000000

Finished at 17:55:41 on 26 Apr 2020

  DMA results are available in the Python driver through the
	  variable('DMA DISTRIBUTED MULTIPOLES')
  and
	  variable('DMA TOTAL MULTIPOLES')
  commands.

    Psi4 stopped on: Sunday, 26 April 2020 05:55PM
    Psi4 wall time for execution: 0:00:43.68

*** Psi4 exiting successfully. Buy a developer a beer!
