                               Psi4 1.3.2 release

  ==> Input File <==

--------------------------------------------------------------------------
import numpy as np
set {scf_type pk
basis cc-pvdz
d_convergence 10
gdma_switch   0
gdma_limit    0
gdma_origin   [ 0.0,  0.0,  0.0 ]
}
molecule test {
    units Angstrom
    0 1
    --
    0 1
    C                0.974291644862418     0.932996326718549     0.433705863966138
    C                2.114291644862418     1.518996326718549     1.263705863966138
    H                1.345291644862418     0.110996326718549    -0.181294136033862
    H                0.194291644862418     0.556996326718549     1.097705863966138
    H                0.527291644862418     1.691996326718549    -0.206294136033862
    H                1.730291644862418     2.384996326718549     1.802705863966138
    H                2.939105644862418     1.845336326718549     0.613175863966138
    H                2.464477644862418     0.783096326718549     2.002505863966138
    C               -1.753708355137582    -0.646003673281451    -1.302294136033862
    C               -1.333708355137582    -1.812003673281451    -0.405294136033862
    H               -2.729708355137582    -0.839003673281451    -1.741294136033862
    H               -1.820708355137582     0.260996326718549    -0.700294136033862
    H               -1.019708355137582    -0.482003673281451    -2.091294136033862
    H               -2.011708355137582    -1.860003673281451     0.445705863966138
    H               -0.343708355137582    -1.597003673281451    -0.003294136033862
    H               -1.289098355137582    -2.784783673281451    -0.916864136033862

}
e, wfn = energy('scf', return_wfn=True)
gdma(wfn)
dmavals = variable('DMA DISTRIBUTED MULTIPOLES')
charges = np.array(dmavals)
print(charges)
np.save('SSI-120VAL-154ILE-1-dimer.npy', np.array(charges))--------------------------------------------------------------------------

*** tstart() called on ds3
*** at Sun Apr 26 18:36:18 2020

   => Loading Basis Set <=

    Name: CC-PVDZ
    Role: ORBITAL
    Keyword: BASIS
    atoms 1-2, 9-10  entry C          line   138 file /theoryfs2/ds/metcalf/miniconda2/envs/tf2gpu/share/psi4/basis/cc-pvdz.gbs
    atoms 3-8, 11-16 entry H          line    22 file /theoryfs2/ds/metcalf/miniconda2/envs/tf2gpu/share/psi4/basis/cc-pvdz.gbs

         ---------------------------------------------------------
                                   SCF
               by Justin Turney, Rob Parrish, Andy Simmonett
                          and Daniel G. A. Smith
                              RHF Reference
                        1 Threads,    500 MiB Core
         ---------------------------------------------------------

  ==> Geometry <==

    Molecular point group: c1
    Full point group: C1

    Geometry (in Angstrom), charge = 0, multiplicity = 1:

       Center              X                  Y                   Z               Mass
    ------------   -----------------  -----------------  -----------------  -----------------
         C            0.974291644862     0.932996326719     0.433705863966    12.000000000000
         C            2.114291644862     1.518996326719     1.263705863966    12.000000000000
         H            1.345291644862     0.110996326719    -0.181294136034     1.007825032230
         H            0.194291644862     0.556996326719     1.097705863966     1.007825032230
         H            0.527291644862     1.691996326719    -0.206294136034     1.007825032230
         H            1.730291644862     2.384996326719     1.802705863966     1.007825032230
         H            2.939105644862     1.845336326719     0.613175863966     1.007825032230
         H            2.464477644862     0.783096326719     2.002505863966     1.007825032230
         C           -1.753708355138    -0.646003673281    -1.302294136034    12.000000000000
         C           -1.333708355138    -1.812003673281    -0.405294136034    12.000000000000
         H           -2.729708355138    -0.839003673281    -1.741294136034     1.007825032230
         H           -1.820708355138     0.260996326719    -0.700294136034     1.007825032230
         H           -1.019708355138    -0.482003673281    -2.091294136034     1.007825032230
         H           -2.011708355138    -1.860003673281     0.445705863966     1.007825032230
         H           -0.343708355138    -1.597003673281    -0.003294136034     1.007825032230
         H           -1.289098355138    -2.784783673281    -0.916864136034     1.007825032230

  Running in c1 symmetry.

  Rotational constants: A =      0.51830  B =      0.05490  C =      0.05158 [cm^-1]
  Rotational constants: A =  15538.34323  B =   1645.83164  C =   1546.42886 [MHz]
  Nuclear repulsion =  124.920691299372535

  Charge       = 0
  Multiplicity = 1
  Electrons    = 36
  Nalpha       = 18
  Nbeta        = 18

  ==> Algorithm <==

  SCF Algorithm Type is PK.
  DIIS enabled.
  MOM disabled.
  Fractional occupation disabled.
  Guess Type is SAD.
  Energy threshold   = 1.00e-06
  Density threshold  = 1.00e-10
  Integral threshold = 0.00e+00

  ==> Primary Basis <==

  Basis Set: CC-PVDZ
    Blend: CC-PVDZ
    Number of shells: 60
    Number of basis function: 116
    Number of Cartesian functions: 120
    Spherical Harmonics?: true
    Max angular momentum: 2

  ==> Pre-Iterations <==

   -------------------------------------------------------
    Irrep   Nso     Nmo     Nalpha   Nbeta   Ndocc  Nsocc
   -------------------------------------------------------
     A        116     116       0       0       0       0
   -------------------------------------------------------
    Total     116     116      18      18      18       0
   -------------------------------------------------------

  ==> Integral Setup <==

  Using integral reordering PK algorithm.
  Sizing the integral batches needed.
  Building batch lookup table.
   Calculation information:
      Number of atoms:                  16
      Number of AO shells:              60
      Number of primitives:            148
      Number of atomic orbitals:       120
      Number of basis functions:       116

      Integral cutoff                 1.00e-12
      Number of threads:                 1

	Batch   1 pq = [       0,    6786] index = [             0,23028291] size =     23028291
  Task number: 3
  Buffer size: 11059200
  Buffer per thread: 2
  We computed 1491763 shell quartets total.
  Whereas there are 1675365 unique shell quartets.

  ==> DiskJK: Disk-Based J/K Matrices <==

    J tasked:                  Yes
    K tasked:                  Yes
    wK tasked:                  No
    Memory [MiB]:              375
    Schwarz Cutoff:          1E-12

    OpenMP threads:              1

  Minimum eigenvalue in the overlap matrix is 6.4498800065E-03.
  Using Symmetric Orthogonalization.

  SCF Guess: Superposition of Atomic Densities via on-the-fly atomic UHF.

  ==> Iterations <==

                        Total Energy        Delta E     RMS |[F,P]|

   @RHF iter SAD:  -157.37165938254017   -1.57372e+02   0.00000e+00
   @RHF iter   1:  -158.30663440850284   -9.34975e-01   4.21051e-03 DIIS
   @RHF iter   2:  -158.44042883811832   -1.33794e-01   1.78636e-03 DIIS
   @RHF iter   3:  -158.46363405547780   -2.32052e-02   3.50134e-04 DIIS
   @RHF iter   4:  -158.46547198550832   -1.83793e-03   3.84595e-05 DIIS
   @RHF iter   5:  -158.46549522037412   -2.32349e-05   6.14169e-06 DIIS
   @RHF iter   6:  -158.46549579437732   -5.74003e-07   8.20508e-07 DIIS
   @RHF iter   7:  -158.46549580192010   -7.54278e-09   2.42906e-07 DIIS
   @RHF iter   8:  -158.46549580240620   -4.86096e-10   3.88751e-08 DIIS
   @RHF iter   9:  -158.46549580242464   -1.84457e-11   7.33039e-09 DIIS
   @RHF iter  10:  -158.46549580242657   -1.93268e-12   1.56726e-09 DIIS
   @RHF iter  11:  -158.46549580242669   -1.13687e-13   3.15895e-10 DIIS
   @RHF iter  12:  -158.46549580242663    5.68434e-14   8.26879e-11 DIIS
  Energy and wave function converged.

  ==> Post-Iterations <==

    Orbital Energies [Eh]
    ---------------------

    Doubly Occupied:

       1A    -11.219787     2A    -11.217507     3A    -11.216014
       4A    -11.215422     5A     -1.020693     6A     -1.015364
       7A     -0.837584     8A     -0.837109     9A     -0.601522
      10A     -0.600730    11A     -0.595138    12A     -0.593155
      13A     -0.503765    14A     -0.498015    15A     -0.491336
      16A     -0.487128    17A     -0.484376    18A     -0.476880

    Virtual:

      19A      0.175599    20A      0.197171    21A      0.227132
      22A      0.234071    23A      0.245953    24A      0.262945
      25A      0.264507    26A      0.278675    27A      0.281235
      28A      0.290908    29A      0.316432    30A      0.332392
      31A      0.388507    32A      0.400286    33A      0.560524
      34A      0.596158    35A      0.599485    36A      0.605213
      37A      0.608214    38A      0.637576    39A      0.681198
      40A      0.696538    41A      0.742312    42A      0.769158
      43A      0.847214    44A      0.856153    45A      0.887655
      46A      0.890282    47A      0.894453    48A      0.896032
      49A      0.906852    50A      0.912472    51A      0.917414
      52A      0.928731    53A      0.950302    54A      0.962173
      55A      0.968815    56A      1.028072    57A      1.123995
      58A      1.127779    59A      1.132381    60A      1.166577
      61A      1.217408    62A      1.277877    63A      1.458285
      64A      1.469724    65A      1.480711    66A      1.485628
      67A      1.578321    68A      1.591620    69A      1.678290
      70A      1.689985    71A      1.693580    72A      1.700595
      73A      1.856350    74A      1.867017    75A      1.871846
      76A      1.890716    77A      1.895226    78A      1.918493
      79A      1.937019    80A      1.943093    81A      1.945587
      82A      1.951547    83A      1.957075    84A      1.964526
      85A      1.971636    86A      1.980105    87A      1.983644
      88A      2.069189    89A      2.093825    90A      2.106206
      91A      2.118744    92A      2.139128    93A      2.299003
      94A      2.313950    95A      2.321104    96A      2.360911
      97A      2.448939    98A      2.450456    99A      2.469512
     100A      2.474424   101A      2.554615   102A      2.563712
     103A      2.572739   104A      2.593883   105A      2.761455
     106A      2.774670   107A      2.786800   108A      2.799512
     109A      2.847935   110A      2.853341   111A      2.863633
     112A      2.875322   113A      2.938120   114A      2.948806
     115A      2.966223   116A      2.984711

    Final Occupation by Irrep:
              A
    DOCC [    18 ]

  @RHF Final Energy:  -158.46549580242663

   => Energetics <=

    Nuclear Repulsion Energy =            124.9206912993725354
    One-Electron Energy =                -458.9493261633541579
    Two-Electron Energy =                 175.5631390615549776
    Total Energy =                       -158.4654958024266307

Computation Completed

Properties will be evaluated at   0.000000,   0.000000,   0.000000 [a0]

Properties computed using the SCF density matrix

  Nuclear Dipole Moment: [e a0]
     X:    -0.0130      Y:     0.0671      Z:     0.1136

  Electronic Dipole Moment: [e a0]
     X:     0.0218      Y:    -0.0360      Z:    -0.0960

  Dipole Moment: [e a0]
     X:     0.0087      Y:     0.0311      Z:     0.0176     Total:     0.0368

  Dipole Moment: [D]
     X:     0.0222      Y:     0.0790      Z:     0.0447     Total:     0.0935

*** tstop() called on ds3 at Sun Apr 26 18:36:28 2020
Module time:
	user time   =       7.26 seconds =       0.12 minutes
	system time =       2.84 seconds =       0.05 minutes
	total time  =         10 seconds =       0.17 minutes
Total time:
	user time   =       7.26 seconds =       0.12 minutes
	system time =       2.84 seconds =       0.05 minutes
	total time  =         10 seconds =       0.17 minutes
                                     G D M A

                                 by Anthony Stone

                           version 2.2.06, 22 June 2011

               Distributed Multipoles from Gaussian wavefunctions

Starting at 18:36:28 on 26 Apr 2020

Using SCF density matrix from file ./SSI/SSI-120VAL-154ILE-1-dimer.test.16067.fchk

                         Distributed Multipole Analysis

Standard DMA

Positions and radii in angstrom
Multipole moments in atomic units, ea_0^k for rank k

C          x =  0.974292  y =  0.932996  z =  0.433706 angstrom
           Maximum rank =  0   Radius =  0.650 angstrom
                   Q00  =  -0.247303

C          x =  2.114292  y =  1.518996  z =  1.263706 angstrom
           Maximum rank =  0   Radius =  0.650 angstrom
                   Q00  =  -0.225995

H          x =  1.345292  y =  0.110996  z = -0.181294 angstrom
           Maximum rank =  0   Radius =  0.325 angstrom
                   Q00  =   0.077784

H          x =  0.194292  y =  0.556996  z =  1.097706 angstrom
           Maximum rank =  0   Radius =  0.325 angstrom
                   Q00  =   0.076519

H          x =  0.527292  y =  1.691996  z = -0.206294 angstrom
           Maximum rank =  0   Radius =  0.325 angstrom
                   Q00  =   0.081008

H          x =  1.730292  y =  2.384996  z =  1.802706 angstrom
           Maximum rank =  0   Radius =  0.325 angstrom
                   Q00  =   0.077941

H          x =  2.939106  y =  1.845336  z =  0.613176 angstrom
           Maximum rank =  0   Radius =  0.325 angstrom
                   Q00  =   0.080395

H          x =  2.464478  y =  0.783096  z =  2.002506 angstrom
           Maximum rank =  0   Radius =  0.325 angstrom
                   Q00  =   0.079898

C          x = -1.753708  y = -0.646004  z = -1.302294 angstrom
           Maximum rank =  0   Radius =  0.650 angstrom
                   Q00  =  -0.234330

C          x = -1.333708  y = -1.812004  z = -0.405294 angstrom
           Maximum rank =  0   Radius =  0.650 angstrom
                   Q00  =  -0.241770

H          x = -2.729708  y = -0.839004  z = -1.741294 angstrom
           Maximum rank =  0   Radius =  0.325 angstrom
                   Q00  =   0.079656

H          x = -1.820708  y =  0.260996  z = -0.700294 angstrom
           Maximum rank =  0   Radius =  0.325 angstrom
                   Q00  =   0.080130

H          x = -1.019708  y = -0.482004  z = -2.091294 angstrom
           Maximum rank =  0   Radius =  0.325 angstrom
                   Q00  =   0.079116

H          x = -2.011708  y = -1.860004  z =  0.445706 angstrom
           Maximum rank =  0   Radius =  0.325 angstrom
                   Q00  =   0.076887

H          x = -0.343708  y = -1.597004  z = -0.003294 angstrom
           Maximum rank =  0   Radius =  0.325 angstrom
                   Q00  =   0.078891

H          x = -1.289098  y = -2.784784  z = -0.916864 angstrom
           Maximum rank =  0   Radius =  0.325 angstrom
                   Q00  =   0.081172

Total multipoles referred to origin at
           x =   0.000000,  y =    0.000000,  z =    0.000000 angstrom
                   Q00  =  -0.000000

Finished at 18:36:28 on 26 Apr 2020

  DMA results are available in the Python driver through the
	  variable('DMA DISTRIBUTED MULTIPOLES')
  and
	  variable('DMA TOTAL MULTIPOLES')
  commands.

    Psi4 stopped on: Sunday, 26 April 2020 06:36PM
    Psi4 wall time for execution: 0:00:09.93

*** Psi4 exiting successfully. Buy a developer a beer!
