                               Psi4 1.3.2 release

  ==> Input File <==

--------------------------------------------------------------------------
import numpy as np
set {scf_type pk
basis cc-pvdz
d_convergence 10
gdma_switch   0
gdma_limit    0
gdma_origin   [ 0.0,  0.0,  0.0 ]
}
molecule test {
    units Angstrom
    1 1
    --
    1 1
    C               -1.135876096570572     3.048227573384523     2.262161104684195
    C               -0.039876096570572    -0.900772426615477     0.909161104684194
    C                0.934123903429428    -0.040772426615477     1.396161104684194
    C               -1.367876096570572    -0.488772426615477     0.846161104684194
    C                0.575123903429428     1.246227573384523     1.837161104684194
    C               -1.716876096570572     0.792227573384523     1.288161104684194
    C               -0.746876096570572     1.674227573384523     1.770161104684194
    O                0.323123903429428    -2.151772426615477     0.519161104684194
    H                1.965123903429428    -0.361772426615477     1.446161104684194
    H                1.274123903429428    -2.286772426615477     0.510161104684194
    H               -2.113876096570572    -1.172772426615477     0.470161104684194
    H                1.335123903429428     1.912227573384523     2.220161104684194
    H               -2.751876096570572     1.104227573384523     1.257161104684194
    H               -2.211876096570571     3.187227573384523     2.143161104684194
    H               -0.624876096570572     3.789227573384522     1.647161104684194
    H               -0.858806096570572     3.226957573384523     3.311583104684194
    C                1.106123903429428    -0.756772426615477    -2.607838895315806
    C               -0.137876096570572    -0.002772426615477    -3.063838895315806
    N                1.607123903429428    -1.668772426615477    -3.677838895315805
    H                1.877123903429428    -0.029772426615477    -2.333838895315806
    H                0.854123903429428    -1.338772426615477    -1.716838895315806
    H                0.139123903429428     0.675227573384523    -3.872838895315806
    H               -0.513876096570572     0.591227573384523    -2.226838895315805
    H                1.774123903429428    -1.176772426615477    -4.547838895315805
    H                2.484123903429428    -2.092772426615477    -3.399838895315806
    H                0.963123903429428    -2.432772426615478    -3.846838895315805
    H               -0.926176096570572    -0.684132426615477    -3.416442195315806

}
e, wfn = energy('scf', return_wfn=True)
gdma(wfn)
dmavals = variable('DMA DISTRIBUTED MULTIPOLES')
charges = np.array(dmavals)
print(charges)
np.save('SSI-163TYR-183LYS-1-dimer.npy', np.array(charges))--------------------------------------------------------------------------

*** tstart() called on ds3
*** at Sun Apr 26 22:25:55 2020

   => Loading Basis Set <=

    Name: CC-PVDZ
    Role: ORBITAL
    Keyword: BASIS
    atoms 1-7, 17-18  entry C          line   138 file /theoryfs2/ds/metcalf/miniconda2/envs/tf2gpu/share/psi4/basis/cc-pvdz.gbs
    atoms 8           entry O          line   198 file /theoryfs2/ds/metcalf/miniconda2/envs/tf2gpu/share/psi4/basis/cc-pvdz.gbs
    atoms 9-16, 20-27 entry H          line    22 file /theoryfs2/ds/metcalf/miniconda2/envs/tf2gpu/share/psi4/basis/cc-pvdz.gbs
    atoms 19          entry N          line   168 file /theoryfs2/ds/metcalf/miniconda2/envs/tf2gpu/share/psi4/basis/cc-pvdz.gbs

         ---------------------------------------------------------
                                   SCF
               by Justin Turney, Rob Parrish, Andy Simmonett
                          and Daniel G. A. Smith
                              RHF Reference
                        1 Threads,    500 MiB Core
         ---------------------------------------------------------

  ==> Geometry <==

    Molecular point group: c1
    Full point group: C1

    Geometry (in Angstrom), charge = 1, multiplicity = 1:

       Center              X                  Y                   Z               Mass
    ------------   -----------------  -----------------  -----------------  -----------------
         C           -1.135876096571     3.048227573385     2.262161104684    12.000000000000
         C           -0.039876096571    -0.900772426615     0.909161104684    12.000000000000
         C            0.934123903429    -0.040772426615     1.396161104684    12.000000000000
         C           -1.367876096571    -0.488772426615     0.846161104684    12.000000000000
         C            0.575123903429     1.246227573385     1.837161104684    12.000000000000
         C           -1.716876096571     0.792227573385     1.288161104684    12.000000000000
         C           -0.746876096571     1.674227573385     1.770161104684    12.000000000000
         O            0.323123903429    -2.151772426615     0.519161104684    15.994914619570
         H            1.965123903429    -0.361772426615     1.446161104684     1.007825032230
         H            1.274123903429    -2.286772426615     0.510161104684     1.007825032230
         H           -2.113876096571    -1.172772426615     0.470161104684     1.007825032230
         H            1.335123903429     1.912227573385     2.220161104684     1.007825032230
         H           -2.751876096571     1.104227573385     1.257161104684     1.007825032230
         H           -2.211876096571     3.187227573385     2.143161104684     1.007825032230
         H           -0.624876096571     3.789227573385     1.647161104684     1.007825032230
         H           -0.858806096571     3.226957573385     3.311583104684     1.007825032230
         C            1.106123903429    -0.756772426615    -2.607838895316    12.000000000000
         C           -0.137876096571    -0.002772426615    -3.063838895316    12.000000000000
         N            1.607123903429    -1.668772426615    -3.677838895316    14.003074004430
         H            1.877123903429    -0.029772426615    -2.333838895316     1.007825032230
         H            0.854123903429    -1.338772426615    -1.716838895316     1.007825032230
         H            0.139123903429     0.675227573385    -3.872838895316     1.007825032230
         H           -0.513876096571     0.591227573385    -2.226838895316     1.007825032230
         H            1.774123903429    -1.176772426615    -4.547838895316     1.007825032230
         H            2.484123903429    -2.092772426615    -3.399838895316     1.007825032230
         H            0.963123903429    -2.432772426615    -3.846838895316     1.007825032230
         H           -0.926176096571    -0.684132426615    -3.416442195316     1.007825032230

  Running in c1 symmetry.

  Rotational constants: A =      0.05345  B =      0.01606  C =      0.01463 [cm^-1]
  Rotational constants: A =   1602.45888  B =    481.39916  C =    438.58296 [MHz]
  Nuclear repulsion =  598.159986632964888

  Charge       = 1
  Multiplicity = 1
  Electrons    = 84
  Nalpha       = 42
  Nbeta        = 42

  ==> Algorithm <==

  SCF Algorithm Type is PK.
  DIIS enabled.
  MOM disabled.
  Fractional occupation disabled.
  Guess Type is SAD.
  Energy threshold   = 1.00e-06
  Density threshold  = 1.00e-10
  Integral threshold = 0.00e+00

  ==> Primary Basis <==

  Basis Set: CC-PVDZ
    Blend: CC-PVDZ
    Number of shells: 114
    Number of basis function: 234
    Number of Cartesian functions: 245
    Spherical Harmonics?: true
    Max angular momentum: 2

  ==> Pre-Iterations <==

   -------------------------------------------------------
    Irrep   Nso     Nmo     Nalpha   Nbeta   Ndocc  Nsocc
   -------------------------------------------------------
     A        234     234       0       0       0       0
   -------------------------------------------------------
    Total     234     234      42      42      42       0
   -------------------------------------------------------

  ==> Integral Setup <==

  Using integral reordering PK algorithm.
  Sizing the integral batches needed.
  Building batch lookup table.
   Calculation information:
      Number of atoms:                  27
      Number of AO shells:             114
      Number of primitives:            322
      Number of atomic orbitals:       245
      Number of basis functions:       234

      Integral cutoff                 1.00e-12
      Number of threads:                 1

	Batch   1 pq = [       0,    9405] index = [             0,44231715] size =     44231715
	Batch   2 pq = [    9405,   13301] index = [      44231715,88464951] size =     44233236
	Batch   3 pq = [   13301,   16290] index = [      88464951,132690195] size =     44225244
	Batch   4 pq = [   16290,   18810] index = [     132690195,176917455] size =     44227260
	Batch   5 pq = [   18810,   21030] index = [     176917455,221140965] size =     44223510
	Batch   6 pq = [   21030,   23037] index = [     221140965,265363203] size =     44222238
	Batch   7 pq = [   23037,   24883] index = [     265363203,309594286] size =     44231083
	Batch   8 pq = [   24883,   26601] index = [     309594286,353819901] size =     44225615
	Batch   9 pq = [   26601,   27495] index = [     353819901,378001260] size =     24181359
  Task number: 35
  Buffer size: 11059200
  Buffer per thread: 2
  We computed 19237004 shell quartets total.
  Whereas there are 21487290 unique shell quartets.

  ==> DiskJK: Disk-Based J/K Matrices <==

    J tasked:                  Yes
    K tasked:                  Yes
    wK tasked:                  No
    Memory [MiB]:              375
    Schwarz Cutoff:          1E-12

    OpenMP threads:              1

  Minimum eigenvalue in the overlap matrix is 3.2469685929E-04.
  Using Symmetric Orthogonalization.

  SCF Guess: Superposition of Atomic Densities via on-the-fly atomic UHF.

  ==> Iterations <==

                        Total Energy        Delta E     RMS |[F,P]|

   @RHF iter SAD:  -478.48665507516233   -4.78487e+02   0.00000e+00
   @RHF iter   1:  -478.99165232602428   -5.04997e-01   2.70271e-03 DIIS
   @RHF iter   2:  -479.22490268051297   -2.33250e-01   1.07287e-03 DIIS
   @RHF iter   3:  -479.25697079531176   -3.20681e-02   2.90202e-04 DIIS
   @RHF iter   4:  -479.26038732175641   -3.41653e-03   1.12206e-04 DIIS
   @RHF iter   5:  -479.26078958249428   -4.02261e-04   2.14209e-05 DIIS
   @RHF iter   6:  -479.26081305965931   -2.34772e-05   6.64295e-06 DIIS
   @RHF iter   7:  -479.26081509591381   -2.03625e-06   2.13613e-06 DIIS
   @RHF iter   8:  -479.26081535301182   -2.57098e-07   7.10654e-07 DIIS
   @RHF iter   9:  -479.26081538057986   -2.75680e-08   2.22407e-07 DIIS
   @RHF iter  10:  -479.26081538344590   -2.86605e-09   7.43472e-08 DIIS
   @RHF iter  11:  -479.26081538399660   -5.50699e-10   3.30913e-08 DIIS
   @RHF iter  12:  -479.26081538414667   -1.50067e-10   1.82170e-08 DIIS
   @RHF iter  13:  -479.26081538418913   -4.24620e-11   7.58831e-09 DIIS
   @RHF iter  14:  -479.26081538419737   -8.24230e-12   2.15428e-09 DIIS
   @RHF iter  15:  -479.26081538420004   -2.67164e-12   8.08189e-10 DIIS
   @RHF iter  16:  -479.26081538419822    1.81899e-12   2.24154e-10 DIIS
   @RHF iter  17:  -479.26081538420055   -2.33058e-12   9.39213e-11 DIIS
  Energy and wave function converged.

  ==> Post-Iterations <==

    Orbital Energies [Eh]
    ---------------------

    Doubly Occupied:

       1A    -20.696221     2A    -15.900798     3A    -11.472301
       4A    -11.398716     5A    -11.396327     6A    -11.333317
       7A    -11.332757     8A    -11.332086     9A    -11.329393
      10A    -11.326019    11A    -11.307151    12A     -1.520281
      13A     -1.513938    14A     -1.244563    15A     -1.212764
      16A     -1.130514    17A     -1.110806    18A     -1.048535
      19A     -1.015265    20A     -0.979213    21A     -0.961919
      22A     -0.942895    23A     -0.899536    24A     -0.855988
      25A     -0.834962    26A     -0.791354    27A     -0.765466
      28A     -0.736580    29A     -0.711667    30A     -0.705116
      31A     -0.699031    32A     -0.692324    33A     -0.680273
      34A     -0.674172    35A     -0.664643    36A     -0.651095
      37A     -0.614577    38A     -0.587033    39A     -0.579227
      40A     -0.562351    41A     -0.432252    42A     -0.400903

    Virtual:

      43A     -0.046380    44A      0.017108    45A      0.022675
      46A      0.032332    47A      0.042205    48A      0.061701
      49A      0.072084    50A      0.093052    51A      0.103999
      52A      0.124748    53A      0.128687    54A      0.132598
      55A      0.133933    56A      0.158221    57A      0.164898
      58A      0.176283    59A      0.190790    60A      0.195472
      61A      0.207420    62A      0.217396    63A      0.277172
      64A      0.284814    65A      0.325693    66A      0.363655
      67A      0.379357    68A      0.389394    69A      0.395968
      70A      0.400895    71A      0.419096    72A      0.432453
      73A      0.444840    74A      0.449773    75A      0.529825
      76A      0.542987    77A      0.557814    78A      0.564812
      79A      0.584000    80A      0.597460    81A      0.611286
      82A      0.623054    83A      0.625421    84A      0.638224
      85A      0.642890    86A      0.649350    87A      0.654951
      88A      0.666098    89A      0.680674    90A      0.684470
      91A      0.694470    92A      0.696927    93A      0.707071
      94A      0.716002    95A      0.728810    96A      0.747467
      97A      0.760941    98A      0.770292    99A      0.776604
     100A      0.785404   101A      0.796259   102A      0.802771
     103A      0.804664   104A      0.809269   105A      0.818634
     106A      0.834655   107A      0.836844   108A      0.851577
     109A      0.860329   110A      0.869040   111A      0.870819
     112A      0.918079   113A      0.921052   114A      0.930602
     115A      0.946549   116A      0.982839   117A      1.026321
     118A      1.033884   119A      1.048329   120A      1.054483
     121A      1.071968   122A      1.120869   123A      1.144148
     124A      1.152351   125A      1.163401   126A      1.192443
     127A      1.208131   128A      1.210515   129A      1.215457
     130A      1.248081   131A      1.251122   132A      1.276702
     133A      1.281524   134A      1.301939   135A      1.343296
     136A      1.383657   137A      1.393382   138A      1.424852
     139A      1.437991   140A      1.467528   141A      1.467903
     142A      1.476759   143A      1.512398   144A      1.519130
     145A      1.531990   146A      1.596603   147A      1.604206
     148A      1.613795   149A      1.633080   150A      1.648849
     151A      1.674785   152A      1.682265   153A      1.699290
     154A      1.705131   155A      1.712423   156A      1.726847
     157A      1.742188   158A      1.760041   159A      1.771154
     160A      1.776645   161A      1.798799   162A      1.810189
     163A      1.815501   164A      1.822369   165A      1.825394
     166A      1.833808   167A      1.843155   168A      1.858350
     169A      1.866584   170A      1.882234   171A      1.887137
     172A      1.909434   173A      1.915131   174A      1.923101
     175A      1.934586   176A      1.942493   177A      1.964238
     178A      1.970831   179A      1.976394   180A      1.985264
     181A      2.001272   182A      2.023149   183A      2.043208
     184A      2.048235   185A      2.089529   186A      2.108419
     187A      2.120876   188A      2.129473   189A      2.166893
     190A      2.171623   191A      2.173386   192A      2.175305
     193A      2.208433   194A      2.283413   195A      2.287881
     196A      2.299183   197A      2.308242   198A      2.330056
     199A      2.356717   200A      2.377950   201A      2.384040
     202A      2.409721   203A      2.441042   204A      2.446729
     205A      2.453259   206A      2.525052   207A      2.527813
     208A      2.549167   209A      2.564766   210A      2.601249
     211A      2.642890   212A      2.644720   213A      2.685923
     214A      2.689619   215A      2.703799   216A      2.711697
     217A      2.741554   218A      2.767220   219A      2.796172
     220A      2.799434   221A      2.867964   222A      2.877076
     223A      2.911159   224A      2.986134   225A      3.035415
     226A      3.096983   227A      3.127427   228A      3.141804
     229A      3.182407   230A      3.242654   231A      3.476687
     232A      3.559172   233A      3.883318   234A      4.081886

    Final Occupation by Irrep:
              A
    DOCC [    42 ]

  @RHF Final Energy:  -479.26081538420055

   => Energetics <=

    Nuclear Repulsion Energy =            598.1599866329648876
    One-Electron Energy =               -1824.7529406317601115
    Two-Electron Energy =                 747.3321386145945553
    Total Energy =                       -479.2608153842005549

Computation Completed

Properties will be evaluated at   0.000000,   0.000000,   0.000000 [a0]

Properties computed using the SCF density matrix

  Nuclear Dipole Moment: [e a0]
     X:     2.4950      Y:     2.7226      Z:   -11.5698

  Electronic Dipole Moment: [e a0]
     X:     0.3958      Y:    -4.7461      Z:     5.6506

  Dipole Moment: [e a0]
     X:     2.8908      Y:    -2.0236      Z:    -5.9193     Total:     6.8913

  Dipole Moment: [D]
     X:     7.3478      Y:    -5.1434      Z:   -15.0453     Total:    17.5158

*** tstop() called on ds3 at Sun Apr 26 22:30:23 2020
Module time:
	user time   =     141.05 seconds =       2.35 minutes
	system time =      57.33 seconds =       0.96 minutes
	total time  =        268 seconds =       4.47 minutes
Total time:
	user time   =     141.05 seconds =       2.35 minutes
	system time =      57.33 seconds =       0.96 minutes
	total time  =        268 seconds =       4.47 minutes
                                     G D M A

                                 by Anthony Stone

                           version 2.2.06, 22 June 2011

               Distributed Multipoles from Gaussian wavefunctions

Starting at 22:30:23 on 26 Apr 2020

Using SCF density matrix from file ./SSI/SSI-163TYR-183LYS-1-dimer.test.3394.fchk

                         Distributed Multipole Analysis

Standard DMA

Positions and radii in angstrom
Multipole moments in atomic units, ea_0^k for rank k

C          x = -1.135876  y =  3.048228  z =  2.262161 angstrom
           Maximum rank =  0   Radius =  0.650 angstrom
                   Q00  =  -0.191887

C          x = -0.039876  y = -0.900772  z =  0.909161 angstrom
           Maximum rank =  0   Radius =  0.650 angstrom
                   Q00  =   0.252156

C          x =  0.934124  y = -0.040772  z =  1.396161 angstrom
           Maximum rank =  0   Radius =  0.650 angstrom
                   Q00  =  -0.170606

C          x = -1.367876  y = -0.488772  z =  0.846161 angstrom
           Maximum rank =  0   Radius =  0.650 angstrom
                   Q00  =  -0.131938

C          x =  0.575124  y =  1.246228  z =  1.837161 angstrom
           Maximum rank =  0   Radius =  0.650 angstrom
                   Q00  =  -0.063902

C          x = -1.716876  y =  0.792228  z =  1.288161 angstrom
           Maximum rank =  0   Radius =  0.650 angstrom
                   Q00  =   0.054563

C          x = -0.746876  y =  1.674228  z =  1.770161 angstrom
           Maximum rank =  0   Radius =  0.650 angstrom
                   Q00  =  -0.130782

O          x =  0.323124  y = -2.151772  z =  0.519161 angstrom
           Maximum rank =  0   Radius =  0.650 angstrom
                   Q00  =  -0.645399

H          x =  1.965124  y = -0.361772  z =  1.446161 angstrom
           Maximum rank =  0   Radius =  0.325 angstrom
                   Q00  =   0.071228

H          x =  1.274124  y = -2.286772  z =  0.510161 angstrom
           Maximum rank =  0   Radius =  0.325 angstrom
                   Q00  =   0.402371

H          x = -2.113876  y = -1.172772  z =  0.470161 angstrom
           Maximum rank =  0   Radius =  0.325 angstrom
                   Q00  =   0.085103

H          x =  1.335124  y =  1.912228  z =  2.220161 angstrom
           Maximum rank =  0   Radius =  0.325 angstrom
                   Q00  =   0.083445

H          x = -2.751876  y =  1.104228  z =  1.257161 angstrom
           Maximum rank =  0   Radius =  0.325 angstrom
                   Q00  =   0.082216

H          x = -2.211876  y =  3.187228  z =  2.143161 angstrom
           Maximum rank =  0   Radius =  0.325 angstrom
                   Q00  =   0.105084

H          x = -0.624876  y =  3.789228  z =  1.647161 angstrom
           Maximum rank =  0   Radius =  0.325 angstrom
                   Q00  =   0.100956

H          x = -0.858806  y =  3.226958  z =  3.311583 angstrom
           Maximum rank =  0   Radius =  0.325 angstrom
                   Q00  =   0.114409

C          x =  1.106124  y = -0.756772  z = -2.607839 angstrom
           Maximum rank =  0   Radius =  0.650 angstrom
                   Q00  =  -0.012761

C          x = -0.137876  y = -0.002772  z = -3.063839 angstrom
           Maximum rank =  0   Radius =  0.650 angstrom
                   Q00  =  -0.233691

N          x =  1.607124  y = -1.668772  z = -3.677839 angstrom
           Maximum rank =  0   Radius =  0.650 angstrom
                   Q00  =  -0.138868

H          x =  1.877124  y = -0.029772  z = -2.333839 angstrom
           Maximum rank =  0   Radius =  0.325 angstrom
                   Q00  =   0.128294

H          x =  0.854124  y = -1.338772  z = -1.716839 angstrom
           Maximum rank =  0   Radius =  0.325 angstrom
                   Q00  =   0.105522

H          x =  0.139124  y =  0.675228  z = -3.872839 angstrom
           Maximum rank =  0   Radius =  0.325 angstrom
                   Q00  =   0.099367

H          x = -0.513876  y =  0.591228  z = -2.226839 angstrom
           Maximum rank =  0   Radius =  0.325 angstrom
                   Q00  =   0.162498

H          x =  1.774124  y = -1.176772  z = -4.547839 angstrom
           Maximum rank =  0   Radius =  0.325 angstrom
                   Q00  =   0.257712

H          x =  2.484124  y = -2.092772  z = -3.399839 angstrom
           Maximum rank =  0   Radius =  0.325 angstrom
                   Q00  =   0.250687

H          x =  0.963124  y = -2.432772  z = -3.846839 angstrom
           Maximum rank =  0   Radius =  0.325 angstrom
                   Q00  =   0.261641

H          x = -0.926176  y = -0.684132  z = -3.416442 angstrom
           Maximum rank =  0   Radius =  0.325 angstrom
                   Q00  =   0.102583

Total multipoles referred to origin at
           x =   0.000000,  y =    0.000000,  z =    0.000000 angstrom
                   Q00  =   1.000000

Finished at 22:30:23 on 26 Apr 2020

  DMA results are available in the Python driver through the
	  variable('DMA DISTRIBUTED MULTIPOLES')
  and
	  variable('DMA TOTAL MULTIPOLES')
  commands.

    Psi4 stopped on: Sunday, 26 April 2020 10:30PM
    Psi4 wall time for execution: 0:04:28.32

*** Psi4 exiting successfully. Buy a developer a beer!
