                               Psi4 1.3.2 release

  ==> Input File <==

--------------------------------------------------------------------------
import numpy as np
set {scf_type pk
basis cc-pvdz
d_convergence 10
gdma_switch   0
gdma_limit    0
gdma_origin   [ 0.0,  0.0,  0.0 ]
}
molecule test {
    units Angstrom
    -1 1
    --
    -1 1
    C                1.642817613960011     0.934614346478915     1.220720198958157
    C                2.200817613960011     1.046614346478915    -0.189279801041843
    O                3.207817613960011     1.707614346478915    -0.454279801041843
    N                1.533817613960011     0.386614346478915    -1.116279801041843
    H                1.868817613960011     0.460614346478915    -2.070279801041843
    H                0.713817613960011    -0.162385653521085    -0.870279801041843
    H                1.334817613960011    -0.097385653521085     1.398720198958157
    H                0.734817613960011     1.527614346478915     1.277720198958157
    H                2.350347613960011     1.240826646478915     2.005340198958157
    C               -2.373182386039989     0.279614346478915     0.742720198958157
    C               -2.134182386039989    -1.084385653521085     0.113720198958157
    O               -0.991182386039989    -1.293385653521085    -0.353279801041843
    O               -3.047182386039989    -1.940385653521085     0.089720198958157
    H               -2.092182386039989     1.037614346478915     0.009720198958157
    H               -1.723182386039989     0.394614346478915     1.613720198958157
    H               -3.414352386039989     0.440074046478915     1.059280198958157

}
e, wfn = energy('scf', return_wfn=True)
gdma(wfn)
dmavals = variable('DMA DISTRIBUTED MULTIPOLES')
charges = np.array(dmavals)
print(charges)
np.save('SSI-002ASN-022GLU-1-dimer.npy', np.array(charges))--------------------------------------------------------------------------

*** tstart() called on ds3
*** at Tue Apr 28 12:26:11 2020

   => Loading Basis Set <=

    Name: CC-PVDZ
    Role: ORBITAL
    Keyword: BASIS
    atoms 1-2, 10-11 entry C          line   138 file /theoryfs2/ds/metcalf/miniconda2/envs/tf2gpu/share/psi4/basis/cc-pvdz.gbs
    atoms 3, 12-13   entry O          line   198 file /theoryfs2/ds/metcalf/miniconda2/envs/tf2gpu/share/psi4/basis/cc-pvdz.gbs
    atoms 4          entry N          line   168 file /theoryfs2/ds/metcalf/miniconda2/envs/tf2gpu/share/psi4/basis/cc-pvdz.gbs
    atoms 5-9, 14-16 entry H          line    22 file /theoryfs2/ds/metcalf/miniconda2/envs/tf2gpu/share/psi4/basis/cc-pvdz.gbs

         ---------------------------------------------------------
                                   SCF
               by Justin Turney, Rob Parrish, Andy Simmonett
                          and Daniel G. A. Smith
                              RHF Reference
                        1 Threads,    500 MiB Core
         ---------------------------------------------------------

  ==> Geometry <==

    Molecular point group: c1
    Full point group: C1

    Geometry (in Angstrom), charge = -1, multiplicity = 1:

       Center              X                  Y                   Z               Mass
    ------------   -----------------  -----------------  -----------------  -----------------
         C            1.642817613960     0.934614346479     1.220720198958    12.000000000000
         C            2.200817613960     1.046614346479    -0.189279801042    12.000000000000
         O            3.207817613960     1.707614346479    -0.454279801042    15.994914619570
         N            1.533817613960     0.386614346479    -1.116279801042    14.003074004430
         H            1.868817613960     0.460614346479    -2.070279801042     1.007825032230
         H            0.713817613960    -0.162385653521    -0.870279801042     1.007825032230
         H            1.334817613960    -0.097385653521     1.398720198958     1.007825032230
         H            0.734817613960     1.527614346479     1.277720198958     1.007825032230
         H            2.350347613960     1.240826646479     2.005340198958     1.007825032230
         C           -2.373182386040     0.279614346479     0.742720198958    12.000000000000
         C           -2.134182386040    -1.084385653521     0.113720198958    12.000000000000
         O           -0.991182386040    -1.293385653521    -0.353279801042    15.994914619570
         O           -3.047182386040    -1.940385653521     0.089720198958    15.994914619570
         H           -2.092182386040     1.037614346479     0.009720198958     1.007825032230
         H           -1.723182386040     0.394614346479     1.613720198958     1.007825032230
         H           -3.414352386040     0.440074046479     1.059280198958     1.007825032230

  Running in c1 symmetry.

  Rotational constants: A =      0.16133  B =      0.02190  C =      0.02041 [cm^-1]
  Rotational constants: A =   4836.45937  B =    656.65946  C =    611.83875 [MHz]
  Nuclear repulsion =  348.318810574293821

  Charge       = -1
  Multiplicity = 1
  Electrons    = 64
  Nalpha       = 32
  Nbeta        = 32

  ==> Algorithm <==

  SCF Algorithm Type is PK.
  DIIS enabled.
  MOM disabled.
  Fractional occupation disabled.
  Guess Type is SAD.
  Energy threshold   = 1.00e-06
  Density threshold  = 1.00e-10
  Integral threshold = 0.00e+00

  ==> Primary Basis <==

  Basis Set: CC-PVDZ
    Blend: CC-PVDZ
    Number of shells: 72
    Number of basis function: 152
    Number of Cartesian functions: 160
    Spherical Harmonics?: true
    Max angular momentum: 2

  ==> Pre-Iterations <==

   -------------------------------------------------------
    Irrep   Nso     Nmo     Nalpha   Nbeta   Ndocc  Nsocc
   -------------------------------------------------------
     A        152     152       0       0       0       0
   -------------------------------------------------------
    Total     152     152      32      32      32       0
   -------------------------------------------------------

  ==> Integral Setup <==

  Using integral reordering PK algorithm.
  Sizing the integral batches needed.
  Building batch lookup table.
   Calculation information:
      Number of atoms:                  16
      Number of AO shells:              72
      Number of primitives:            216
      Number of atomic orbitals:       160
      Number of basis functions:       152

      Integral cutoff                 1.00e-12
      Number of threads:                 1

	Batch   1 pq = [       0,    9405] index = [             0,44231715] size =     44231715
	Batch   2 pq = [    9405,   11628] index = [      44231715,67611006] size =     23379291
  Task number: 7
  Buffer size: 11059200
  Buffer per thread: 2
  We computed 2904511 shell quartets total.
  Whereas there are 3454506 unique shell quartets.

  ==> DiskJK: Disk-Based J/K Matrices <==

    J tasked:                  Yes
    K tasked:                  Yes
    wK tasked:                  No
    Memory [MiB]:              375
    Schwarz Cutoff:          1E-12

    OpenMP threads:              1

  Minimum eigenvalue in the overlap matrix is 4.7238742902E-03.
  Using Symmetric Orthogonalization.

  SCF Guess: Superposition of Atomic Densities via on-the-fly atomic UHF.

  ==> Iterations <==

                        Total Energy        Delta E     RMS |[F,P]|

   @RHF iter SAD:  -433.44956772376821   -4.33450e+02   0.00000e+00
   @RHF iter   1:  -434.94978533997704   -1.50022e+00   5.42398e-03 DIIS
   @RHF iter   2:  -435.17855328076251   -2.28768e-01   3.21036e-03 DIIS
   @RHF iter   3:  -435.26166970405666   -8.31164e-02   4.85074e-04 DIIS
   @RHF iter   4:  -435.26500475283365   -3.33505e-03   1.88698e-04 DIIS
   @RHF iter   5:  -435.26557970851678   -5.74956e-04   3.95118e-05 DIIS
   @RHF iter   6:  -435.26560953163556   -2.98231e-05   2.03198e-05 DIIS
   @RHF iter   7:  -435.26561660701100   -7.07538e-06   5.51339e-06 DIIS
   @RHF iter   8:  -435.26561766284868   -1.05584e-06   2.41342e-06 DIIS
   @RHF iter   9:  -435.26561782781260   -1.64964e-07   9.53651e-07 DIIS
   @RHF iter  10:  -435.26561785346081   -2.56482e-08   2.56230e-07 DIIS
   @RHF iter  11:  -435.26561785491521   -1.45440e-09   1.11827e-07 DIIS
   @RHF iter  12:  -435.26561785508903   -1.73827e-10   2.33020e-08 DIIS
   @RHF iter  13:  -435.26561785510467   -1.56319e-11   5.82532e-09 DIIS
   @RHF iter  14:  -435.26561785510626   -1.59162e-12   2.00818e-09 DIIS
   @RHF iter  15:  -435.26561785510540    8.52651e-13   6.55798e-10 DIIS
   @RHF iter  16:  -435.26561785510614   -7.38964e-13   2.47980e-10 DIIS
   @RHF iter  17:  -435.26561785510626   -1.13687e-13   9.84353e-11 DIIS
  Energy and wave function converged.

  ==> Post-Iterations <==

    Orbital Energies [Eh]
    ---------------------

    Doubly Occupied:

       1A    -20.382539     2A    -20.289230     3A    -20.281095
       4A    -15.448053     5A    -11.224724     6A    -11.140561
       7A    -11.121247     8A    -11.069270     9A     -1.244583
      10A     -1.173404    11A     -1.083167    12A     -1.059938
      13A     -0.876749    14A     -0.815962    15A     -0.665184
      16A     -0.592051    17A     -0.531364    18A     -0.523297
      19A     -0.489554    20A     -0.448204    21A     -0.439948
      22A     -0.431443    23A     -0.427364    24A     -0.423730
      25A     -0.397174    26A     -0.364336    27A     -0.326195
      28A     -0.290968    29A     -0.275552    30A     -0.208672
      31A     -0.195750    32A     -0.186757

    Virtual:

      33A      0.298357    34A      0.320589    35A      0.332578
      36A      0.354429    37A      0.367930    38A      0.384335
      39A      0.402792    40A      0.415713    41A      0.455551
      42A      0.481097    43A      0.518082    44A      0.558220
      45A      0.577472    46A      0.671346    47A      0.678177
      48A      0.720050    49A      0.749690    50A      0.756989
      51A      0.803026    52A      0.826457    53A      0.839509
      54A      0.854378    55A      0.883842    56A      0.913177
      57A      0.924698    58A      0.949726    59A      0.973949
      60A      0.994410    61A      1.015829    62A      1.019063
      63A      1.025012    64A      1.035860    65A      1.044141
      66A      1.071419    67A      1.094931    68A      1.111777
      69A      1.151779    70A      1.166472    71A      1.207634
      72A      1.222767    73A      1.243677    74A      1.283276
      75A      1.325421    76A      1.334901    77A      1.413057
      78A      1.461981    79A      1.472800    80A      1.486597
      81A      1.503526    82A      1.517548    83A      1.543770
      84A      1.558729    85A      1.562682    86A      1.584978
      87A      1.610255    88A      1.646170    89A      1.671471
      90A      1.704579    91A      1.723489    92A      1.780715
      93A      1.786114    94A      1.818343    95A      1.840814
      96A      1.856990    97A      1.933595    98A      1.987013
      99A      2.015262   100A      2.020501   101A      2.039538
     102A      2.053920   103A      2.075989   104A      2.083160
     105A      2.094770   106A      2.125241   107A      2.144705
     108A      2.178115   109A      2.191839   110A      2.233296
     111A      2.262703   112A      2.273401   113A      2.331433
     114A      2.384030   115A      2.390027   116A      2.406159
     117A      2.422016   118A      2.524474   119A      2.564975
     120A      2.576536   121A      2.628393   122A      2.646713
     123A      2.685004   124A      2.698830   125A      2.739471
     126A      2.753715   127A      2.766893   128A      2.831350
     129A      2.869217   130A      2.905874   131A      2.934859
     132A      2.953116   133A      2.976583   134A      3.003658
     135A      3.121210   136A      3.205887   137A      3.216594
     138A      3.250699   139A      3.256466   140A      3.269912
     141A      3.337458   142A      3.457480   143A      3.606115
     144A      3.627454   145A      3.655125   146A      3.762105
     147A      3.801221   148A      3.976906   149A      4.019316
     150A      4.033684   151A      4.096636   152A      4.167428

    Final Occupation by Irrep:
              A
    DOCC [    32 ]

  @RHF Final Energy:  -435.26561785510626

   => Energetics <=

    Nuclear Repulsion Energy =            348.3188105742938205
    One-Electron Energy =               -1298.3127238040069642
    Two-Electron Energy =                 514.7282953746068870
    Total Energy =                       -435.2656178551062567

Computation Completed

Properties will be evaluated at   0.000000,   0.000000,   0.000000 [a0]

Properties computed using the SCF density matrix

  Nuclear Dipole Moment: [e a0]
     X:    -0.2213      Y:     4.5304      Z:     4.1471

  Electronic Dipole Moment: [e a0]
     X:     1.8009      Y:    -2.6735      Z:    -3.7302

  Dipole Moment: [e a0]
     X:     1.5795      Y:     1.8569      Z:     0.4169     Total:     2.4732

  Dipole Moment: [D]
     X:     4.0147      Y:     4.7198      Z:     1.0597     Total:     6.2863

*** tstop() called on ds3 at Tue Apr 28 12:26:44 2020
Module time:
	user time   =      24.11 seconds =       0.40 minutes
	system time =      10.05 seconds =       0.17 minutes
	total time  =         33 seconds =       0.55 minutes
Total time:
	user time   =      24.11 seconds =       0.40 minutes
	system time =      10.05 seconds =       0.17 minutes
	total time  =         33 seconds =       0.55 minutes
                                     G D M A

                                 by Anthony Stone

                           version 2.2.06, 22 June 2011

               Distributed Multipoles from Gaussian wavefunctions

Starting at 12:26:44 on 28 Apr 2020

Using SCF density matrix from file ./SSI/SSI-002ASN-022GLU-1-dimer.test.14905.fchk

                         Distributed Multipole Analysis

Standard DMA

Positions and radii in angstrom
Multipole moments in atomic units, ea_0^k for rank k

C          x =  1.642818  y =  0.934614  z =  1.220720 angstrom
           Maximum rank =  0   Radius =  0.650 angstrom
                   Q00  =  -0.266081

C          x =  2.200818  y =  1.046614  z = -0.189280 angstrom
           Maximum rank =  0   Radius =  0.650 angstrom
                   Q00  =   0.839034

O          x =  3.207818  y =  1.707614  z = -0.454280 angstrom
           Maximum rank =  0   Radius =  0.650 angstrom
                   Q00  =  -0.851293

N          x =  1.533818  y =  0.386614  z = -1.116280 angstrom
           Maximum rank =  0   Radius =  0.650 angstrom
                   Q00  =  -0.536709

H          x =  1.868818  y =  0.460614  z = -2.070280 angstrom
           Maximum rank =  0   Radius =  0.325 angstrom
                   Q00  =   0.193413

H          x =  0.713818  y = -0.162386  z = -0.870280 angstrom
           Maximum rank =  0   Radius =  0.325 angstrom
                   Q00  =   0.264563

H          x =  1.334818  y = -0.097386  z =  1.398720 angstrom
           Maximum rank =  0   Radius =  0.325 angstrom
                   Q00  =   0.114878

H          x =  0.734818  y =  1.527614  z =  1.277720 angstrom
           Maximum rank =  0   Radius =  0.325 angstrom
                   Q00  =   0.122919

H          x =  2.350348  y =  1.240827  z =  2.005340 angstrom
           Maximum rank =  0   Radius =  0.325 angstrom
                   Q00  =   0.092353

C          x = -2.373182  y =  0.279614  z =  0.742720 angstrom
           Maximum rank =  0   Radius =  0.650 angstrom
                   Q00  =  -0.288021

C          x = -2.134182  y = -1.084386  z =  0.113720 angstrom
           Maximum rank =  0   Radius =  0.650 angstrom
                   Q00  =   0.954821

O          x = -0.991182  y = -1.293386  z = -0.353280 angstrom
           Maximum rank =  0   Radius =  0.650 angstrom
                   Q00  =  -0.940731

O          x = -3.047182  y = -1.940386  z =  0.089720 angstrom
           Maximum rank =  0   Radius =  0.650 angstrom
                   Q00  =  -0.903340

H          x = -2.092182  y =  1.037614  z =  0.009720 angstrom
           Maximum rank =  0   Radius =  0.325 angstrom
                   Q00  =   0.069938

H          x = -1.723182  y =  0.394614  z =  1.613720 angstrom
           Maximum rank =  0   Radius =  0.325 angstrom
                   Q00  =   0.075909

H          x = -3.414352  y =  0.440074  z =  1.059280 angstrom
           Maximum rank =  0   Radius =  0.325 angstrom
                   Q00  =   0.058348

Total multipoles referred to origin at
           x =   0.000000,  y =    0.000000,  z =    0.000000 angstrom
                   Q00  =  -1.000000

Finished at 12:26:44 on 28 Apr 2020

  DMA results are available in the Python driver through the
	  variable('DMA DISTRIBUTED MULTIPOLES')
  and
	  variable('DMA TOTAL MULTIPOLES')
  commands.

    Psi4 stopped on: Tuesday, 28 April 2020 12:26PM
    Psi4 wall time for execution: 0:00:33.37

*** Psi4 exiting successfully. Buy a developer a beer!
