                               Psi4 1.3.2 release

  ==> Input File <==

--------------------------------------------------------------------------
import numpy as np
set {scf_type pk
basis cc-pvdz
d_convergence 10
gdma_switch   0
gdma_limit    0
gdma_origin   [ 0.0,  0.0,  0.0 ]
}
molecule test {
    units Angstrom
    0 1
    --
    0 1
    C                2.086442523935134     0.030942979152834     0.271034989713119
    C                1.967442523935134     0.318942979152834    -1.237965010286881
    H                3.126442523935134     0.129942979152834     0.584034989713120
    H                1.475442523935134     0.741942979152834     0.828034989713119
    H                1.741442523935134    -0.982057020847166     0.482034989713119
    H                0.921442523935134     0.222942979152834    -1.532965010286881
    H                2.564752523935134    -0.423357020847166    -1.787705010286881
    H                2.275392523935134     1.351642979152834    -1.458545010286881
    C               -1.685557476064866    -0.470057020847166    -0.134965010286881
    C               -2.363557476064866     0.119942979152834     1.104034989713119
    H               -2.004557476064866     0.071942979152834    -1.025965010286881
    H               -0.607557476064866    -0.386057020847166    -0.036965010286881
    H               -1.960557476064866    -1.520057020847166    -0.231965010286881
    H               -2.126557476064866     1.181942979152834     1.182034989713119
    H               -3.449768476064866     0.015242979152834     0.965564989713119
    H               -2.012713476064866    -0.401357020847166     2.006924989713120

}
e, wfn = energy('scf', return_wfn=True)
gdma(wfn)
dmavals = variable('DMA DISTRIBUTED MULTIPOLES')
charges = np.array(dmavals)
print(charges)
np.save('SSI-113ALA-120VAL-1-dimer.npy', np.array(charges))--------------------------------------------------------------------------

*** tstart() called on ds3
*** at Mon Apr 27 16:42:08 2020

   => Loading Basis Set <=

    Name: CC-PVDZ
    Role: ORBITAL
    Keyword: BASIS
    atoms 1-2, 9-10  entry C          line   138 file /theoryfs2/ds/metcalf/miniconda2/envs/tf2gpu/share/psi4/basis/cc-pvdz.gbs
    atoms 3-8, 11-16 entry H          line    22 file /theoryfs2/ds/metcalf/miniconda2/envs/tf2gpu/share/psi4/basis/cc-pvdz.gbs

         ---------------------------------------------------------
                                   SCF
               by Justin Turney, Rob Parrish, Andy Simmonett
                          and Daniel G. A. Smith
                              RHF Reference
                        1 Threads,    500 MiB Core
         ---------------------------------------------------------

  ==> Geometry <==

    Molecular point group: c1
    Full point group: C1

    Geometry (in Angstrom), charge = 0, multiplicity = 1:

       Center              X                  Y                   Z               Mass
    ------------   -----------------  -----------------  -----------------  -----------------
         C            2.086442523935     0.030942979153     0.271034989713    12.000000000000
         C            1.967442523935     0.318942979153    -1.237965010287    12.000000000000
         H            3.126442523935     0.129942979153     0.584034989713     1.007825032230
         H            1.475442523935     0.741942979153     0.828034989713     1.007825032230
         H            1.741442523935    -0.982057020847     0.482034989713     1.007825032230
         H            0.921442523935     0.222942979153    -1.532965010287     1.007825032230
         H            2.564752523935    -0.423357020847    -1.787705010287     1.007825032230
         H            2.275392523935     1.351642979153    -1.458545010287     1.007825032230
         C           -1.685557476065    -0.470057020847    -0.134965010287    12.000000000000
         C           -2.363557476065     0.119942979153     1.104034989713    12.000000000000
         H           -2.004557476065     0.071942979153    -1.025965010287     1.007825032230
         H           -0.607557476065    -0.386057020847    -0.036965010287     1.007825032230
         H           -1.960557476065    -1.520057020847    -0.231965010287     1.007825032230
         H           -2.126557476065     1.181942979153     1.182034989713     1.007825032230
         H           -3.449768476065     0.015242979153     0.965564989713     1.007825032230
         H           -2.012713476065    -0.401357020847     2.006924989713     1.007825032230

  Running in c1 symmetry.

  Rotational constants: A =      0.39250  B =      0.05889  C =      0.05462 [cm^-1]
  Rotational constants: A =  11766.76729  B =   1765.35922  C =   1637.53793 [MHz]
  Nuclear repulsion =  124.778004985190123

  Charge       = 0
  Multiplicity = 1
  Electrons    = 36
  Nalpha       = 18
  Nbeta        = 18

  ==> Algorithm <==

  SCF Algorithm Type is PK.
  DIIS enabled.
  MOM disabled.
  Fractional occupation disabled.
  Guess Type is SAD.
  Energy threshold   = 1.00e-06
  Density threshold  = 1.00e-10
  Integral threshold = 0.00e+00

  ==> Primary Basis <==

  Basis Set: CC-PVDZ
    Blend: CC-PVDZ
    Number of shells: 60
    Number of basis function: 116
    Number of Cartesian functions: 120
    Spherical Harmonics?: true
    Max angular momentum: 2

  ==> Pre-Iterations <==

   -------------------------------------------------------
    Irrep   Nso     Nmo     Nalpha   Nbeta   Ndocc  Nsocc
   -------------------------------------------------------
     A        116     116       0       0       0       0
   -------------------------------------------------------
    Total     116     116      18      18      18       0
   -------------------------------------------------------

  ==> Integral Setup <==

  Using integral reordering PK algorithm.
  Sizing the integral batches needed.
  Building batch lookup table.
   Calculation information:
      Number of atoms:                  16
      Number of AO shells:              60
      Number of primitives:            148
      Number of atomic orbitals:       120
      Number of basis functions:       116

      Integral cutoff                 1.00e-12
      Number of threads:                 1

	Batch   1 pq = [       0,    6786] index = [             0,23028291] size =     23028291
  Task number: 3
  Buffer size: 11059200
  Buffer per thread: 2
  We computed 1543727 shell quartets total.
  Whereas there are 1675365 unique shell quartets.

  ==> DiskJK: Disk-Based J/K Matrices <==

    J tasked:                  Yes
    K tasked:                  Yes
    wK tasked:                  No
    Memory [MiB]:              375
    Schwarz Cutoff:          1E-12

    OpenMP threads:              1

  Minimum eigenvalue in the overlap matrix is 6.9453958988E-03.
  Using Symmetric Orthogonalization.

  SCF Guess: Superposition of Atomic Densities via on-the-fly atomic UHF.

  ==> Iterations <==

                        Total Energy        Delta E     RMS |[F,P]|

   @RHF iter SAD:  -157.35258736416134   -1.57353e+02   0.00000e+00
   @RHF iter   1:  -158.30809173409162   -9.55504e-01   4.17817e-03 DIIS
   @RHF iter   2:  -158.44025895240014   -1.32167e-01   1.76216e-03 DIIS
   @RHF iter   3:  -158.46291474094721   -2.26558e-02   3.49258e-04 DIIS
   @RHF iter   4:  -158.46474360574700   -1.82886e-03   3.90614e-05 DIIS
   @RHF iter   5:  -158.46476796213406   -2.43564e-05   6.61958e-06 DIIS
   @RHF iter   6:  -158.46476862413715   -6.62003e-07   1.08839e-06 DIIS
   @RHF iter   7:  -158.46476863627680   -1.21397e-08   3.24732e-07 DIIS
   @RHF iter   8:  -158.46476863722214   -9.45334e-10   4.34996e-08 DIIS
   @RHF iter   9:  -158.46476863725391   -3.17755e-11   8.35973e-09 DIIS
   @RHF iter  10:  -158.46476863725539   -1.47793e-12   2.20446e-09 DIIS
   @RHF iter  11:  -158.46476863725499    3.97904e-13   3.84610e-10 DIIS
   @RHF iter  12:  -158.46476863725454    4.54747e-13   7.83918e-11 DIIS
  Energy and wave function converged.

  ==> Post-Iterations <==

    Orbital Energies [Eh]
    ---------------------

    Doubly Occupied:

       1A    -11.219979     2A    -11.219429     3A    -11.218817
       4A    -11.215289     5A     -1.019847     6A     -1.015181
       7A     -0.837161     8A     -0.835388     9A     -0.609854
      10A     -0.600555    11A     -0.598490    12A     -0.587801
      13A     -0.497890    14A     -0.495930    15A     -0.489794
      16A     -0.488326    17A     -0.486258    18A     -0.481512

    Virtual:

      19A      0.170420    20A      0.203226    21A      0.223078
      22A      0.235676    23A      0.252271    24A      0.260001
      25A      0.262656    26A      0.274870    27A      0.277046
      28A      0.299882    29A      0.309608    30A      0.339680
      31A      0.384733    32A      0.401376    33A      0.588620
      34A      0.595530    35A      0.604755    36A      0.609355
      37A      0.614809    38A      0.634381    39A      0.681173
      40A      0.687726    41A      0.718786    42A      0.790199
      43A      0.835705    44A      0.849138    45A      0.884401
      46A      0.887476    47A      0.891068    48A      0.894488
      49A      0.897164    50A      0.902965    51A      0.912543
      52A      0.934975    53A      0.945291    54A      0.967779
      55A      0.980722    56A      1.078846    57A      1.120368
      58A      1.123977    59A      1.126027    60A      1.148341
      61A      1.230968    62A      1.342902    63A      1.465034
      64A      1.470807    65A      1.482008    66A      1.494555
      67A      1.556497    68A      1.612245    69A      1.674630
      70A      1.678327    71A      1.688279    72A      1.696377
      73A      1.844844    74A      1.851187    75A      1.869747
      76A      1.881523    77A      1.894316    78A      1.898805
      79A      1.934978    80A      1.936608    81A      1.941903
      82A      1.949212    83A      1.952249    84A      1.958726
      85A      1.962823    86A      1.984578    87A      2.002191
      88A      2.034177    89A      2.099145    90A      2.113188
      91A      2.118137    92A      2.136321    93A      2.283608
      94A      2.298559    95A      2.306784    96A      2.314837
      97A      2.441331    98A      2.460997    99A      2.462092
     100A      2.470534   101A      2.555599   102A      2.569659
     103A      2.574315   104A      2.589539   105A      2.761836
     106A      2.768261   107A      2.789999   108A      2.800828
     109A      2.823005   110A      2.841086   111A      2.847341
     112A      2.862231   113A      2.936231   114A      2.951229
     115A      2.986209   116A      3.003831

    Final Occupation by Irrep:
              A
    DOCC [    18 ]

  @RHF Final Energy:  -158.46476863725454

   => Energetics <=

    Nuclear Repulsion Energy =            124.7780049851901225
    One-Electron Energy =                -458.6505389309916154
    Two-Electron Energy =                 175.4077653085469422
    Total Energy =                       -158.4647686372545365

Computation Completed

Properties will be evaluated at   0.000000,   0.000000,   0.000000 [a0]

Properties computed using the SCF density matrix

  Nuclear Dipole Moment: [e a0]
     X:    -0.0532      Y:     0.0025      Z:    -0.0239

  Electronic Dipole Moment: [e a0]
     X:     0.0632      Y:    -0.0020      Z:     0.0212

  Dipole Moment: [e a0]
     X:     0.0100      Y:     0.0006      Z:    -0.0027     Total:     0.0104

  Dipole Moment: [D]
     X:     0.0254      Y:     0.0014      Z:    -0.0069     Total:     0.0263

*** tstop() called on ds3 at Mon Apr 27 16:42:20 2020
Module time:
	user time   =       9.14 seconds =       0.15 minutes
	system time =       3.46 seconds =       0.06 minutes
	total time  =         12 seconds =       0.20 minutes
Total time:
	user time   =       9.14 seconds =       0.15 minutes
	system time =       3.46 seconds =       0.06 minutes
	total time  =         12 seconds =       0.20 minutes
                                     G D M A

                                 by Anthony Stone

                           version 2.2.06, 22 June 2011

               Distributed Multipoles from Gaussian wavefunctions

Starting at 16:42:20 on 27 Apr 2020

Using SCF density matrix from file ./SSI/SSI-113ALA-120VAL-1-dimer.test.27760.fchk

                         Distributed Multipole Analysis

Standard DMA

Positions and radii in angstrom
Multipole moments in atomic units, ea_0^k for rank k

C          x =  2.086443  y =  0.030943  z =  0.271035 angstrom
           Maximum rank =  0   Radius =  0.650 angstrom
                   Q00  =  -0.246326

C          x =  1.967443  y =  0.318943  z = -1.237965 angstrom
           Maximum rank =  0   Radius =  0.650 angstrom
                   Q00  =  -0.235727

H          x =  3.126443  y =  0.129943  z =  0.584035 angstrom
           Maximum rank =  0   Radius =  0.325 angstrom
                   Q00  =   0.082232

H          x =  1.475443  y =  0.741943  z =  0.828035 angstrom
           Maximum rank =  0   Radius =  0.325 angstrom
                   Q00  =   0.078141

H          x =  1.741443  y = -0.982057  z =  0.482035 angstrom
           Maximum rank =  0   Radius =  0.325 angstrom
                   Q00  =   0.079781

H          x =  0.921443  y =  0.222943  z = -1.532965 angstrom
           Maximum rank =  0   Radius =  0.325 angstrom
                   Q00  =   0.081266

H          x =  2.564753  y = -0.423357  z = -1.787705 angstrom
           Maximum rank =  0   Radius =  0.325 angstrom
                   Q00  =   0.080354

H          x =  2.275393  y =  1.351643  z = -1.458545 angstrom
           Maximum rank =  0   Radius =  0.325 angstrom
                   Q00  =   0.080913

C          x = -1.685557  y = -0.470057  z = -0.134965 angstrom
           Maximum rank =  0   Radius =  0.650 angstrom
                   Q00  =  -0.237178

C          x = -2.363557  y =  0.119943  z =  1.104035 angstrom
           Maximum rank =  0   Radius =  0.650 angstrom
                   Q00  =  -0.240320

H          x = -2.004557  y =  0.071943  z = -1.025965 angstrom
           Maximum rank =  0   Radius =  0.325 angstrom
                   Q00  =   0.077252

H          x = -0.607557  y = -0.386057  z = -0.036965 angstrom
           Maximum rank =  0   Radius =  0.325 angstrom
                   Q00  =   0.085278

H          x = -1.960557  y = -1.520057  z = -0.231965 angstrom
           Maximum rank =  0   Radius =  0.325 angstrom
                   Q00  =   0.078767

H          x = -2.126557  y =  1.181943  z =  1.182035 angstrom
           Maximum rank =  0   Radius =  0.325 angstrom
                   Q00  =   0.078253

H          x = -3.449768  y =  0.015243  z =  0.965565 angstrom
           Maximum rank =  0   Radius =  0.325 angstrom
                   Q00  =   0.077181

H          x = -2.012713  y = -0.401357  z =  2.006925 angstrom
           Maximum rank =  0   Radius =  0.325 angstrom
                   Q00  =   0.080132

Total multipoles referred to origin at
           x =   0.000000,  y =    0.000000,  z =    0.000000 angstrom
                   Q00  =  -0.000000

Finished at 16:42:20 on 27 Apr 2020

  DMA results are available in the Python driver through the
	  variable('DMA DISTRIBUTED MULTIPOLES')
  and
	  variable('DMA TOTAL MULTIPOLES')
  commands.

    Psi4 stopped on: Monday, 27 April 2020 04:42PM
    Psi4 wall time for execution: 0:00:12.32

*** Psi4 exiting successfully. Buy a developer a beer!
