                               Psi4 1.3.2 release

  ==> Input File <==

--------------------------------------------------------------------------
import numpy as np
set {scf_type pk
basis cc-pvdz
d_convergence 10
gdma_switch   0
gdma_limit    0
gdma_origin   [ 0.0,  0.0,  0.0 ]
}
molecule test {
    units Angstrom
    -1 1
    --
    -1 1
    C                0.928622710164312    -1.417780826911031     0.548934580669424
    C                1.292622710164312    -2.445780826911031     1.610934580669424
    C                1.431622710164312    -0.066780826911031     0.877934580669424
    C                2.763622710164311     0.256219173088969     0.664934580669424
    C                0.578622710164312     0.856219173088969     1.448934580669424
    C                3.238622710164311     1.525219173088969     1.021934580669424
    C                1.038622710164312     2.098219173088969     1.800934580669424
    C                2.359622710164312     2.442219173088969     1.601934580669424
    H                1.333622710164312    -1.718780826911031    -0.413065419330576
    H               -0.156377289835688    -1.392780826911031     0.449934580669424
    H                2.373622710164311    -2.416780826911031     1.753934580669424
    H                3.436622710164311    -0.467780826911031     0.226934580669424
    H               -0.456377289835688     0.604219173088969     1.631934580669424
    H                4.275622710164312     1.788219173088969     0.861934580669424
    H                0.361622710164312     2.815219173088969     2.243934580669424
    H                2.712622710164311     3.424219173088969     1.888934580669424
    H                1.012926710164312    -3.458920826911031     1.286394580669424
    H                0.825086710164312    -2.183610826911031     2.571494580669424
    C               -1.488377289835688    -0.004780826911031    -1.725065419330576
    C               -1.846377289835688     1.200219173088969    -2.591065419330576
    C               -2.657377289835688    -0.966780826911031    -1.540065419330576
    O               -3.840377289835689    -0.569780826911031    -1.720065419330576
    O               -2.398377289835689    -2.121780826911031    -1.151065419330576
    H               -0.630377289835688    -0.526780826911031    -2.154065419330577
    H               -1.204377289835688     0.365219173088969    -0.740065419330576
    H               -2.782377289835688     1.624219173088969    -2.225065419330576
    H               -1.973504289835688     0.886189173088969    -3.637595419330576
    H               -1.081179289835688     1.981939173088969    -2.475385419330576

}
e, wfn = energy('scf', return_wfn=True)
gdma(wfn)
dmavals = variable('DMA DISTRIBUTED MULTIPOLES')
charges = np.array(dmavals)
print(charges)
np.save('SSI-042PHE-088ASP-1-dimer.npy', np.array(charges))--------------------------------------------------------------------------

*** tstart() called on ds3
*** at Tue Apr 28 13:47:56 2020

   => Loading Basis Set <=

    Name: CC-PVDZ
    Role: ORBITAL
    Keyword: BASIS
    atoms 1-8, 19-21  entry C          line   138 file /theoryfs2/ds/metcalf/miniconda2/envs/tf2gpu/share/psi4/basis/cc-pvdz.gbs
    atoms 9-18, 24-28 entry H          line    22 file /theoryfs2/ds/metcalf/miniconda2/envs/tf2gpu/share/psi4/basis/cc-pvdz.gbs
    atoms 22-23       entry O          line   198 file /theoryfs2/ds/metcalf/miniconda2/envs/tf2gpu/share/psi4/basis/cc-pvdz.gbs

         ---------------------------------------------------------
                                   SCF
               by Justin Turney, Rob Parrish, Andy Simmonett
                          and Daniel G. A. Smith
                              RHF Reference
                        1 Threads,    500 MiB Core
         ---------------------------------------------------------

  ==> Geometry <==

    Molecular point group: c1
    Full point group: C1

    Geometry (in Angstrom), charge = -1, multiplicity = 1:

       Center              X                  Y                   Z               Mass
    ------------   -----------------  -----------------  -----------------  -----------------
         C            0.928622710164    -1.417780826911     0.548934580669    12.000000000000
         C            1.292622710164    -2.445780826911     1.610934580669    12.000000000000
         C            1.431622710164    -0.066780826911     0.877934580669    12.000000000000
         C            2.763622710164     0.256219173089     0.664934580669    12.000000000000
         C            0.578622710164     0.856219173089     1.448934580669    12.000000000000
         C            3.238622710164     1.525219173089     1.021934580669    12.000000000000
         C            1.038622710164     2.098219173089     1.800934580669    12.000000000000
         C            2.359622710164     2.442219173089     1.601934580669    12.000000000000
         H            1.333622710164    -1.718780826911    -0.413065419331     1.007825032230
         H           -0.156377289836    -1.392780826911     0.449934580669     1.007825032230
         H            2.373622710164    -2.416780826911     1.753934580669     1.007825032230
         H            3.436622710164    -0.467780826911     0.226934580669     1.007825032230
         H           -0.456377289836     0.604219173089     1.631934580669     1.007825032230
         H            4.275622710164     1.788219173089     0.861934580669     1.007825032230
         H            0.361622710164     2.815219173089     2.243934580669     1.007825032230
         H            2.712622710164     3.424219173089     1.888934580669     1.007825032230
         H            1.012926710164    -3.458920826911     1.286394580669     1.007825032230
         H            0.825086710164    -2.183610826911     2.571494580669     1.007825032230
         C           -1.488377289836    -0.004780826911    -1.725065419331    12.000000000000
         C           -1.846377289836     1.200219173089    -2.591065419331    12.000000000000
         C           -2.657377289836    -0.966780826911    -1.540065419331    12.000000000000
         O           -3.840377289836    -0.569780826911    -1.720065419331    15.994914619570
         O           -2.398377289836    -2.121780826911    -1.151065419331    15.994914619570
         H           -0.630377289836    -0.526780826911    -2.154065419331     1.007825032230
         H           -1.204377289836     0.365219173089    -0.740065419331     1.007825032230
         H           -2.782377289836     1.624219173089    -2.225065419331     1.007825032230
         H           -1.973504289836     0.886189173089    -3.637595419331     1.007825032230
         H           -1.081179289836     1.981939173089    -2.475385419331     1.007825032230

  Running in c1 symmetry.

  Rotational constants: A =      0.03716  B =      0.01217  C =      0.01021 [cm^-1]
  Rotational constants: A =   1113.90905  B =    364.90398  C =    306.08932 [MHz]
  Nuclear repulsion =  736.285988767584513

  Charge       = -1
  Multiplicity = 1
  Electrons    = 98
  Nalpha       = 49
  Nbeta        = 49

  ==> Algorithm <==

  SCF Algorithm Type is PK.
  DIIS enabled.
  MOM disabled.
  Fractional occupation disabled.
  Guess Type is SAD.
  Energy threshold   = 1.00e-06
  Density threshold  = 1.00e-10
  Integral threshold = 0.00e+00

  ==> Primary Basis <==

  Basis Set: CC-PVDZ
    Blend: CC-PVDZ
    Number of shells: 123
    Number of basis function: 257
    Number of Cartesian functions: 270
    Spherical Harmonics?: true
    Max angular momentum: 2

  ==> Pre-Iterations <==

   -------------------------------------------------------
    Irrep   Nso     Nmo     Nalpha   Nbeta   Ndocc  Nsocc
   -------------------------------------------------------
     A        257     257       0       0       0       0
   -------------------------------------------------------
    Total     257     257      49      49      49       0
   -------------------------------------------------------

  ==> Integral Setup <==

  Using integral reordering PK algorithm.
  Sizing the integral batches needed.
  Building batch lookup table.
   Calculation information:
      Number of atoms:                  28
      Number of AO shells:             123
      Number of primitives:            361
      Number of atomic orbitals:       270
      Number of basis functions:       257

      Integral cutoff                 1.00e-12
      Number of threads:                 1

	Batch   1 pq = [       0,    9405] index = [             0,44231715] size =     44231715
	Batch   2 pq = [    9405,   13301] index = [      44231715,88464951] size =     44233236
	Batch   3 pq = [   13301,   16290] index = [      88464951,132690195] size =     44225244
	Batch   4 pq = [   16290,   18810] index = [     132690195,176917455] size =     44227260
	Batch   5 pq = [   18810,   21030] index = [     176917455,221140965] size =     44223510
	Batch   6 pq = [   21030,   23037] index = [     221140965,265363203] size =     44222238
	Batch   7 pq = [   23037,   24883] index = [     265363203,309594286] size =     44231083
	Batch   8 pq = [   24883,   26601] index = [     309594286,353819901] size =     44225615
	Batch   9 pq = [   26601,   28214] index = [     353819901,398029005] size =     44209104
	Batch  10 pq = [   28214,   29740] index = [     398029005,442248670] size =     44219665
	Batch  11 pq = [   29740,   31191] index = [     442248670,486454836] size =     44206166
	Batch  12 pq = [   31191,   32578] index = [     486454836,530679331] size =     44224495
	Batch  13 pq = [   32578,   33153] index = [     530679331,549577281] size =     18897950
  Task number: 50
  Buffer size: 11059200
  Buffer per thread: 2
  We computed 27607726 shell quartets total.
  Whereas there are 29081751 unique shell quartets.

  ==> DiskJK: Disk-Based J/K Matrices <==

    J tasked:                  Yes
    K tasked:                  Yes
    wK tasked:                  No
    Memory [MiB]:              375
    Schwarz Cutoff:          1E-12

    OpenMP threads:              1

  Minimum eigenvalue in the overlap matrix is 2.9902056847E-04.
  Using Symmetric Orthogonalization.

  SCF Guess: Superposition of Atomic Densities via on-the-fly atomic UHF.

  ==> Iterations <==

                        Total Energy        Delta E     RMS |[F,P]|

   @RHF iter SAD:  -573.54303868723287   -5.73543e+02   0.00000e+00
   @RHF iter   1:  -574.68627775290076   -1.14324e+00   3.24019e-03 DIIS
   @RHF iter   2:  -574.99349609197282   -3.07218e-01   1.72185e-03 DIIS
   @RHF iter   3:  -575.07059302284017   -7.70969e-02   3.07313e-04 DIIS
   @RHF iter   4:  -575.07487742932767   -4.28441e-03   1.16745e-04 DIIS
   @RHF iter   5:  -575.07542518787989   -5.47759e-04   1.76452e-05 DIIS
   @RHF iter   6:  -575.07544354575055   -1.83579e-05   5.36547e-06 DIIS
   @RHF iter   7:  -575.07544495796924   -1.41222e-06   2.06693e-06 DIIS
   @RHF iter   8:  -575.07544515157474   -1.93606e-07   6.51065e-07 DIIS
   @RHF iter   9:  -575.07544518199461   -3.04199e-08   2.52243e-07 DIIS
   @RHF iter  10:  -575.07544519079465   -8.80004e-09   1.14299e-07 DIIS
   @RHF iter  11:  -575.07544519317537   -2.38072e-09   5.19648e-08 DIIS
   @RHF iter  12:  -575.07544519359033   -4.14957e-10   2.24379e-08 DIIS
   @RHF iter  13:  -575.07544519366184   -7.15090e-11   7.89431e-09 DIIS
   @RHF iter  14:  -575.07544519367002   -8.18545e-12   2.72541e-09 DIIS
   @RHF iter  15:  -575.07544519367025   -2.27374e-13   9.25586e-10 DIIS
   @RHF iter  16:  -575.07544519366706    3.18323e-12   4.47950e-10 DIIS
   @RHF iter  17:  -575.07544519367116   -4.09273e-12   1.88861e-10 DIIS
   @RHF iter  18:  -575.07544519367025    9.09495e-13   7.18760e-11 DIIS
  Energy and wave function converged.

  ==> Post-Iterations <==

    Orbital Energies [Eh]
    ---------------------

    Doubly Occupied:

       1A    -20.262414     2A    -20.261955     3A    -11.155790
       4A    -11.148304     5A    -11.146113     6A    -11.145458
       7A    -11.141739     8A    -11.135749     9A    -11.126914
      10A    -11.116336    11A    -11.113944    12A    -11.069483
      13A    -11.055005    14A     -1.151137    15A     -1.072600
      16A     -1.035725    17A     -0.974599    18A     -0.929440
      19A     -0.889602    20A     -0.871290    21A     -0.769156
      22A     -0.741599    23A     -0.701131    24A     -0.694109
      25A     -0.605822    26A     -0.552295    27A     -0.546797
      28A     -0.509262    29A     -0.502035    30A     -0.500844
      31A     -0.482236    32A     -0.461405    33A     -0.451687
      34A     -0.432001    35A     -0.426509    36A     -0.409347
      37A     -0.393847    38A     -0.389576    39A     -0.377052
      40A     -0.375258    41A     -0.360790    42A     -0.354778
      43A     -0.324597    44A     -0.300778    45A     -0.249122
      46A     -0.234595    47A     -0.184754    48A     -0.172195
      49A     -0.162514

    Virtual:

      50A      0.221975    51A      0.228463    52A      0.263778
      53A      0.287592    54A      0.298792    55A      0.321323
      56A      0.326463    57A      0.333026    58A      0.346060
      59A      0.348590    60A      0.376392    61A      0.388026
      62A      0.391421    63A      0.417061    64A      0.421409
      65A      0.433599    66A      0.434885    67A      0.446199
      68A      0.491313    69A      0.496758    70A      0.522146
      71A      0.534208    72A      0.553868    73A      0.554532
      74A      0.581839    75A      0.603750    76A      0.607168
      77A      0.666480    78A      0.689930    79A      0.694678
      80A      0.697870    81A      0.714084    82A      0.721075
      83A      0.739771    84A      0.762943    85A      0.770160
      86A      0.778691    87A      0.803806    88A      0.817005
      89A      0.825084    90A      0.831197    91A      0.833288
      92A      0.844295    93A      0.851576    94A      0.862972
      95A      0.888860    96A      0.892468    97A      0.925020
      98A      0.934747    99A      0.944297   100A      0.947021
     101A      0.960863   102A      0.974247   103A      0.982450
     104A      0.983027   105A      0.992821   106A      1.000054
     107A      1.014521   108A      1.016137   109A      1.022275
     110A      1.039571   111A      1.044447   112A      1.048337
     113A      1.050533   114A      1.054897   115A      1.067505
     116A      1.069380   117A      1.090298   118A      1.093879
     119A      1.105146   120A      1.114846   121A      1.138817
     122A      1.172132   123A      1.174908   124A      1.188545
     125A      1.202866   126A      1.225446   127A      1.242608
     128A      1.246095   129A      1.275840   130A      1.290768
     131A      1.310300   132A      1.316593   133A      1.322021
     134A      1.334493   135A      1.344975   136A      1.354841
     137A      1.390110   138A      1.396197   139A      1.400194
     140A      1.413411   141A      1.423510   142A      1.484648
     143A      1.496699   144A      1.504686   145A      1.522295
     146A      1.545601   147A      1.548068   148A      1.593635
     149A      1.612412   150A      1.622493   151A      1.634059
     152A      1.666639   153A      1.677972   154A      1.710607
     155A      1.722741   156A      1.732910   157A      1.775091
     158A      1.789319   159A      1.811000   160A      1.822697
     161A      1.834953   162A      1.841582   163A      1.854786
     164A      1.867215   165A      1.885847   166A      1.928340
     167A      1.942922   168A      1.954522   169A      1.959363
     170A      1.967438   171A      1.987810   172A      2.000164
     173A      2.001057   174A      2.014817   175A      2.019229
     176A      2.029220   177A      2.042763   178A      2.048613
     179A      2.053021   180A      2.060892   181A      2.063991
     182A      2.069335   183A      2.092384   184A      2.100924
     185A      2.113795   186A      2.124750   187A      2.134971
     188A      2.145844   189A      2.152365   190A      2.163222
     191A      2.171478   192A      2.182093   193A      2.187307
     194A      2.202969   195A      2.217808   196A      2.238421
     197A      2.248996   198A      2.251479   199A      2.262566
     200A      2.267008   201A      2.277825   202A      2.292651
     203A      2.342391   204A      2.358912   205A      2.364768
     206A      2.373669   207A      2.400391   208A      2.404439
     209A      2.413801   210A      2.441945   211A      2.477145
     212A      2.485709   213A      2.511745   214A      2.544386
     215A      2.560408   216A      2.585733   217A      2.590314
     218A      2.600532   219A      2.630880   220A      2.656833
     221A      2.670275   222A      2.694704   223A      2.737487
     224A      2.754946   225A      2.763949   226A      2.825532
     227A      2.827638   228A      2.862987   229A      2.874255
     230A      2.878602   231A      2.892248   232A      2.916688
     233A      2.941624   234A      2.979299   235A      2.985698
     236A      3.004359   237A      3.031440   238A      3.059484
     239A      3.084682   240A      3.093000   241A      3.126685
     242A      3.145736   243A      3.167881   244A      3.248314
     245A      3.290227   246A      3.301891   247A      3.305115
     248A      3.315608   249A      3.360925   250A      3.417830
     251A      3.638286   252A      3.761037   253A      3.824463
     254A      4.048026   255A      4.087541   256A      4.093459
     257A      4.202019

    Final Occupation by Irrep:
              A
    DOCC [    49 ]

  @RHF Final Energy:  -575.07544519367025

   => Energetics <=

    Nuclear Repulsion Energy =            736.2859887675845130
    One-Electron Energy =               -2257.7834967952544503
    Two-Electron Energy =                 946.4220628339996892
    Total Energy =                       -575.0754451936702480

Computation Completed

Properties will be evaluated at   0.000000,   0.000000,   0.000000 [a0]

Properties computed using the SCF density matrix

  Nuclear Dipole Moment: [e a0]
     X:     7.5140      Y:     1.2283      Z:     1.1770

  Electronic Dipole Moment: [e a0]
     X:    -2.1422      Y:     0.9214      Z:     1.3177

  Dipole Moment: [e a0]
     X:     5.3718      Y:     2.1497      Z:     2.4946     Total:     6.3009

  Dipole Moment: [D]
     X:    13.6539      Y:     5.4641      Z:     6.3407     Total:    16.0153

*** tstop() called on ds3 at Tue Apr 28 13:54:32 2020
Module time:
	user time   =     217.20 seconds =       3.62 minutes
	system time =      88.56 seconds =       1.48 minutes
	total time  =        396 seconds =       6.60 minutes
Total time:
	user time   =     217.20 seconds =       3.62 minutes
	system time =      88.56 seconds =       1.48 minutes
	total time  =        396 seconds =       6.60 minutes
                                     G D M A

                                 by Anthony Stone

                           version 2.2.06, 22 June 2011

               Distributed Multipoles from Gaussian wavefunctions

Starting at 13:54:32 on 28 Apr 2020

Using SCF density matrix from file ./SSI/SSI-042PHE-088ASP-1-dimer.test.15465.fchk

                         Distributed Multipole Analysis

Standard DMA

Positions and radii in angstrom
Multipole moments in atomic units, ea_0^k for rank k

C          x =  0.928623  y = -1.417781  z =  0.548935 angstrom
           Maximum rank =  0   Radius =  0.650 angstrom
                   Q00  =   0.015954

C          x =  1.292623  y = -2.445781  z =  1.610935 angstrom
           Maximum rank =  0   Radius =  0.650 angstrom
                   Q00  =  -0.229810

C          x =  1.431623  y = -0.066781  z =  0.877935 angstrom
           Maximum rank =  0   Radius =  0.650 angstrom
                   Q00  =  -0.062063

C          x =  2.763623  y =  0.256219  z =  0.664935 angstrom
           Maximum rank =  0   Radius =  0.650 angstrom
                   Q00  =  -0.109173

C          x =  0.578623  y =  0.856219  z =  1.448935 angstrom
           Maximum rank =  0   Radius =  0.650 angstrom
                   Q00  =  -0.064560

C          x =  3.238623  y =  1.525219  z =  1.021935 angstrom
           Maximum rank =  0   Radius =  0.650 angstrom
                   Q00  =  -0.077372

C          x =  1.038623  y =  2.098219  z =  1.800935 angstrom
           Maximum rank =  0   Radius =  0.650 angstrom
                   Q00  =   0.006863

C          x =  2.359623  y =  2.442219  z =  1.601935 angstrom
           Maximum rank =  0   Radius =  0.650 angstrom
                   Q00  =  -0.098701

H          x =  1.333623  y = -1.718781  z = -0.413065 angstrom
           Maximum rank =  0   Radius =  0.325 angstrom
                   Q00  =   0.063709

H          x = -0.156377  y = -1.392781  z =  0.449935 angstrom
           Maximum rank =  0   Radius =  0.325 angstrom
                   Q00  =   0.064663

H          x =  2.373623  y = -2.416781  z =  1.753935 angstrom
           Maximum rank =  0   Radius =  0.325 angstrom
                   Q00  =   0.049735

H          x =  3.436623  y = -0.467781  z =  0.226935 angstrom
           Maximum rank =  0   Radius =  0.325 angstrom
                   Q00  =   0.048482

H          x = -0.456377  y =  0.604219  z =  1.631935 angstrom
           Maximum rank =  0   Radius =  0.325 angstrom
                   Q00  =   0.072395

H          x =  4.275623  y =  1.788219  z =  0.861935 angstrom
           Maximum rank =  0   Radius =  0.325 angstrom
                   Q00  =   0.048426

H          x =  0.361623  y =  2.815219  z =  2.243935 angstrom
           Maximum rank =  0   Radius =  0.325 angstrom
                   Q00  =   0.051371

H          x =  2.712623  y =  3.424219  z =  1.888935 angstrom
           Maximum rank =  0   Radius =  0.325 angstrom
                   Q00  =   0.041703

H          x =  1.012927  y = -3.458921  z =  1.286395 angstrom
           Maximum rank =  0   Radius =  0.325 angstrom
                   Q00  =   0.089923

H          x =  0.825087  y = -2.183611  z =  2.571495 angstrom
           Maximum rank =  0   Radius =  0.325 angstrom
                   Q00  =   0.075038

C          x = -1.488377  y = -0.004781  z = -1.725065 angstrom
           Maximum rank =  0   Radius =  0.650 angstrom
                   Q00  =  -0.162754

C          x = -1.846377  y =  1.200219  z = -2.591065 angstrom
           Maximum rank =  0   Radius =  0.650 angstrom
                   Q00  =  -0.202499

C          x = -2.657377  y = -0.966781  z = -1.540065 angstrom
           Maximum rank =  0   Radius =  0.650 angstrom
                   Q00  =   1.008738

O          x = -3.840377  y = -0.569781  z = -1.720065 angstrom
           Maximum rank =  0   Radius =  0.650 angstrom
                   Q00  =  -0.960415

O          x = -2.398377  y = -2.121781  z = -1.151065 angstrom
           Maximum rank =  0   Radius =  0.650 angstrom
                   Q00  =  -0.939287

H          x = -0.630377  y = -0.526781  z = -2.154065 angstrom
           Maximum rank =  0   Radius =  0.325 angstrom
                   Q00  =   0.032861

H          x = -1.204377  y =  0.365219  z = -0.740065 angstrom
           Maximum rank =  0   Radius =  0.325 angstrom
                   Q00  =   0.057240

H          x = -2.782377  y =  1.624219  z = -2.225065 angstrom
           Maximum rank =  0   Radius =  0.325 angstrom
                   Q00  =   0.095283

H          x = -1.973504  y =  0.886189  z = -3.637595 angstrom
           Maximum rank =  0   Radius =  0.325 angstrom
                   Q00  =   0.064483

H          x = -1.081179  y =  1.981939  z = -2.475385 angstrom
           Maximum rank =  0   Radius =  0.325 angstrom
                   Q00  =   0.019765

Total multipoles referred to origin at
           x =   0.000000,  y =    0.000000,  z =    0.000000 angstrom
                   Q00  =  -1.000000

Finished at 13:54:32 on 28 Apr 2020

  DMA results are available in the Python driver through the
	  variable('DMA DISTRIBUTED MULTIPOLES')
  and
	  variable('DMA TOTAL MULTIPOLES')
  commands.

    Psi4 stopped on: Tuesday, 28 April 2020 01:54PM
    Psi4 wall time for execution: 0:06:35.71

*** Psi4 exiting successfully. Buy a developer a beer!
