                               Psi4 1.3.2 release

  ==> Input File <==

--------------------------------------------------------------------------
import numpy as np
set {scf_type pk
basis cc-pvdz
d_convergence 10
gdma_switch   0
gdma_limit    0
gdma_origin   [ 0.0,  0.0,  0.0 ]
}
molecule test {
    units Angstrom
    0 1
    --
    0 1
    C                1.732276445930258     1.216687697667567     0.574491512359332
    C                2.864276445930258     0.657687697667567    -0.262508487640668
    H                1.041276445930258     0.427687697667567     0.840491512359332
    H                2.155276445930258     1.624687697667567     1.494491512359332
    H                1.199276445930258     2.017687697667567     0.070491512359332
    H                3.640276445930258     1.420687697667567    -0.314508487640668
    H                2.576966445930258     0.394077697667567    -1.291078487640668
    H                3.295946445930258    -0.222982302332433     0.235571512359332
    C               -1.777723554069742    -0.285312302332433     0.334491512359332
    C               -2.095723554069742    -0.125312302332433    -1.144508487640668
    C               -0.854723554069742    -1.476312302332433     0.523491512359332
    H               -1.276723554069742     0.599687697667567     0.722491512359332
    H               -2.702723554069742    -0.439312302332433     0.891491512359332
    H               -2.682723554069742    -0.986312302332433    -1.469508487640668
    H               -1.151723554069742    -0.151312302332433    -1.694508487640668
    H               -1.361723554069742    -2.357312302332434     0.130491512359332
    H                0.052276445930258    -1.313312302332433    -0.059508487640668
    H               -2.632393554069743     0.789967697667567    -1.434758487640668
    H               -0.586133554069742    -1.654372302332433     1.575231512359332

}
e, wfn = energy('scf', return_wfn=True)
gdma(wfn)
dmavals = variable('DMA DISTRIBUTED MULTIPOLES')
charges = np.array(dmavals)
print(charges)
np.save('SSI-028LEU-059ARG-2-dimer.npy', np.array(charges))--------------------------------------------------------------------------

*** tstart() called on ds3
*** at Sun Apr 26 18:24:35 2020

   => Loading Basis Set <=

    Name: CC-PVDZ
    Role: ORBITAL
    Keyword: BASIS
    atoms 1-2, 9-11  entry C          line   138 file /theoryfs2/ds/metcalf/miniconda2/envs/tf2gpu/share/psi4/basis/cc-pvdz.gbs
    atoms 3-8, 12-19 entry H          line    22 file /theoryfs2/ds/metcalf/miniconda2/envs/tf2gpu/share/psi4/basis/cc-pvdz.gbs

         ---------------------------------------------------------
                                   SCF
               by Justin Turney, Rob Parrish, Andy Simmonett
                          and Daniel G. A. Smith
                              RHF Reference
                        1 Threads,    500 MiB Core
         ---------------------------------------------------------

  ==> Geometry <==

    Molecular point group: c1
    Full point group: C1

    Geometry (in Angstrom), charge = 0, multiplicity = 1:

       Center              X                  Y                   Z               Mass
    ------------   -----------------  -----------------  -----------------  -----------------
         C            1.732276445930     1.216687697668     0.574491512359    12.000000000000
         C            2.864276445930     0.657687697668    -0.262508487641    12.000000000000
         H            1.041276445930     0.427687697668     0.840491512359     1.007825032230
         H            2.155276445930     1.624687697668     1.494491512359     1.007825032230
         H            1.199276445930     2.017687697668     0.070491512359     1.007825032230
         H            3.640276445930     1.420687697668    -0.314508487641     1.007825032230
         H            2.576966445930     0.394077697668    -1.291078487641     1.007825032230
         H            3.295946445930    -0.222982302332     0.235571512359     1.007825032230
         C           -1.777723554070    -0.285312302332     0.334491512359    12.000000000000
         C           -2.095723554070    -0.125312302332    -1.144508487641    12.000000000000
         C           -0.854723554070    -1.476312302332     0.523491512359    12.000000000000
         H           -1.276723554070     0.599687697668     0.722491512359     1.007825032230
         H           -2.702723554070    -0.439312302332     0.891491512359     1.007825032230
         H           -2.682723554070    -0.986312302332    -1.469508487641     1.007825032230
         H           -1.151723554070    -0.151312302332    -1.694508487641     1.007825032230
         H           -1.361723554070    -2.357312302332     0.130491512359     1.007825032230
         H            0.052276445930    -1.313312302332    -0.059508487641     1.007825032230
         H           -2.632393554070     0.789967697668    -1.434758487641     1.007825032230
         H           -0.586133554070    -1.654372302332     1.575231512359     1.007825032230

  Running in c1 symmetry.

  Rotational constants: A =      0.21105  B =      0.04671  C =      0.04409 [cm^-1]
  Rotational constants: A =   6327.07430  B =   1400.30769  C =   1321.86161 [MHz]
  Nuclear repulsion =  182.849449478180702

  Charge       = 0
  Multiplicity = 1
  Electrons    = 44
  Nalpha       = 22
  Nbeta        = 22

  ==> Algorithm <==

  SCF Algorithm Type is PK.
  DIIS enabled.
  MOM disabled.
  Fractional occupation disabled.
  Guess Type is SAD.
  Energy threshold   = 1.00e-06
  Density threshold  = 1.00e-10
  Integral threshold = 0.00e+00

  ==> Primary Basis <==

  Basis Set: CC-PVDZ
    Blend: CC-PVDZ
    Number of shells: 72
    Number of basis function: 140
    Number of Cartesian functions: 145
    Spherical Harmonics?: true
    Max angular momentum: 2

  ==> Pre-Iterations <==

   -------------------------------------------------------
    Irrep   Nso     Nmo     Nalpha   Nbeta   Ndocc  Nsocc
   -------------------------------------------------------
     A        140     140       0       0       0       0
   -------------------------------------------------------
    Total     140     140      22      22      22       0
   -------------------------------------------------------

  ==> Integral Setup <==

  Using integral reordering PK algorithm.
  Sizing the integral batches needed.
  Building batch lookup table.
   Calculation information:
      Number of atoms:                  19
      Number of AO shells:              72
      Number of primitives:            180
      Number of atomic orbitals:       145
      Number of basis functions:       140

      Integral cutoff                 1.00e-12
      Number of threads:                 1

	Batch   1 pq = [       0,    9405] index = [             0,44231715] size =     44231715
	Batch   2 pq = [    9405,    9870] index = [      44231715,48713385] size =      4481670
  Task number: 5
  Buffer size: 11059200
  Buffer per thread: 2
  We computed 3115459 shell quartets total.
  Whereas there are 3454506 unique shell quartets.

  ==> DiskJK: Disk-Based J/K Matrices <==

    J tasked:                  Yes
    K tasked:                  Yes
    wK tasked:                  No
    Memory [MiB]:              375
    Schwarz Cutoff:          1E-12

    OpenMP threads:              1

  Minimum eigenvalue in the overlap matrix is 5.5871626486E-03.
  Using Symmetric Orthogonalization.

  SCF Guess: Superposition of Atomic Densities via on-the-fly atomic UHF.

  ==> Iterations <==

                        Total Energy        Delta E     RMS |[F,P]|

   @RHF iter SAD:  -196.46356013831857   -1.96464e+02   0.00000e+00
   @RHF iter   1:  -197.30657728438919   -8.43017e-01   3.83496e-03 DIIS
   @RHF iter   2:  -197.46829424342857   -1.61717e-01   1.66935e-03 DIIS
   @RHF iter   3:  -197.49760282616438   -2.93086e-02   3.30466e-04 DIIS
   @RHF iter   4:  -197.49987515076373   -2.27232e-03   5.02475e-05 DIIS
   @RHF iter   5:  -197.49991660462376   -4.14539e-05   1.51925e-05 DIIS
   @RHF iter   6:  -197.49992017716545   -3.57254e-06   2.57110e-06 DIIS
   @RHF iter   7:  -197.49992029640205   -1.19237e-07   4.92231e-07 DIIS
   @RHF iter   8:  -197.49992030143133   -5.02928e-09   1.26184e-07 DIIS
   @RHF iter   9:  -197.49992030174016   -3.08830e-10   3.92080e-08 DIIS
   @RHF iter  10:  -197.49992030177424   -3.40776e-11   8.18492e-09 DIIS
   @RHF iter  11:  -197.49992030177691   -2.67164e-12   1.54406e-09 DIIS
   @RHF iter  12:  -197.49992030177697   -5.68434e-14   3.18167e-10 DIIS
   @RHF iter  13:  -197.49992030177751   -5.40012e-13   7.67640e-11 DIIS
  Energy and wave function converged.

  ==> Post-Iterations <==

    Orbital Energies [Eh]
    ---------------------

    Doubly Occupied:

       1A    -11.218541     2A    -11.218473     3A    -11.216081
       4A    -11.215869     5A    -11.214289     6A     -1.059714
       7A     -1.022095     8A     -0.921720     9A     -0.837927
      10A     -0.799341    11A     -0.634475    12A     -0.602305
      13A     -0.599073    14A     -0.596602    15A     -0.540683
      16A     -0.528128    17A     -0.506551    18A     -0.485648
      19A     -0.481560    20A     -0.477328    21A     -0.471306
      22A     -0.467629

    Virtual:

      23A      0.167088    24A      0.199988    25A      0.219342
      26A      0.220601    27A      0.241382    28A      0.250162
      29A      0.256156    30A      0.265749    31A      0.272200
      32A      0.289811    33A      0.300986    34A      0.309393
      35A      0.319415    36A      0.340105    37A      0.373126
      38A      0.407225    39A      0.427046    40A      0.580311
      41A      0.582936    42A      0.604342    43A      0.607902
      44A      0.619681    45A      0.625519    46A      0.631426
      47A      0.669524    48A      0.687911    49A      0.774805
      50A      0.800956    51A      0.835191    52A      0.848044
      53A      0.863534    54A      0.866109    55A      0.880894
      56A      0.888294    57A      0.892515    58A      0.895222
      59A      0.903931    60A      0.916002    61A      0.923600
      62A      0.930213    63A      0.940350    64A      0.954958
      65A      0.968462    66A      0.986394    67A      1.000580
      68A      1.064997    69A      1.124788    70A      1.126048
      71A      1.134306    72A      1.147470    73A      1.202778
      74A      1.307365    75A      1.351047    76A      1.450573
      77A      1.479323    78A      1.484144    79A      1.499339
      80A      1.568163    81A      1.572681    82A      1.616500
      83A      1.678749    84A      1.687426    85A      1.691917
      86A      1.707517    87A      1.723765    88A      1.834555
      89A      1.860592    90A      1.867767    91A      1.881147
      92A      1.893204    93A      1.901609    94A      1.918608
      95A      1.937789    96A      1.947592    97A      1.950037
      98A      1.953475    99A      1.964679   100A      1.966702
     101A      1.974813   102A      1.984717   103A      2.001445
     104A      2.014323   105A      2.033560   106A      2.045856
     107A      2.065769   108A      2.102522   109A      2.130986
     110A      2.148559   111A      2.162016   112A      2.298768
     113A      2.313013   114A      2.319819   115A      2.322465
     116A      2.326588   117A      2.334388   118A      2.447617
     119A      2.468935   120A      2.502426   121A      2.533674
     122A      2.562250   123A      2.581655   124A      2.594327
     125A      2.605916   126A      2.652476   127A      2.754851
     128A      2.760832   129A      2.777832   130A      2.800534
     131A      2.810211   132A      2.839116   133A      2.868446
     134A      2.872586   135A      2.913186   136A      2.946342
     137A      2.963638   138A      2.975988   139A      3.013865
     140A      3.081003

    Final Occupation by Irrep:
              A
    DOCC [    22 ]

  @RHF Final Energy:  -197.49992030177751

   => Energetics <=

    Nuclear Repulsion Energy =            182.8494494781807020
    One-Electron Energy =                -626.4680664441850695
    Two-Electron Energy =                 246.1186966642268601
    Total Energy =                       -197.4999203017775073

Computation Completed

Properties will be evaluated at   0.000000,   0.000000,   0.000000 [a0]

Properties computed using the SCF density matrix

  Nuclear Dipole Moment: [e a0]
     X:     1.4692      Y:     0.1402      Z:    -0.2842

  Electronic Dipole Moment: [e a0]
     X:    -1.4778      Y:    -0.1276      Z:     0.3121

  Dipole Moment: [e a0]
     X:    -0.0086      Y:     0.0127      Z:     0.0279     Total:     0.0318

  Dipole Moment: [D]
     X:    -0.0219      Y:     0.0322      Z:     0.0709     Total:     0.0809

*** tstop() called on ds3 at Sun Apr 26 18:25:05 2020
Module time:
	user time   =      15.71 seconds =       0.26 minutes
	system time =       5.31 seconds =       0.09 minutes
	total time  =         30 seconds =       0.50 minutes
Total time:
	user time   =      15.71 seconds =       0.26 minutes
	system time =       5.31 seconds =       0.09 minutes
	total time  =         30 seconds =       0.50 minutes
                                     G D M A

                                 by Anthony Stone

                           version 2.2.06, 22 June 2011

               Distributed Multipoles from Gaussian wavefunctions

Starting at 18:25:5 on 26 Apr 2020

Using SCF density matrix from file ./SSI/SSI-028LEU-059ARG-2-dimer.test.9194.fchk

                         Distributed Multipole Analysis

Standard DMA

Positions and radii in angstrom
Multipole moments in atomic units, ea_0^k for rank k

C          x =  1.732276  y =  1.216688  z =  0.574492 angstrom
           Maximum rank =  0   Radius =  0.650 angstrom
                   Q00  =  -0.248042

C          x =  2.864276  y =  0.657688  z = -0.262508 angstrom
           Maximum rank =  0   Radius =  0.650 angstrom
                   Q00  =  -0.227529

H          x =  1.041276  y =  0.427688  z =  0.840492 angstrom
           Maximum rank =  0   Radius =  0.325 angstrom
                   Q00  =   0.086316

H          x =  2.155276  y =  1.624688  z =  1.494492 angstrom
           Maximum rank =  0   Radius =  0.325 angstrom
                   Q00  =   0.076158

H          x =  1.199276  y =  2.017688  z =  0.070492 angstrom
           Maximum rank =  0   Radius =  0.325 angstrom
                   Q00  =   0.079722

H          x =  3.640276  y =  1.420688  z = -0.314508 angstrom
           Maximum rank =  0   Radius =  0.325 angstrom
                   Q00  =   0.075688

H          x =  2.576966  y =  0.394078  z = -1.291078 angstrom
           Maximum rank =  0   Radius =  0.325 angstrom
                   Q00  =   0.078945

H          x =  3.295946  y = -0.222982  z =  0.235572 angstrom
           Maximum rank =  0   Radius =  0.325 angstrom
                   Q00  =   0.077270

C          x = -1.777724  y = -0.285312  z =  0.334492 angstrom
           Maximum rank =  0   Radius =  0.650 angstrom
                   Q00  =  -0.097713

C          x = -2.095724  y = -0.125312  z = -1.144508 angstrom
           Maximum rank =  0   Radius =  0.650 angstrom
                   Q00  =  -0.234775

C          x = -0.854724  y = -1.476312  z =  0.523492 angstrom
           Maximum rank =  0   Radius =  0.650 angstrom
                   Q00  =  -0.230714

H          x = -1.276724  y =  0.599688  z =  0.722492 angstrom
           Maximum rank =  0   Radius =  0.325 angstrom
                   Q00  =   0.051550

H          x = -2.702724  y = -0.439312  z =  0.891492 angstrom
           Maximum rank =  0   Radius =  0.325 angstrom
                   Q00  =   0.048835

H          x = -2.682724  y = -0.986312  z = -1.469508 angstrom
           Maximum rank =  0   Radius =  0.325 angstrom
                   Q00  =   0.074179

H          x = -1.151724  y = -0.151312  z = -1.694508 angstrom
           Maximum rank =  0   Radius =  0.325 angstrom
                   Q00  =   0.070080

H          x = -1.361724  y = -2.357312  z =  0.130492 angstrom
           Maximum rank =  0   Radius =  0.325 angstrom
                   Q00  =   0.074566

H          x =  0.052276  y = -1.313312  z = -0.059508 angstrom
           Maximum rank =  0   Radius =  0.325 angstrom
                   Q00  =   0.074474

H          x = -2.632394  y =  0.789968  z = -1.434758 angstrom
           Maximum rank =  0   Radius =  0.325 angstrom
                   Q00  =   0.086528

H          x = -0.586134  y = -1.654372  z =  1.575232 angstrom
           Maximum rank =  0   Radius =  0.325 angstrom
                   Q00  =   0.084464

Total multipoles referred to origin at
           x =   0.000000,  y =    0.000000,  z =    0.000000 angstrom
                   Q00  =  -0.000000

Finished at 18:25:5 on 26 Apr 2020

  DMA results are available in the Python driver through the
	  variable('DMA DISTRIBUTED MULTIPOLES')
  and
	  variable('DMA TOTAL MULTIPOLES')
  commands.

    Psi4 stopped on: Sunday, 26 April 2020 06:25PM
    Psi4 wall time for execution: 0:00:31.00

*** Psi4 exiting successfully. Buy a developer a beer!
