                               Psi4 1.3.2 release

  ==> Input File <==

--------------------------------------------------------------------------
import numpy as np
set {scf_type pk
basis cc-pvdz
d_convergence 10
gdma_switch   0
gdma_limit    0
gdma_origin   [ 0.0,  0.0,  0.0 ]
}
molecule test {
    units Angstrom
    0 1
    --
    0 1
    C                1.301523866578707    -1.827173731041676     0.072471509220404
    C                1.667523866578706    -1.172173731041676     1.420471509220404
    H                2.129523866578707    -2.424173731041676    -0.300528490779596
    H                0.440523866578707    -2.480173731041676     0.218471509220404
    H                1.031523866578707    -1.075173731041676    -0.664528490779596
    H                1.782523866578707    -1.977173731041675     2.147471509220404
    H                0.836523866578706    -0.546173731041676     1.748471509220404
    H                2.591497866578707    -0.575396731041676     1.409090509220404
    C               -1.029476133421294     0.880826268958324    -0.635528490779596
    C               -1.939476133421294     2.128826268958324    -0.856528490779596
    H               -1.125476133421293     0.505826268958324     0.380471509220404
    H               -1.247476133421294     0.086826268958324    -1.350528490779596
    H                0.005523866578707     1.174826268958324    -0.798528490779596
    H               -1.878476133421293     2.380826268958324    -1.914528490779596
    H               -1.597039233421293     2.986326268958324    -0.258667490779596
    H               -2.970310133421294     1.820933268958324    -0.627216490779596

}
e, wfn = energy('scf', return_wfn=True)
gdma(wfn)
dmavals = variable('DMA DISTRIBUTED MULTIPOLES')
charges = np.array(dmavals)
print(charges)
np.save('SSI-059ILE-068ILE-1-dimer.npy', np.array(charges))--------------------------------------------------------------------------

*** tstart() called on ds3
*** at Mon Apr 27 13:53:48 2020

   => Loading Basis Set <=

    Name: CC-PVDZ
    Role: ORBITAL
    Keyword: BASIS
    atoms 1-2, 9-10  entry C          line   138 file /theoryfs2/ds/metcalf/miniconda2/envs/tf2gpu/share/psi4/basis/cc-pvdz.gbs
    atoms 3-8, 11-16 entry H          line    22 file /theoryfs2/ds/metcalf/miniconda2/envs/tf2gpu/share/psi4/basis/cc-pvdz.gbs

         ---------------------------------------------------------
                                   SCF
               by Justin Turney, Rob Parrish, Andy Simmonett
                          and Daniel G. A. Smith
                              RHF Reference
                        1 Threads,    500 MiB Core
         ---------------------------------------------------------

  ==> Geometry <==

    Molecular point group: c1
    Full point group: C1

    Geometry (in Angstrom), charge = 0, multiplicity = 1:

       Center              X                  Y                   Z               Mass
    ------------   -----------------  -----------------  -----------------  -----------------
         C            1.301523866579    -1.827173731042     0.072471509220    12.000000000000
         C            1.667523866579    -1.172173731042     1.420471509220    12.000000000000
         H            2.129523866579    -2.424173731042    -0.300528490780     1.007825032230
         H            0.440523866579    -2.480173731042     0.218471509220     1.007825032230
         H            1.031523866579    -1.075173731042    -0.664528490780     1.007825032230
         H            1.782523866579    -1.977173731042     2.147471509220     1.007825032230
         H            0.836523866579    -0.546173731042     1.748471509220     1.007825032230
         H            2.591497866579    -0.575396731042     1.409090509220     1.007825032230
         C           -1.029476133421     0.880826268958    -0.635528490780    12.000000000000
         C           -1.939476133421     2.128826268958    -0.856528490780    12.000000000000
         H           -1.125476133421     0.505826268958     0.380471509220     1.007825032230
         H           -1.247476133421     0.086826268958    -1.350528490780     1.007825032230
         H            0.005523866579     1.174826268958    -0.798528490780     1.007825032230
         H           -1.878476133421     2.380826268958    -1.914528490780     1.007825032230
         H           -1.597039233421     2.986326268958    -0.258667490780     1.007825032230
         H           -2.970310133421     1.820933268958    -0.627216490780     1.007825032230

  Running in c1 symmetry.

  Rotational constants: A =      0.51935  B =      0.05067  C =      0.04784 [cm^-1]
  Rotational constants: A =  15569.85970  B =   1519.10072  C =   1434.20690 [MHz]
  Nuclear repulsion =  122.842026038157073

  Charge       = 0
  Multiplicity = 1
  Electrons    = 36
  Nalpha       = 18
  Nbeta        = 18

  ==> Algorithm <==

  SCF Algorithm Type is PK.
  DIIS enabled.
  MOM disabled.
  Fractional occupation disabled.
  Guess Type is SAD.
  Energy threshold   = 1.00e-06
  Density threshold  = 1.00e-10
  Integral threshold = 0.00e+00

  ==> Primary Basis <==

  Basis Set: CC-PVDZ
    Blend: CC-PVDZ
    Number of shells: 60
    Number of basis function: 116
    Number of Cartesian functions: 120
    Spherical Harmonics?: true
    Max angular momentum: 2

  ==> Pre-Iterations <==

   -------------------------------------------------------
    Irrep   Nso     Nmo     Nalpha   Nbeta   Ndocc  Nsocc
   -------------------------------------------------------
     A        116     116       0       0       0       0
   -------------------------------------------------------
    Total     116     116      18      18      18       0
   -------------------------------------------------------

  ==> Integral Setup <==

  Using integral reordering PK algorithm.
  Sizing the integral batches needed.
  Building batch lookup table.
   Calculation information:
      Number of atoms:                  16
      Number of AO shells:              60
      Number of primitives:            148
      Number of atomic orbitals:       120
      Number of basis functions:       116

      Integral cutoff                 1.00e-12
      Number of threads:                 1

	Batch   1 pq = [       0,    6786] index = [             0,23028291] size =     23028291
  Task number: 3
  Buffer size: 11059200
  Buffer per thread: 2
  We computed 1447036 shell quartets total.
  Whereas there are 1675365 unique shell quartets.

  ==> DiskJK: Disk-Based J/K Matrices <==

    J tasked:                  Yes
    K tasked:                  Yes
    wK tasked:                  No
    Memory [MiB]:              375
    Schwarz Cutoff:          1E-12

    OpenMP threads:              1

  Minimum eigenvalue in the overlap matrix is 6.7595706978E-03.
  Using Symmetric Orthogonalization.

  SCF Guess: Superposition of Atomic Densities via on-the-fly atomic UHF.

  ==> Iterations <==

                        Total Energy        Delta E     RMS |[F,P]|

   @RHF iter SAD:  -157.29514880323995   -1.57295e+02   0.00000e+00
   @RHF iter   1:  -158.30957227051056   -1.01442e+00   4.14325e-03 DIIS
   @RHF iter   2:  -158.44009472629364   -1.30522e-01   1.74138e-03 DIIS
   @RHF iter   3:  -158.46225006701746   -2.21553e-02   3.46130e-04 DIIS
   @RHF iter   4:  -158.46404419905559   -1.79413e-03   3.85036e-05 DIIS
   @RHF iter   5:  -158.46406754156010   -2.33425e-05   6.59317e-06 DIIS
   @RHF iter   6:  -158.46406818297621   -6.41416e-07   1.18270e-06 DIIS
   @RHF iter   7:  -158.46406819707741   -1.41012e-08   3.36259e-07 DIIS
   @RHF iter   8:  -158.46406819817295   -1.09554e-09   4.70306e-08 DIIS
   @RHF iter   9:  -158.46406819820953   -3.65787e-11   1.05552e-08 DIIS
   @RHF iter  10:  -158.46406819821189   -2.35900e-12   2.82170e-09 DIIS
   @RHF iter  11:  -158.46406819821215   -2.55795e-13   8.37413e-10 DIIS
   @RHF iter  12:  -158.46406819821200    1.42109e-13   1.88592e-10 DIIS
   @RHF iter  13:  -158.46406819821198    2.84217e-14   3.09968e-11 DIIS
  Energy and wave function converged.

  ==> Post-Iterations <==

    Orbital Energies [Eh]
    ---------------------

    Doubly Occupied:

       1A    -11.222581     2A    -11.218764     3A    -11.218206
       4A    -11.215754     5A     -1.014883     6A     -1.011080
       7A     -0.841014     8A     -0.837172     9A     -0.598769
      10A     -0.597715    11A     -0.594381    12A     -0.592403
      13A     -0.500653    14A     -0.497499    15A     -0.491200
      16A     -0.487254    17A     -0.484821    18A     -0.478255

    Virtual:

      19A      0.174065    20A      0.195879    21A      0.227272
      22A      0.236646    23A      0.244078    24A      0.258453
      25A      0.261789    26A      0.273246    27A      0.286011
      28A      0.289018    29A      0.326087    30A      0.345736
      31A      0.381865    32A      0.405359    33A      0.569655
      34A      0.582666    35A      0.597785    36A      0.603262
      37A      0.610724    38A      0.647781    39A      0.678018
      40A      0.688745    41A      0.731153    42A      0.745104
      43A      0.837996    44A      0.862711    45A      0.888090
      46A      0.891257    47A      0.892643    48A      0.897528
      49A      0.902080    50A      0.911300    51A      0.915353
      52A      0.938546    53A      0.942306    54A      0.957549
      55A      0.971021    56A      1.013333    57A      1.118498
      58A      1.123713    59A      1.132776    60A      1.141879
      61A      1.233042    62A      1.261208    63A      1.452820
      64A      1.459900    65A      1.483341    66A      1.489337
      67A      1.579396    68A      1.581280    69A      1.671035
      70A      1.688012    71A      1.695455    72A      1.700028
      73A      1.846772    74A      1.856724    75A      1.864421
      76A      1.877443    77A      1.891124    78A      1.902772
      79A      1.929970    80A      1.933548    81A      1.937924
      82A      1.946704    83A      1.953286    84A      1.963322
      85A      1.965669    86A      1.971995    87A      1.990580
      88A      2.047593    89A      2.089476    90A      2.098231
      91A      2.129866    92A      2.137718    93A      2.289285
      94A      2.302923    95A      2.317416    96A      2.328850
      97A      2.438512    98A      2.448213    99A      2.468765
     100A      2.476479   101A      2.546721   102A      2.565902
     103A      2.579388   104A      2.587274   105A      2.764241
     106A      2.771582   107A      2.788432   108A      2.800192
     109A      2.825183   110A      2.843026   111A      2.861683
     112A      2.870490   113A      2.931921   114A      2.952329
     115A      2.961445   116A      2.974998

    Final Occupation by Irrep:
              A
    DOCC [    18 ]

  @RHF Final Energy:  -158.46406819821198

   => Energetics <=

    Nuclear Repulsion Energy =            122.8420260381570728
    One-Electron Energy =                -454.8073803272950499
    Two-Electron Energy =                 173.5012860909259871
    Total Energy =                       -158.4640681982119759

Computation Completed

Properties will be evaluated at   0.000000,   0.000000,   0.000000 [a0]

Properties computed using the SCF density matrix

  Nuclear Dipole Moment: [e a0]
     X:    -0.0011      Y:    -0.1150      Z:    -0.0099

  Electronic Dipole Moment: [e a0]
     X:    -0.0101      Y:     0.1160      Z:    -0.0095

  Dipole Moment: [e a0]
     X:    -0.0111      Y:     0.0010      Z:    -0.0194     Total:     0.0224

  Dipole Moment: [D]
     X:    -0.0283      Y:     0.0025      Z:    -0.0492     Total:     0.0568

*** tstop() called on ds3 at Mon Apr 27 13:53:58 2020
Module time:
	user time   =       7.71 seconds =       0.13 minutes
	system time =       3.17 seconds =       0.05 minutes
	total time  =         10 seconds =       0.17 minutes
Total time:
	user time   =       7.71 seconds =       0.13 minutes
	system time =       3.17 seconds =       0.05 minutes
	total time  =         10 seconds =       0.17 minutes
                                     G D M A

                                 by Anthony Stone

                           version 2.2.06, 22 June 2011

               Distributed Multipoles from Gaussian wavefunctions

Starting at 13:53:58 on 27 Apr 2020

Using SCF density matrix from file ./SSI/SSI-059ILE-068ILE-1-dimer.test.8143.fchk

                         Distributed Multipole Analysis

Standard DMA

Positions and radii in angstrom
Multipole moments in atomic units, ea_0^k for rank k

C          x =  1.301524  y = -1.827174  z =  0.072472 angstrom
           Maximum rank =  0   Radius =  0.650 angstrom
                   Q00  =  -0.244753

C          x =  1.667524  y = -1.172174  z =  1.420472 angstrom
           Maximum rank =  0   Radius =  0.650 angstrom
                   Q00  =  -0.239577

H          x =  2.129524  y = -2.424174  z = -0.300528 angstrom
           Maximum rank =  0   Radius =  0.325 angstrom
                   Q00  =   0.080627

H          x =  0.440524  y = -2.480174  z =  0.218472 angstrom
           Maximum rank =  0   Radius =  0.325 angstrom
                   Q00  =   0.078918

H          x =  1.031524  y = -1.075174  z = -0.664528 angstrom
           Maximum rank =  0   Radius =  0.325 angstrom
                   Q00  =   0.085612

H          x =  1.782524  y = -1.977174  z =  2.147472 angstrom
           Maximum rank =  0   Radius =  0.325 angstrom
                   Q00  =   0.076422

H          x =  0.836524  y = -0.546174  z =  1.748472 angstrom
           Maximum rank =  0   Radius =  0.325 angstrom
                   Q00  =   0.079667

H          x =  2.591498  y = -0.575397  z =  1.409091 angstrom
           Maximum rank =  0   Radius =  0.325 angstrom
                   Q00  =   0.082950

C          x = -1.029476  y =  0.880826  z = -0.635528 angstrom
           Maximum rank =  0   Radius =  0.650 angstrom
                   Q00  =  -0.265450

C          x = -1.939476  y =  2.128826  z = -0.856528 angstrom
           Maximum rank =  0   Radius =  0.650 angstrom
                   Q00  =  -0.226163

H          x = -1.125476  y =  0.505826  z =  0.380472 angstrom
           Maximum rank =  0   Radius =  0.325 angstrom
                   Q00  =   0.083258

H          x = -1.247476  y =  0.086826  z = -1.350528 angstrom
           Maximum rank =  0   Radius =  0.325 angstrom
                   Q00  =   0.083144

H          x =  0.005524  y =  1.174826  z = -0.798528 angstrom
           Maximum rank =  0   Radius =  0.325 angstrom
                   Q00  =   0.075848

H          x = -1.878476  y =  2.380826  z = -1.914528 angstrom
           Maximum rank =  0   Radius =  0.325 angstrom
                   Q00  =   0.081266

H          x = -1.597039  y =  2.986326  z = -0.258667 angstrom
           Maximum rank =  0   Radius =  0.325 angstrom
                   Q00  =   0.087071

H          x = -2.970310  y =  1.820933  z = -0.627216 angstrom
           Maximum rank =  0   Radius =  0.325 angstrom
                   Q00  =   0.081160

Total multipoles referred to origin at
           x =   0.000000,  y =    0.000000,  z =    0.000000 angstrom
                   Q00  =  -0.000000

Finished at 13:53:58 on 27 Apr 2020

  DMA results are available in the Python driver through the
	  variable('DMA DISTRIBUTED MULTIPOLES')
  and
	  variable('DMA TOTAL MULTIPOLES')
  commands.

    Psi4 stopped on: Monday, 27 April 2020 01:53PM
    Psi4 wall time for execution: 0:00:10.73

*** Psi4 exiting successfully. Buy a developer a beer!
