                               Psi4 1.3.2 release

  ==> Input File <==

--------------------------------------------------------------------------
import numpy as np
set {scf_type pk
basis cc-pvdz
d_convergence 10
gdma_switch   0
gdma_limit    0
gdma_origin   [ 0.0,  0.0,  0.0 ]
}
molecule test {
    units Angstrom
    0 1
    --
    0 1
    C                1.536500587015928    -2.832498943064515     0.505420478690202
    C               -0.013499412984072     0.641501056935485     0.731420478690202
    C                0.193500587015928    -0.722498943064515     0.865420478690202
    C                0.932500587015928     1.415501056935485     0.063420478690202
    C                1.331500587015928    -1.338498943064515     0.348420478690202
    C                2.061500587015928     0.820501056935485    -0.471579521309798
    C                2.259500587015928    -0.544498943064515    -0.340579521309798
    O                0.733500587015928     2.754501056935485    -0.069579521309798
    H               -0.916499412984072     1.088501056935485     1.112420478690202
    H               -0.548499412984072    -1.323498943064515     1.378420478690202
    H               -0.171499412984072     2.942501056935485     0.162420478690202
    H                2.788500587015928     1.428501056935485    -0.991579521309798
    H                1.199500587015928    -3.124498943064515     1.501420478690202
    H                2.601500587015928    -3.055498943064515     0.437420478690202
    H                3.148500587015928    -0.995498943064515    -0.762579521309798
    H                0.976320587015928    -3.426608943064515    -0.231621521309798
    C               -3.304499412984072    -0.339498943064515    -0.960579521309798
    C               -4.715499412984071    -0.116498943064515    -0.490579521309798
    H               -2.969499412984072    -1.345498943064515    -0.709579521309798
    H               -3.263499412984072    -0.235498943064515    -2.044579521309798
    H               -2.638499412984072     0.390501056935485    -0.503579521309798
    H               -5.343499412984071    -0.851498943064515    -0.957579521309798
    H               -5.007499412984071     0.860501056935485    -0.873579521309798
    H               -4.848349412984072    -0.151498943064515     0.600807478690202

}
e, wfn = energy('scf', return_wfn=True)
gdma(wfn)
dmavals = variable('DMA DISTRIBUTED MULTIPOLES')
charges = np.array(dmavals)
print(charges)
np.save('SSI-202TYR-212ILE-1-dimer.npy', np.array(charges))--------------------------------------------------------------------------

*** tstart() called on ds3
*** at Mon Apr 27 21:16:29 2020

   => Loading Basis Set <=

    Name: CC-PVDZ
    Role: ORBITAL
    Keyword: BASIS
    atoms 1-7, 17-18  entry C          line   138 file /theoryfs2/ds/metcalf/miniconda2/envs/tf2gpu/share/psi4/basis/cc-pvdz.gbs
    atoms 8           entry O          line   198 file /theoryfs2/ds/metcalf/miniconda2/envs/tf2gpu/share/psi4/basis/cc-pvdz.gbs
    atoms 9-16, 19-24 entry H          line    22 file /theoryfs2/ds/metcalf/miniconda2/envs/tf2gpu/share/psi4/basis/cc-pvdz.gbs

         ---------------------------------------------------------
                                   SCF
               by Justin Turney, Rob Parrish, Andy Simmonett
                          and Daniel G. A. Smith
                              RHF Reference
                        1 Threads,    500 MiB Core
         ---------------------------------------------------------

  ==> Geometry <==

    Molecular point group: c1
    Full point group: C1

    Geometry (in Angstrom), charge = 0, multiplicity = 1:

       Center              X                  Y                   Z               Mass
    ------------   -----------------  -----------------  -----------------  -----------------
         C            1.536500587016    -2.832498943065     0.505420478690    12.000000000000
         C           -0.013499412984     0.641501056935     0.731420478690    12.000000000000
         C            0.193500587016    -0.722498943065     0.865420478690    12.000000000000
         C            0.932500587016     1.415501056935     0.063420478690    12.000000000000
         C            1.331500587016    -1.338498943065     0.348420478690    12.000000000000
         C            2.061500587016     0.820501056935    -0.471579521310    12.000000000000
         C            2.259500587016    -0.544498943065    -0.340579521310    12.000000000000
         O            0.733500587016     2.754501056935    -0.069579521310    15.994914619570
         H           -0.916499412984     1.088501056935     1.112420478690     1.007825032230
         H           -0.548499412984    -1.323498943065     1.378420478690     1.007825032230
         H           -0.171499412984     2.942501056935     0.162420478690     1.007825032230
         H            2.788500587016     1.428501056935    -0.991579521310     1.007825032230
         H            1.199500587016    -3.124498943065     1.501420478690     1.007825032230
         H            2.601500587016    -3.055498943065     0.437420478690     1.007825032230
         H            3.148500587016    -0.995498943065    -0.762579521310     1.007825032230
         H            0.976320587016    -3.426608943065    -0.231621521310     1.007825032230
         C           -3.304499412984    -0.339498943065    -0.960579521310    12.000000000000
         C           -4.715499412984    -0.116498943065    -0.490579521310    12.000000000000
         H           -2.969499412984    -1.345498943065    -0.709579521310     1.007825032230
         H           -3.263499412984    -0.235498943065    -2.044579521310     1.007825032230
         H           -2.638499412984     0.390501056935    -0.503579521310     1.007825032230
         H           -5.343499412984    -0.851498943065    -0.957579521310     1.007825032230
         H           -5.007499412984     0.860501056935    -0.873579521310     1.007825032230
         H           -4.848349412984    -0.151498943065     0.600807478690     1.007825032230

  Running in c1 symmetry.

  Rotational constants: A =      0.04431  B =      0.02212  C =      0.01591 [cm^-1]
  Rotational constants: A =   1328.27441  B =    663.04239  C =    476.94715 [MHz]
  Nuclear repulsion =  488.762282689345795

  Charge       = 0
  Multiplicity = 1
  Electrons    = 76
  Nalpha       = 38
  Nbeta        = 38

  ==> Algorithm <==

  SCF Algorithm Type is PK.
  DIIS enabled.
  MOM disabled.
  Fractional occupation disabled.
  Guess Type is SAD.
  Energy threshold   = 1.00e-06
  Density threshold  = 1.00e-10
  Integral threshold = 0.00e+00

  ==> Primary Basis <==

  Basis Set: CC-PVDZ
    Blend: CC-PVDZ
    Number of shells: 102
    Number of basis function: 210
    Number of Cartesian functions: 220
    Spherical Harmonics?: true
    Max angular momentum: 2

  ==> Pre-Iterations <==

   -------------------------------------------------------
    Irrep   Nso     Nmo     Nalpha   Nbeta   Ndocc  Nsocc
   -------------------------------------------------------
     A        210     210       0       0       0       0
   -------------------------------------------------------
    Total     210     210      38      38      38       0
   -------------------------------------------------------

  ==> Integral Setup <==

  Using integral reordering PK algorithm.
  Sizing the integral batches needed.
  Building batch lookup table.
   Calculation information:
      Number of atoms:                  24
      Number of AO shells:             102
      Number of primitives:            290
      Number of atomic orbitals:       220
      Number of basis functions:       210

      Integral cutoff                 1.00e-12
      Number of threads:                 1

	Batch   1 pq = [       0,    9405] index = [             0,44231715] size =     44231715
	Batch   2 pq = [    9405,   13301] index = [      44231715,88464951] size =     44233236
	Batch   3 pq = [   13301,   16290] index = [      88464951,132690195] size =     44225244
	Batch   4 pq = [   16290,   18810] index = [     132690195,176917455] size =     44227260
	Batch   5 pq = [   18810,   21030] index = [     176917455,221140965] size =     44223510
	Batch   6 pq = [   21030,   22155] index = [     221140965,245433090] size =     24292125
  Task number: 23
  Buffer size: 11059200
  Buffer per thread: 2
  We computed 11139866 shell quartets total.
  Whereas there are 13799631 unique shell quartets.

  ==> DiskJK: Disk-Based J/K Matrices <==

    J tasked:                  Yes
    K tasked:                  Yes
    wK tasked:                  No
    Memory [MiB]:              375
    Schwarz Cutoff:          1E-12

    OpenMP threads:              1

  Minimum eigenvalue in the overlap matrix is 3.1698024315E-04.
  Using Symmetric Orthogonalization.

  SCF Guess: Superposition of Atomic Densities via on-the-fly atomic UHF.

  ==> Iterations <==

                        Total Energy        Delta E     RMS |[F,P]|

   @RHF iter SAD:  -422.76781592677804   -4.22768e+02   0.00000e+00
   @RHF iter   1:  -423.59716977126612   -8.29354e-01   3.00731e-03 DIIS
   @RHF iter   2:  -423.81652099815864   -2.19351e-01   1.26784e-03 DIIS
   @RHF iter   3:  -423.85192323514264   -3.54022e-02   2.82849e-04 DIIS
   @RHF iter   4:  -423.85478105291389   -2.85782e-03   1.16362e-04 DIIS
   @RHF iter   5:  -423.85512815161792   -3.47099e-04   2.07354e-05 DIIS
   @RHF iter   6:  -423.85514542193209   -1.72703e-05   6.23214e-06 DIIS
   @RHF iter   7:  -423.85514696216006   -1.54023e-06   1.98513e-06 DIIS
   @RHF iter   8:  -423.85514716095702   -1.98797e-07   7.20199e-07 DIIS
   @RHF iter   9:  -423.85514719055078   -2.95938e-08   2.84984e-07 DIIS
   @RHF iter  10:  -423.85514719585996   -5.30918e-09   1.16046e-07 DIIS
   @RHF iter  11:  -423.85514719742599   -1.56604e-09   5.36231e-08 DIIS
   @RHF iter  12:  -423.85514719776410   -3.38105e-10   2.64425e-08 DIIS
   @RHF iter  13:  -423.85514719783538   -7.12816e-11   7.97022e-09 DIIS
   @RHF iter  14:  -423.85514719784123   -5.85487e-12   2.15017e-09 DIIS
   @RHF iter  15:  -423.85514719784032    9.09495e-13   6.71016e-10 DIIS
   @RHF iter  16:  -423.85514719784032    0.00000e+00   2.12177e-10 DIIS
   @RHF iter  17:  -423.85514719784101   -6.82121e-13   8.29022e-11 DIIS
  Energy and wave function converged.

  ==> Post-Iterations <==

    Orbital Energies [Eh]
    ---------------------

    Doubly Occupied:

       1A    -20.582876     2A    -11.297070     3A    -11.238230
       4A    -11.237776     5A    -11.234117     6A    -11.232288
       7A    -11.229122     8A    -11.227878     9A    -11.216300
      10A    -11.215055    11A     -1.405201    12A     -1.151320
      13A     -1.035837    14A     -1.027953    15A     -1.019607
      16A     -0.925723    17A     -0.844732    18A     -0.837354
      19A     -0.801495    20A     -0.731247    21A     -0.670408
      22A     -0.641600    23A     -0.608820    24A     -0.605986
      25A     -0.602739    26A     -0.588405    27A     -0.586557
      28A     -0.570370    29A     -0.566367    30A     -0.528291
      31A     -0.508093    32A     -0.498542    33A     -0.488219
      34A     -0.483752    35A     -0.481302    36A     -0.467198
      37A     -0.339632    38A     -0.301484

    Virtual:

      39A      0.129882    40A      0.153061    41A      0.166356
      42A      0.183826    43A      0.198806    44A      0.214839
      45A      0.223681    46A      0.240302    47A      0.252889
      48A      0.258731    49A      0.262453    50A      0.271268
      51A      0.282700    52A      0.288692    53A      0.294761
      54A      0.331766    55A      0.369105    56A      0.381602
      57A      0.402566    58A      0.430889    59A      0.454297
      60A      0.482445    61A      0.499017    62A      0.506696
      63A      0.582815    64A      0.601370    65A      0.602643
      66A      0.613665    67A      0.635246    68A      0.650803
      69A      0.659532    70A      0.661523    71A      0.668387
      72A      0.694751    73A      0.699375    74A      0.716814
      75A      0.734502    76A      0.735786    77A      0.764359
      78A      0.772021    79A      0.788066    80A      0.794092
      81A      0.805042    82A      0.838345    83A      0.848233
      84A      0.859458    85A      0.876262    86A      0.879327
      87A      0.887539    88A      0.888534    89A      0.892073
      90A      0.895893    91A      0.904701    92A      0.907161
      93A      0.918755    94A      0.927391    95A      0.937129
      96A      0.938381    97A      0.944764    98A      0.972160
      99A      0.994737   100A      1.014817   101A      1.034702
     102A      1.066123   103A      1.120156   104A      1.130765
     105A      1.134942   106A      1.142517   107A      1.146483
     108A      1.170353   109A      1.203121   110A      1.237453
     111A      1.243899   112A      1.265542   113A      1.269424
     114A      1.278867   115A      1.299658   116A      1.309292
     117A      1.325200   118A      1.352836   119A      1.370871
     120A      1.380792   121A      1.461189   122A      1.472243
     123A      1.496701   124A      1.502477   125A      1.519500
     126A      1.549804   127A      1.585100   128A      1.614294
     129A      1.618002   130A      1.679429   131A      1.682899
     132A      1.696328   133A      1.703448   134A      1.733234
     135A      1.750379   136A      1.781879   137A      1.799691
     138A      1.805206   139A      1.859016   140A      1.861414
     141A      1.876483   142A      1.884378   143A      1.894593
     144A      1.905416   145A      1.915869   146A      1.920517
     147A      1.922273   148A      1.939499   149A      1.946272
     150A      1.955225   151A      1.958069   152A      1.967959
     153A      1.979442   154A      1.982807   155A      1.994145
     156A      1.995436   157A      2.039529   158A      2.050644
     159A      2.068503   160A      2.071421   161A      2.072130
     162A      2.095456   163A      2.136424   164A      2.139097
     165A      2.148845   166A      2.166481   167A      2.201793
     168A      2.234940   169A      2.260064   170A      2.277866
     171A      2.302713   172A      2.308194   173A      2.320430
     174A      2.327011   175A      2.360783   176A      2.422006
     177A      2.455403   178A      2.465011   179A      2.475710
     180A      2.487829   181A      2.499385   182A      2.540098
     183A      2.543292   184A      2.562809   185A      2.597164
     186A      2.599140   187A      2.645156   188A      2.752245
     189A      2.769606   190A      2.778543   191A      2.789813
     192A      2.803046   193A      2.810886   194A      2.839772
     195A      2.855481   196A      2.882237   197A      2.901336
     198A      2.953847   199A      2.968830   200A      2.988654
     201A      3.005858   202A      3.090678   203A      3.107164
     204A      3.281118   205A      3.286137   206A      3.347606
     207A      3.585294   208A      3.696494   209A      3.958365
     210A      4.194662

    Final Occupation by Irrep:
              A
    DOCC [    38 ]

  @RHF Final Energy:  -423.85514719784101

   => Energetics <=

    Nuclear Repulsion Energy =            488.7622826893457955
    One-Electron Energy =               -1543.1769637616146156
    Two-Electron Energy =                 630.5595338744278706
    Total Energy =                       -423.8551471978410063

Computation Completed

Properties will be evaluated at   0.000000,   0.000000,   0.000000 [a0]

Properties computed using the SCF density matrix

  Nuclear Dipole Moment: [e a0]
     X:   -14.0520      Y:    -7.2982      Z:    -1.7644

  Electronic Dipole Moment: [e a0]
     X:    13.5848      Y:     6.9878      Z:     1.8902

  Dipole Moment: [e a0]
     X:    -0.4672      Y:    -0.3104      Z:     0.1258     Total:     0.5748

  Dipole Moment: [D]
     X:    -1.1874      Y:    -0.7890      Z:     0.3197     Total:     1.4611

*** tstop() called on ds3 at Mon Apr 27 21:18:56 2020
Module time:
	user time   =      83.10 seconds =       1.39 minutes
	system time =      37.73 seconds =       0.63 minutes
	total time  =        147 seconds =       2.45 minutes
Total time:
	user time   =      83.10 seconds =       1.39 minutes
	system time =      37.73 seconds =       0.63 minutes
	total time  =        147 seconds =       2.45 minutes
                                     G D M A

                                 by Anthony Stone

                           version 2.2.06, 22 June 2011

               Distributed Multipoles from Gaussian wavefunctions

Starting at 21:18:56 on 27 Apr 2020

Using SCF density matrix from file ./SSI/SSI-202TYR-212ILE-1-dimer.test.30346.fchk

                         Distributed Multipole Analysis

Standard DMA

Positions and radii in angstrom
Multipole moments in atomic units, ea_0^k for rank k

C          x =  1.536501  y = -2.832499  z =  0.505420 angstrom
           Maximum rank =  0   Radius =  0.650 angstrom
                   Q00  =  -0.197732

C          x = -0.013499  y =  0.641501  z =  0.731420 angstrom
           Maximum rank =  0   Radius =  0.650 angstrom
                   Q00  =  -0.182749

C          x =  0.193501  y = -0.722499  z =  0.865420 angstrom
           Maximum rank =  0   Radius =  0.650 angstrom
                   Q00  =   0.052994

C          x =  0.932501  y =  1.415501  z =  0.063420 angstrom
           Maximum rank =  0   Radius =  0.650 angstrom
                   Q00  =   0.306671

C          x =  1.331501  y = -1.338499  z =  0.348420 angstrom
           Maximum rank =  0   Radius =  0.650 angstrom
                   Q00  =  -0.144305

C          x =  2.061501  y =  0.820501  z = -0.471580 angstrom
           Maximum rank =  0   Radius =  0.650 angstrom
                   Q00  =  -0.100948

C          x =  2.259501  y = -0.544499  z = -0.340580 angstrom
           Maximum rank =  0   Radius =  0.650 angstrom
                   Q00  =  -0.049285

O          x =  0.733501  y =  2.754501  z = -0.069580 angstrom
           Maximum rank =  0   Radius =  0.650 angstrom
                   Q00  =  -0.659655

H          x = -0.916499  y =  1.088501  z =  1.112420 angstrom
           Maximum rank =  0   Radius =  0.325 angstrom
                   Q00  =   0.071807

H          x = -0.548499  y = -1.323499  z =  1.378420 angstrom
           Maximum rank =  0   Radius =  0.325 angstrom
                   Q00  =   0.066911

H          x = -0.171499  y =  2.942501  z =  0.162420 angstrom
           Maximum rank =  0   Radius =  0.325 angstrom
                   Q00  =   0.398556

H          x =  2.788501  y =  1.428501  z = -0.991580 angstrom
           Maximum rank =  0   Radius =  0.325 angstrom
                   Q00  =   0.078800

H          x =  1.199501  y = -3.124499  z =  1.501420 angstrom
           Maximum rank =  0   Radius =  0.325 angstrom
                   Q00  =   0.095607

H          x =  2.601501  y = -3.055499  z =  0.437420 angstrom
           Maximum rank =  0   Radius =  0.325 angstrom
                   Q00  =   0.098439

H          x =  3.148501  y = -0.995499  z = -0.762580 angstrom
           Maximum rank =  0   Radius =  0.325 angstrom
                   Q00  =   0.064011

H          x =  0.976321  y = -3.426609  z = -0.231622 angstrom
           Maximum rank =  0   Radius =  0.325 angstrom
                   Q00  =   0.100379

C          x = -3.304499  y = -0.339499  z = -0.960580 angstrom
           Maximum rank =  0   Radius =  0.650 angstrom
                   Q00  =  -0.217749

C          x = -4.715499  y = -0.116499  z = -0.490580 angstrom
           Maximum rank =  0   Radius =  0.650 angstrom
                   Q00  =  -0.234836

H          x = -2.969499  y = -1.345499  z = -0.709580 angstrom
           Maximum rank =  0   Radius =  0.325 angstrom
                   Q00  =   0.074428

H          x = -3.263499  y = -0.235499  z = -2.044580 angstrom
           Maximum rank =  0   Radius =  0.325 angstrom
                   Q00  =   0.079466

H          x = -2.638499  y =  0.390501  z = -0.503580 angstrom
           Maximum rank =  0   Radius =  0.325 angstrom
                   Q00  =   0.071650

H          x = -5.343499  y = -0.851499  z = -0.957580 angstrom
           Maximum rank =  0   Radius =  0.325 angstrom
                   Q00  =   0.079851

H          x = -5.007499  y =  0.860501  z = -0.873580 angstrom
           Maximum rank =  0   Radius =  0.325 angstrom
                   Q00  =   0.070552

H          x = -4.848349  y = -0.151499  z =  0.600807 angstrom
           Maximum rank =  0   Radius =  0.325 angstrom
                   Q00  =   0.077139

Total multipoles referred to origin at
           x =   0.000000,  y =    0.000000,  z =    0.000000 angstrom
                   Q00  =  -0.000000

Finished at 21:18:56 on 27 Apr 2020

  DMA results are available in the Python driver through the
	  variable('DMA DISTRIBUTED MULTIPOLES')
  and
	  variable('DMA TOTAL MULTIPOLES')
  commands.

    Psi4 stopped on: Monday, 27 April 2020 09:18PM
    Psi4 wall time for execution: 0:02:27.46

*** Psi4 exiting successfully. Buy a developer a beer!
