                               Psi4 1.3.2 release

  ==> Input File <==

--------------------------------------------------------------------------
import numpy as np
set {scf_type pk
basis cc-pvdz
d_convergence 10
gdma_switch   0
gdma_limit    0
gdma_origin   [ 0.0,  0.0,  0.0 ]
}
molecule test {
    units Angstrom
    0 1
    --
    0 1
    C                0.903168245508875    -1.428907997591103    -0.213234501341151
    C                2.147168245508876    -2.253907997591103    -0.522234501341151
    H                0.412168245508875    -1.149907997591103    -1.147234501341151
    H                0.206168245508875    -2.016907997591103     0.382765498658849
    H                1.185168245508875    -0.522907997591103     0.326765498658849
    H                2.655168245508876    -2.420907997591104     0.420765498658849
    H                2.829418245508875    -1.721037997591103    -1.200894501341151
    H                1.822278245508876    -3.239467997591103    -0.887094501341151
    C               -1.140831754491125     1.656092002408897    -0.272234501341151
    C               -1.902831754491125     2.032092002408897     1.002765498658849
    H               -0.094831754491125     1.960092002408897    -0.205234501341151
    H               -1.181831754491125     0.577092002408897    -0.405234501341151
    H               -1.593831754491124     2.125092002408897    -1.142234501341151
    H               -2.916831754491125     1.656092002408897     0.899765498658849
    H               -1.962215754491125     3.122922002408897     1.131435498658849
    H               -1.440280754491124     1.565932002408897     1.885225498658849

}
e, wfn = energy('scf', return_wfn=True)
gdma(wfn)
dmavals = variable('DMA DISTRIBUTED MULTIPOLES')
charges = np.array(dmavals)
print(charges)
np.save('SSI-049LEU-054VAL-1-dimer.npy', np.array(charges))--------------------------------------------------------------------------

*** tstart() called on ds3
*** at Mon Apr 27 08:53:19 2020

   => Loading Basis Set <=

    Name: CC-PVDZ
    Role: ORBITAL
    Keyword: BASIS
    atoms 1-2, 9-10  entry C          line   138 file /theoryfs2/ds/metcalf/miniconda2/envs/tf2gpu/share/psi4/basis/cc-pvdz.gbs
    atoms 3-8, 11-16 entry H          line    22 file /theoryfs2/ds/metcalf/miniconda2/envs/tf2gpu/share/psi4/basis/cc-pvdz.gbs

         ---------------------------------------------------------
                                   SCF
               by Justin Turney, Rob Parrish, Andy Simmonett
                          and Daniel G. A. Smith
                              RHF Reference
                        1 Threads,    500 MiB Core
         ---------------------------------------------------------

  ==> Geometry <==

    Molecular point group: c1
    Full point group: C1

    Geometry (in Angstrom), charge = 0, multiplicity = 1:

       Center              X                  Y                   Z               Mass
    ------------   -----------------  -----------------  -----------------  -----------------
         C            0.903168245509    -1.428907997591    -0.213234501341    12.000000000000
         C            2.147168245509    -2.253907997591    -0.522234501341    12.000000000000
         H            0.412168245509    -1.149907997591    -1.147234501341     1.007825032230
         H            0.206168245509    -2.016907997591     0.382765498659     1.007825032230
         H            1.185168245509    -0.522907997591     0.326765498659     1.007825032230
         H            2.655168245509    -2.420907997591     0.420765498659     1.007825032230
         H            2.829418245509    -1.721037997591    -1.200894501341     1.007825032230
         H            1.822278245509    -3.239467997591    -0.887094501341     1.007825032230
         C           -1.140831754491     1.656092002409    -0.272234501341    12.000000000000
         C           -1.902831754491     2.032092002409     1.002765498659    12.000000000000
         H           -0.094831754491     1.960092002409    -0.205234501341     1.007825032230
         H           -1.181831754491     0.577092002409    -0.405234501341     1.007825032230
         H           -1.593831754491     2.125092002409    -1.142234501341     1.007825032230
         H           -2.916831754491     1.656092002409     0.899765498659     1.007825032230
         H           -1.962215754491     3.122922002409     1.131435498659     1.007825032230
         H           -1.440280754491     1.565932002409     1.885225498659     1.007825032230

  Running in c1 symmetry.

  Rotational constants: A =      0.66654  B =      0.04322  C =      0.04212 [cm^-1]
  Rotational constants: A =  19982.25306  B =   1295.84794  C =   1262.65883 [MHz]
  Nuclear repulsion =  120.968959468103648

  Charge       = 0
  Multiplicity = 1
  Electrons    = 36
  Nalpha       = 18
  Nbeta        = 18

  ==> Algorithm <==

  SCF Algorithm Type is PK.
  DIIS enabled.
  MOM disabled.
  Fractional occupation disabled.
  Guess Type is SAD.
  Energy threshold   = 1.00e-06
  Density threshold  = 1.00e-10
  Integral threshold = 0.00e+00

  ==> Primary Basis <==

  Basis Set: CC-PVDZ
    Blend: CC-PVDZ
    Number of shells: 60
    Number of basis function: 116
    Number of Cartesian functions: 120
    Spherical Harmonics?: true
    Max angular momentum: 2

  ==> Pre-Iterations <==

   -------------------------------------------------------
    Irrep   Nso     Nmo     Nalpha   Nbeta   Ndocc  Nsocc
   -------------------------------------------------------
     A        116     116       0       0       0       0
   -------------------------------------------------------
    Total     116     116      18      18      18       0
   -------------------------------------------------------

  ==> Integral Setup <==

  Using integral reordering PK algorithm.
  Sizing the integral batches needed.
  Building batch lookup table.
   Calculation information:
      Number of atoms:                  16
      Number of AO shells:              60
      Number of primitives:            148
      Number of atomic orbitals:       120
      Number of basis functions:       116

      Integral cutoff                 1.00e-12
      Number of threads:                 1

	Batch   1 pq = [       0,    6786] index = [             0,23028291] size =     23028291
  Task number: 3
  Buffer size: 11059200
  Buffer per thread: 2
  We computed 1385326 shell quartets total.
  Whereas there are 1675365 unique shell quartets.

  ==> DiskJK: Disk-Based J/K Matrices <==

    J tasked:                  Yes
    K tasked:                  Yes
    wK tasked:                  No
    Memory [MiB]:              375
    Schwarz Cutoff:          1E-12

    OpenMP threads:              1

  Minimum eigenvalue in the overlap matrix is 6.4011520069E-03.
  Using Symmetric Orthogonalization.

  SCF Guess: Superposition of Atomic Densities via on-the-fly atomic UHF.

  ==> Iterations <==

                        Total Energy        Delta E     RMS |[F,P]|

   @RHF iter SAD:  -157.35840704201863   -1.57358e+02   0.00000e+00
   @RHF iter   1:  -158.30580519913030   -9.47398e-01   4.21912e-03 DIIS
   @RHF iter   2:  -158.43957104300523   -1.33766e-01   1.79461e-03 DIIS
   @RHF iter   3:  -158.46295043647467   -2.33794e-02   3.50119e-04 DIIS
   @RHF iter   4:  -158.46478794920563   -1.83751e-03   3.89853e-05 DIIS
   @RHF iter   5:  -158.46481202532038   -2.40761e-05   6.59136e-06 DIIS
   @RHF iter   6:  -158.46481267720003   -6.51880e-07   1.04118e-06 DIIS
   @RHF iter   7:  -158.46481268845221   -1.12522e-08   3.16543e-07 DIIS
   @RHF iter   8:  -158.46481268934079   -8.88576e-10   4.37587e-08 DIIS
   @RHF iter   9:  -158.46481268937168   -3.08944e-11   9.08892e-09 DIIS
   @RHF iter  10:  -158.46481268937364   -1.96110e-12   2.28654e-09 DIIS
   @RHF iter  11:  -158.46481268937319    4.54747e-13   6.20651e-10 DIIS
   @RHF iter  12:  -158.46481268937347   -2.84217e-13   1.82380e-10 DIIS
   @RHF iter  13:  -158.46481268937322    2.55795e-13   2.79153e-11 DIIS
  Energy and wave function converged.

  ==> Post-Iterations <==

    Orbital Energies [Eh]
    ---------------------

    Doubly Occupied:

       1A    -11.218268     2A    -11.218053     3A    -11.216142
       4A    -11.214862     5A     -1.020685     6A     -1.015919
       7A     -0.838959     8A     -0.832621     9A     -0.604488
      10A     -0.597657    11A     -0.596400    12A     -0.594381
      13A     -0.503305    14A     -0.497535    15A     -0.491896
      16A     -0.484503    17A     -0.482340    18A     -0.477917

    Virtual:

      19A      0.175477    20A      0.193788    21A      0.228513
      22A      0.234664    23A      0.240702    24A      0.257646
      25A      0.266141    26A      0.275666    27A      0.284853
      28A      0.287208    29A      0.303875    30A      0.323645
      31A      0.396456    32A      0.412513    33A      0.578552
      34A      0.591791    35A      0.599861    36A      0.601884
      37A      0.614899    38A      0.636440    39A      0.670208
      40A      0.678710    41A      0.690891    42A      0.781257
      43A      0.848151    44A      0.876992    45A      0.887182
      46A      0.891938    47A      0.893739    48A      0.896378
      49A      0.902474    50A      0.902793    51A      0.919459
      52A      0.922694    53A      0.929818    54A      0.949847
      55A      0.971859    56A      0.999096    57A      1.122285
      58A      1.124829    59A      1.128317    60A      1.151695
      61A      1.235338    62A      1.246843    63A      1.465573
      64A      1.473614    65A      1.484690    66A      1.495810
      67A      1.573427    68A      1.585972    69A      1.672658
      70A      1.684599    71A      1.690324    72A      1.701854
      73A      1.838776    74A      1.863427    75A      1.868393
      76A      1.879599    77A      1.894845    78A      1.921354
      79A      1.931257    80A      1.944486    81A      1.948895
      82A      1.949385    83A      1.954575    84A      1.957790
      85A      1.967645    86A      1.978553    87A      1.989430
      88A      2.018977    89A      2.089940    90A      2.101906
      91A      2.120518    92A      2.145122    93A      2.291845
      94A      2.303616    95A      2.315205    96A      2.325962
      97A      2.437506    98A      2.453567    99A      2.474628
     100A      2.490934   101A      2.560225   102A      2.566366
     103A      2.577590   104A      2.583115   105A      2.762267
     106A      2.766181   107A      2.784194   108A      2.797156
     109A      2.829364   110A      2.855928   111A      2.857954
     112A      2.866654   113A      2.931743   114A      2.951961
     115A      2.968067   116A      2.980145

    Final Occupation by Irrep:
              A
    DOCC [    18 ]

  @RHF Final Energy:  -158.46481268937322

   => Energetics <=

    Nuclear Repulsion Energy =            120.9689594681036482
    One-Electron Energy =                -451.0556800619035585
    Two-Electron Energy =                 171.6219079044266778
    Total Energy =                       -158.4648126893732183

Computation Completed

Properties will be evaluated at   0.000000,   0.000000,   0.000000 [a0]

Properties computed using the SCF density matrix

  Nuclear Dipole Moment: [e a0]
     X:    -0.0745      Y:    -0.0599      Z:     0.0551

  Electronic Dipole Moment: [e a0]
     X:     0.0694      Y:     0.0397      Z:    -0.0549

  Dipole Moment: [e a0]
     X:    -0.0051      Y:    -0.0202      Z:     0.0002     Total:     0.0208

  Dipole Moment: [D]
     X:    -0.0130      Y:    -0.0513      Z:     0.0005     Total:     0.0530

*** tstop() called on ds3 at Mon Apr 27 08:53:30 2020
Module time:
	user time   =       7.45 seconds =       0.12 minutes
	system time =       3.16 seconds =       0.05 minutes
	total time  =         11 seconds =       0.18 minutes
Total time:
	user time   =       7.45 seconds =       0.12 minutes
	system time =       3.16 seconds =       0.05 minutes
	total time  =         11 seconds =       0.18 minutes
                                     G D M A

                                 by Anthony Stone

                           version 2.2.06, 22 June 2011

               Distributed Multipoles from Gaussian wavefunctions

Starting at 8:53:30 on 27 Apr 2020

Using SCF density matrix from file ./SSI/SSI-049LEU-054VAL-1-dimer.test.1219.fchk

                         Distributed Multipole Analysis

Standard DMA

Positions and radii in angstrom
Multipole moments in atomic units, ea_0^k for rank k

C          x =  0.903168  y = -1.428908  z = -0.213235 angstrom
           Maximum rank =  0   Radius =  0.650 angstrom
                   Q00  =  -0.238069

C          x =  2.147168  y = -2.253908  z = -0.522235 angstrom
           Maximum rank =  0   Radius =  0.650 angstrom
                   Q00  =  -0.204359

H          x =  0.412168  y = -1.149908  z = -1.147235 angstrom
           Maximum rank =  0   Radius =  0.325 angstrom
                   Q00  =   0.075275

H          x =  0.206168  y = -2.016908  z =  0.382765 angstrom
           Maximum rank =  0   Radius =  0.325 angstrom
                   Q00  =   0.078939

H          x =  1.185168  y = -0.522908  z =  0.326765 angstrom
           Maximum rank =  0   Radius =  0.325 angstrom
                   Q00  =   0.078783

H          x =  2.655168  y = -2.420908  z =  0.420765 angstrom
           Maximum rank =  0   Radius =  0.325 angstrom
                   Q00  =   0.075917

H          x =  2.829418  y = -1.721038  z = -1.200895 angstrom
           Maximum rank =  0   Radius =  0.325 angstrom
                   Q00  =   0.070653

H          x =  1.822278  y = -3.239468  z = -0.887094 angstrom
           Maximum rank =  0   Radius =  0.325 angstrom
                   Q00  =   0.064816

C          x = -1.140832  y =  1.656092  z = -0.272235 angstrom
           Maximum rank =  0   Radius =  0.650 angstrom
                   Q00  =  -0.239915

C          x = -1.902832  y =  2.032092  z =  1.002765 angstrom
           Maximum rank =  0   Radius =  0.650 angstrom
                   Q00  =  -0.237806

H          x = -0.094832  y =  1.960092  z = -0.205235 angstrom
           Maximum rank =  0   Radius =  0.325 angstrom
                   Q00  =   0.077650

H          x = -1.181832  y =  0.577092  z = -0.405235 angstrom
           Maximum rank =  0   Radius =  0.325 angstrom
                   Q00  =   0.082930

H          x = -1.593832  y =  2.125092  z = -1.142235 angstrom
           Maximum rank =  0   Radius =  0.325 angstrom
                   Q00  =   0.079295

H          x = -2.916832  y =  1.656092  z =  0.899765 angstrom
           Maximum rank =  0   Radius =  0.325 angstrom
                   Q00  =   0.077147

H          x = -1.962216  y =  3.122922  z =  1.131435 angstrom
           Maximum rank =  0   Radius =  0.325 angstrom
                   Q00  =   0.078963

H          x = -1.440281  y =  1.565932  z =  1.885226 angstrom
           Maximum rank =  0   Radius =  0.325 angstrom
                   Q00  =   0.079782

Total multipoles referred to origin at
           x =   0.000000,  y =    0.000000,  z =    0.000000 angstrom
                   Q00  =  -0.000000

Finished at 8:53:30 on 27 Apr 2020

  DMA results are available in the Python driver through the
	  variable('DMA DISTRIBUTED MULTIPOLES')
  and
	  variable('DMA TOTAL MULTIPOLES')
  commands.

    Psi4 stopped on: Monday, 27 April 2020 08:53AM
    Psi4 wall time for execution: 0:00:10.42

*** Psi4 exiting successfully. Buy a developer a beer!
