                               Psi4 1.3.2 release

  ==> Input File <==

--------------------------------------------------------------------------
import numpy as np
set {scf_type pk
basis cc-pvdz
d_convergence 10
gdma_switch   0
gdma_limit    0
gdma_origin   [ 0.0,  0.0,  0.0 ]
}
molecule test {
    units Angstrom
    -1 1
    --
    -1 1
    C               -2.250202966495254    -0.024633831586167    -0.320372970663048
    C               -2.305202966495255    -0.426633831586167     1.190627029336952
    C               -1.808202966495255     1.430366168413833    -0.582372970663048
    H               -1.544202966495255    -0.687633831586167    -0.818372970663048
    H               -3.224202966495255    -0.186633831586167    -0.778372970663048
    H               -1.318202966495255    -0.262633831586167     1.626627029336952
    H               -2.510202966495255    -1.497633831586167     1.238627029336952
    H               -2.496202966495254     2.106366168413833    -0.071372970663048
    H               -0.815202966495255     1.567366168413833    -0.151372970663048
    H               -3.054608966495255     0.107526168413833     1.793177029336952
    H               -1.781023966495255     1.707156168413833    -1.646631970663048
    C                1.313797033504745    -1.647633831586167    -0.166372970663048
    C                1.606797033504745    -0.165633831586167    -0.076372970663048
    O                1.712797033504745     0.496366168413833    -1.134372970663048
    O                1.695797033504745     0.329366168413833     1.057627029336952
    H                0.365797033504745    -1.856633831586167     0.333627029336952
    H                2.065797033504745    -2.209633831586167     0.370627029336952
    H                1.210783033504745    -1.960273831586167    -1.215963970663048

}
e, wfn = energy('scf', return_wfn=True)
gdma(wfn)
dmavals = variable('DMA DISTRIBUTED MULTIPOLES')
charges = np.array(dmavals)
print(charges)
np.save('SSI-188LYS-225GLU-1-dimer.npy', np.array(charges))--------------------------------------------------------------------------

*** tstart() called on ds3
*** at Sun Apr 26 18:05:36 2020

   => Loading Basis Set <=

    Name: CC-PVDZ
    Role: ORBITAL
    Keyword: BASIS
    atoms 1-3, 12-13  entry C          line   138 file /theoryfs2/ds/metcalf/miniconda2/envs/tf2gpu/share/psi4/basis/cc-pvdz.gbs
    atoms 4-11, 16-18 entry H          line    22 file /theoryfs2/ds/metcalf/miniconda2/envs/tf2gpu/share/psi4/basis/cc-pvdz.gbs
    atoms 14-15       entry O          line   198 file /theoryfs2/ds/metcalf/miniconda2/envs/tf2gpu/share/psi4/basis/cc-pvdz.gbs

         ---------------------------------------------------------
                                   SCF
               by Justin Turney, Rob Parrish, Andy Simmonett
                          and Daniel G. A. Smith
                              RHF Reference
                        1 Threads,    500 MiB Core
         ---------------------------------------------------------

  ==> Geometry <==

    Molecular point group: c1
    Full point group: C1

    Geometry (in Angstrom), charge = -1, multiplicity = 1:

       Center              X                  Y                   Z               Mass
    ------------   -----------------  -----------------  -----------------  -----------------
         C           -2.250202966495    -0.024633831586    -0.320372970663    12.000000000000
         C           -2.305202966495    -0.426633831586     1.190627029337    12.000000000000
         C           -1.808202966495     1.430366168414    -0.582372970663    12.000000000000
         H           -1.544202966495    -0.687633831586    -0.818372970663     1.007825032230
         H           -3.224202966495    -0.186633831586    -0.778372970663     1.007825032230
         H           -1.318202966495    -0.262633831586     1.626627029337     1.007825032230
         H           -2.510202966495    -1.497633831586     1.238627029337     1.007825032230
         H           -2.496202966495     2.106366168414    -0.071372970663     1.007825032230
         H           -0.815202966495     1.567366168414    -0.151372970663     1.007825032230
         H           -3.054608966495     0.107526168414     1.793177029337     1.007825032230
         H           -1.781023966495     1.707156168414    -1.646631970663     1.007825032230
         C            1.313797033505    -1.647633831586    -0.166372970663    12.000000000000
         C            1.606797033505    -0.165633831586    -0.076372970663    12.000000000000
         O            1.712797033505     0.496366168414    -1.134372970663    15.994914619570
         O            1.695797033505     0.329366168414     1.057627029337    15.994914619570
         H            0.365797033505    -1.856633831586     0.333627029337     1.007825032230
         H            2.065797033505    -2.209633831586     0.370627029337     1.007825032230
         H            1.210783033505    -1.960273831586    -1.215963970663     1.007825032230

  Running in c1 symmetry.

  Rotational constants: A =      0.10648  B =      0.04041  C =      0.03635 [cm^-1]
  Rotational constants: A =   3192.13583  B =   1211.53265  C =   1089.87067 [MHz]
  Nuclear repulsion =  299.087669805849998

  Charge       = -1
  Multiplicity = 1
  Electrons    = 58
  Nalpha       = 29
  Nbeta        = 29

  ==> Algorithm <==

  SCF Algorithm Type is PK.
  DIIS enabled.
  MOM disabled.
  Fractional occupation disabled.
  Guess Type is SAD.
  Energy threshold   = 1.00e-06
  Density threshold  = 1.00e-10
  Integral threshold = 0.00e+00

  ==> Primary Basis <==

  Basis Set: CC-PVDZ
    Blend: CC-PVDZ
    Number of shells: 75
    Number of basis function: 153
    Number of Cartesian functions: 160
    Spherical Harmonics?: true
    Max angular momentum: 2

  ==> Pre-Iterations <==

   -------------------------------------------------------
    Irrep   Nso     Nmo     Nalpha   Nbeta   Ndocc  Nsocc
   -------------------------------------------------------
     A        153     153       0       0       0       0
   -------------------------------------------------------
    Total     153     153      29      29      29       0
   -------------------------------------------------------

  ==> Integral Setup <==

  Using integral reordering PK algorithm.
  Sizing the integral batches needed.
  Building batch lookup table.
   Calculation information:
      Number of atoms:                  18
      Number of AO shells:              75
      Number of primitives:            209
      Number of atomic orbitals:       160
      Number of basis functions:       153

      Integral cutoff                 1.00e-12
      Number of threads:                 1

	Batch   1 pq = [       0,    9405] index = [             0,44231715] size =     44231715
	Batch   2 pq = [    9405,   11781] index = [      44231715,69401871] size =     25170156
  Task number: 7
  Buffer size: 11059200
  Buffer per thread: 2
  We computed 3946836 shell quartets total.
  Whereas there are 4062675 unique shell quartets.

  ==> DiskJK: Disk-Based J/K Matrices <==

    J tasked:                  Yes
    K tasked:                  Yes
    wK tasked:                  No
    Memory [MiB]:              375
    Schwarz Cutoff:          1E-12

    OpenMP threads:              1

  Minimum eigenvalue in the overlap matrix is 5.2379240771E-03.
  Using Symmetric Orthogonalization.

  SCF Guess: Superposition of Atomic Densities via on-the-fly atomic UHF.

  ==> Iterations <==

                        Total Energy        Delta E     RMS |[F,P]|

   @RHF iter SAD:  -343.82234584212142   -3.43822e+02   0.00000e+00
   @RHF iter   1:  -345.22196579691092   -1.39962e+00   4.91813e-03 DIIS
   @RHF iter   2:  -345.44702687577700   -2.25061e-01   2.69906e-03 DIIS
   @RHF iter   3:  -345.51092603130292   -6.38992e-02   4.17858e-04 DIIS
   @RHF iter   4:  -345.51382471315037   -2.89868e-03   1.60044e-04 DIIS
   @RHF iter   5:  -345.51423017147971   -4.05458e-04   2.38510e-05 DIIS
   @RHF iter   6:  -345.51424206486143   -1.18934e-05   7.00786e-06 DIIS
   @RHF iter   7:  -345.51424286741099   -8.02550e-07   2.31179e-06 DIIS
   @RHF iter   8:  -345.51424294666936   -7.92584e-08   8.04030e-07 DIIS
   @RHF iter   9:  -345.51424295623758   -9.56823e-09   2.24080e-07 DIIS
   @RHF iter  10:  -345.51424295769704   -1.45945e-09   7.17338e-08 DIIS
   @RHF iter  11:  -345.51424295789451   -1.97474e-10   2.24567e-08 DIIS
   @RHF iter  12:  -345.51424295791770   -2.31921e-11   7.77569e-09 DIIS
   @RHF iter  13:  -345.51424295791958   -1.87583e-12   2.70193e-09 DIIS
   @RHF iter  14:  -345.51424295792009   -5.11591e-13   8.66160e-10 DIIS
   @RHF iter  15:  -345.51424295791963    4.54747e-13   3.02240e-10 DIIS
   @RHF iter  16:  -345.51424295792015   -5.11591e-13   1.02155e-10 DIIS
   @RHF iter  17:  -345.51424295792003    1.13687e-13   3.72668e-11 DIIS
  Energy and wave function converged.

  ==> Post-Iterations <==

    Orbital Energies [Eh]
    ---------------------

    Doubly Occupied:

       1A    -20.257796     2A    -20.257265     3A    -11.112699
       4A    -11.103010     5A    -11.102242     6A    -11.086219
       7A    -11.047225     8A     -1.150998     9A     -1.037018
      10A     -0.920726    11A     -0.800463    12A     -0.797339
      13A     -0.676786    14A     -0.500712    15A     -0.497021
      16A     -0.467725    17A     -0.425385    18A     -0.414739
      19A     -0.406683    20A     -0.405541    21A     -0.401215
      22A     -0.349834    23A     -0.347347    24A     -0.343953
      25A     -0.341204    26A     -0.301512    27A     -0.181602
      28A     -0.171388    29A     -0.160257

    Virtual:

      30A      0.297954    31A      0.338912    32A      0.344629
      33A      0.361835    34A      0.369436    35A      0.398857
      36A      0.402336    37A      0.413514    38A      0.429405
      39A      0.432653    40A      0.462074    41A      0.484752
      42A      0.502561    43A      0.542901    44A      0.579490
      45A      0.680562    46A      0.697233    47A      0.724204
      48A      0.739404    49A      0.746633    50A      0.774459
      51A      0.794130    52A      0.837451    53A      0.886994
      54A      0.918818    55A      0.935005    56A      0.959303
      57A      0.968670    58A      0.983081    59A      0.991862
      60A      1.012800    61A      1.017627    62A      1.026605
      63A      1.030938    64A      1.049452    65A      1.051707
      66A      1.069736    67A      1.077955    68A      1.095078
      69A      1.111389    70A      1.120665    71A      1.151389
      72A      1.170440    73A      1.243840    74A      1.256864
      75A      1.261294    76A      1.325933    77A      1.337525
      78A      1.378689    79A      1.393204    80A      1.478927
      81A      1.534094    82A      1.558658    83A      1.576947
      84A      1.578796    85A      1.605340    86A      1.632667
      87A      1.649788    88A      1.679670    89A      1.694410
      90A      1.737761    91A      1.751785    92A      1.799071
      93A      1.820464    94A      1.829884    95A      1.845252
      96A      1.871408    97A      1.961750    98A      1.975547
      99A      2.019804   100A      2.031882   101A      2.049206
     102A      2.059866   103A      2.074987   104A      2.080468
     105A      2.094349   106A      2.103976   107A      2.109726
     108A      2.112973   109A      2.125591   110A      2.141902
     111A      2.150858   112A      2.167099   113A      2.221799
     114A      2.239427   115A      2.279502   116A      2.314582
     117A      2.339315   118A      2.397939   119A      2.426580
     120A      2.436201   121A      2.448675   122A      2.463268
     123A      2.491640   124A      2.595629   125A      2.635143
     126A      2.641721   127A      2.659141   128A      2.704359
     129A      2.728410   130A      2.739219   131A      2.765915
     132A      2.792610   133A      2.873478   134A      2.912010
     135A      2.926435   136A      2.932515   137A      2.940163
     138A      2.991942   139A      3.006650   140A      3.043456
     141A      3.091165   142A      3.105077   143A      3.175474
     144A      3.242821   145A      3.277435   146A      3.303825
     147A      3.367198   148A      3.639702   149A      3.806478
     150A      3.843130   151A      4.071832   152A      4.096074
     153A      4.202852

    Final Occupation by Irrep:
              A
    DOCC [    29 ]

  @RHF Final Energy:  -345.51424295792003

   => Energetics <=

    Nuclear Repulsion Energy =            299.0876698058499983
    One-Electron Energy =               -1075.0720217226148634
    Two-Electron Energy =                 430.4701089588447758
    Total Energy =                       -345.5142429579200325

Computation Completed

Properties will be evaluated at   0.000000,   0.000000,   0.000000 [a0]

Properties computed using the SCF density matrix

  Nuclear Dipole Moment: [e a0]
     X:   -12.2659      Y:    -2.9703      Z:     0.6377

  Electronic Dipole Moment: [e a0]
     X:     9.5810      Y:     1.9675      Z:    -0.5744

  Dipole Moment: [e a0]
     X:    -2.6848      Y:    -1.0028      Z:     0.0633     Total:     2.8667

  Dipole Moment: [D]
     X:    -6.8241      Y:    -2.5490      Z:     0.1609     Total:     7.2864

*** tstop() called on ds3 at Sun Apr 26 18:06:17 2020
Module time:
	user time   =      30.09 seconds =       0.50 minutes
	system time =      11.84 seconds =       0.20 minutes
	total time  =         41 seconds =       0.68 minutes
Total time:
	user time   =      30.09 seconds =       0.50 minutes
	system time =      11.84 seconds =       0.20 minutes
	total time  =         41 seconds =       0.68 minutes
                                     G D M A

                                 by Anthony Stone

                           version 2.2.06, 22 June 2011

               Distributed Multipoles from Gaussian wavefunctions

Starting at 18:6:17 on 26 Apr 2020

Using SCF density matrix from file ./SSI/SSI-188LYS-225GLU-1-dimer.test.10630.fchk

                         Distributed Multipole Analysis

Standard DMA

Positions and radii in angstrom
Multipole moments in atomic units, ea_0^k for rank k

C          x = -2.250203  y = -0.024634  z = -0.320373 angstrom
           Maximum rank =  0   Radius =  0.650 angstrom
                   Q00  =  -0.066838

C          x = -2.305203  y = -0.426634  z =  1.190627 angstrom
           Maximum rank =  0   Radius =  0.650 angstrom
                   Q00  =  -0.242948

C          x = -1.808203  y =  1.430366  z = -0.582373 angstrom
           Maximum rank =  0   Radius =  0.650 angstrom
                   Q00  =  -0.229496

H          x = -1.544203  y = -0.687634  z = -0.818373 angstrom
           Maximum rank =  0   Radius =  0.325 angstrom
                   Q00  =   0.066852

H          x = -3.224203  y = -0.186634  z = -0.778373 angstrom
           Maximum rank =  0   Radius =  0.325 angstrom
                   Q00  =   0.005791

H          x = -1.318203  y = -0.262634  z =  1.626627 angstrom
           Maximum rank =  0   Radius =  0.325 angstrom
                   Q00  =   0.099556

H          x = -2.510203  y = -1.497634  z =  1.238627 angstrom
           Maximum rank =  0   Radius =  0.325 angstrom
                   Q00  =   0.061250

H          x = -2.496203  y =  2.106366  z = -0.071373 angstrom
           Maximum rank =  0   Radius =  0.325 angstrom
                   Q00  =   0.030510

H          x = -0.815203  y =  1.567366  z = -0.151373 angstrom
           Maximum rank =  0   Radius =  0.325 angstrom
                   Q00  =   0.134481

H          x = -3.054609  y =  0.107526  z =  1.793177 angstrom
           Maximum rank =  0   Radius =  0.325 angstrom
                   Q00  =   0.055518

H          x = -1.781024  y =  1.707156  z = -1.646632 angstrom
           Maximum rank =  0   Radius =  0.325 angstrom
                   Q00  =   0.075391

C          x =  1.313797  y = -1.647634  z = -0.166373 angstrom
           Maximum rank =  0   Radius =  0.650 angstrom
                   Q00  =  -0.281238

C          x =  1.606797  y = -0.165634  z = -0.076373 angstrom
           Maximum rank =  0   Radius =  0.650 angstrom
                   Q00  =   0.974247

O          x =  1.712797  y =  0.496366  z = -1.134373 angstrom
           Maximum rank =  0   Radius =  0.650 angstrom
                   Q00  =  -0.940675

O          x =  1.695797  y =  0.329366  z =  1.057627 angstrom
           Maximum rank =  0   Radius =  0.650 angstrom
                   Q00  =  -0.926009

H          x =  0.365797  y = -1.856634  z =  0.333627 angstrom
           Maximum rank =  0   Radius =  0.325 angstrom
                   Q00  =   0.064772

H          x =  2.065797  y = -2.209634  z =  0.370627 angstrom
           Maximum rank =  0   Radius =  0.325 angstrom
                   Q00  =   0.072443

H          x =  1.210783  y = -1.960274  z = -1.215964 angstrom
           Maximum rank =  0   Radius =  0.325 angstrom
                   Q00  =   0.046393

Total multipoles referred to origin at
           x =   0.000000,  y =    0.000000,  z =    0.000000 angstrom
                   Q00  =  -1.000000

Finished at 18:6:17 on 26 Apr 2020

  DMA results are available in the Python driver through the
	  variable('DMA DISTRIBUTED MULTIPOLES')
  and
	  variable('DMA TOTAL MULTIPOLES')
  commands.

    Psi4 stopped on: Sunday, 26 April 2020 06:06PM
    Psi4 wall time for execution: 0:00:41.18

*** Psi4 exiting successfully. Buy a developer a beer!
