                               Psi4 1.3.2 release

  ==> Input File <==

--------------------------------------------------------------------------
import numpy as np
set {scf_type pk
basis cc-pvdz
d_convergence 10
gdma_switch   0
gdma_limit    0
gdma_origin   [ 0.0,  0.0,  0.0 ]
}
molecule test {
    units Angstrom
    1 1
    --
    1 1
    C               -0.519253149331071    -1.674120309243978     1.410971586483397
    C               -0.722253149331071    -2.893120309243978     2.464971586483397
    C               -2.567253149331071    -0.242120309243978     1.422971586483397
    N               -1.345253149331071    -0.532120309243978     1.852971586483397
    N               -3.127253149331071    -0.933120309243978     0.446971586483397
    N               -3.218253149331071     0.773879690756022     1.958971586483397
    H                0.534746850668929    -1.393120309243978     1.421971586483397
    H               -0.776253149331071    -2.003120309243978     0.403971586483397
    H               -1.802253149331071    -3.015120309243978     2.551971586483397
    H               -0.414253149331071    -2.557120309243978     3.453971586483397
    H               -0.937253149331071     0.056879690756022     2.571971586483397
    H               -2.646253149331070    -1.721120309243978     0.049971586483397
    H               -4.054253149331071    -0.701120309243978     0.127971586483397
    H               -2.792253149331071     1.304879690756022     2.701971586483397
    H               -4.142253149331070     1.014879690756022     1.639971586483397
    H               -0.354202149331071    -3.909770309243978     2.262581586483397
    C                0.269746850668929     0.048879690756022    -3.831028413516604
    C                0.268746850668929     0.382879690756022    -1.349028413516603
    C                0.972746850668929     0.388879690756022    -2.543028413516603
    C                0.894746850668929     0.707879690756022    -0.157028413516603
    C                2.207746850668929     1.067879690756022    -0.131028413516603
    C                2.310746850668929     0.783879690756022    -2.518028413516603
    C                2.924746850668929     1.122879690756022    -1.303028413516603
    O                2.743746850668930     1.382879690756022     1.093971586483397
    H               -0.783253149331071     0.124879690756022    -1.344028413516603
    H                0.333746850668929     0.785879690756022     0.749971586483397
    H               -0.185253149331071    -0.935120309243978    -3.710028413516604
    H                0.994746850668929    -0.016120309243978    -4.642028413516603
    H                2.880746850668929     0.824879690756022    -3.436028413516603
    H                2.087746850668929     1.236879690756022     1.805971586483397
    H                3.959746850668929     1.425879690756022    -1.281028413516603
    H               -0.513719149331071     0.781309690756022    -4.075408413516604

}
e, wfn = energy('scf', return_wfn=True)
gdma(wfn)
dmavals = variable('DMA DISTRIBUTED MULTIPOLES')
charges = np.array(dmavals)
print(charges)
np.save('SSI-046ARG-092TYR-1-dimer.npy', np.array(charges))--------------------------------------------------------------------------

*** tstart() called on ds3
*** at Mon Apr 27 13:31:06 2020

   => Loading Basis Set <=

    Name: CC-PVDZ
    Role: ORBITAL
    Keyword: BASIS
    atoms 1-3, 17-23  entry C          line   138 file /theoryfs2/ds/metcalf/miniconda2/envs/tf2gpu/share/psi4/basis/cc-pvdz.gbs
    atoms 4-6         entry N          line   168 file /theoryfs2/ds/metcalf/miniconda2/envs/tf2gpu/share/psi4/basis/cc-pvdz.gbs
    atoms 7-16, 25-32 entry H          line    22 file /theoryfs2/ds/metcalf/miniconda2/envs/tf2gpu/share/psi4/basis/cc-pvdz.gbs
    atoms 24          entry O          line   198 file /theoryfs2/ds/metcalf/miniconda2/envs/tf2gpu/share/psi4/basis/cc-pvdz.gbs

         ---------------------------------------------------------
                                   SCF
               by Justin Turney, Rob Parrish, Andy Simmonett
                          and Daniel G. A. Smith
                              RHF Reference
                        1 Threads,    500 MiB Core
         ---------------------------------------------------------

  ==> Geometry <==

    Molecular point group: c1
    Full point group: C1

    Geometry (in Angstrom), charge = 1, multiplicity = 1:

       Center              X                  Y                   Z               Mass
    ------------   -----------------  -----------------  -----------------  -----------------
         C           -0.519253149331    -1.674120309244     1.410971586483    12.000000000000
         C           -0.722253149331    -2.893120309244     2.464971586483    12.000000000000
         C           -2.567253149331    -0.242120309244     1.422971586483    12.000000000000
         N           -1.345253149331    -0.532120309244     1.852971586483    14.003074004430
         N           -3.127253149331    -0.933120309244     0.446971586483    14.003074004430
         N           -3.218253149331     0.773879690756     1.958971586483    14.003074004430
         H            0.534746850669    -1.393120309244     1.421971586483     1.007825032230
         H           -0.776253149331    -2.003120309244     0.403971586483     1.007825032230
         H           -1.802253149331    -3.015120309244     2.551971586483     1.007825032230
         H           -0.414253149331    -2.557120309244     3.453971586483     1.007825032230
         H           -0.937253149331     0.056879690756     2.571971586483     1.007825032230
         H           -2.646253149331    -1.721120309244     0.049971586483     1.007825032230
         H           -4.054253149331    -0.701120309244     0.127971586483     1.007825032230
         H           -2.792253149331     1.304879690756     2.701971586483     1.007825032230
         H           -4.142253149331     1.014879690756     1.639971586483     1.007825032230
         H           -0.354202149331    -3.909770309244     2.262581586483     1.007825032230
         C            0.269746850669     0.048879690756    -3.831028413517    12.000000000000
         C            0.268746850669     0.382879690756    -1.349028413517    12.000000000000
         C            0.972746850669     0.388879690756    -2.543028413517    12.000000000000
         C            0.894746850669     0.707879690756    -0.157028413517    12.000000000000
         C            2.207746850669     1.067879690756    -0.131028413517    12.000000000000
         C            2.310746850669     0.783879690756    -2.518028413517    12.000000000000
         C            2.924746850669     1.122879690756    -1.303028413517    12.000000000000
         O            2.743746850669     1.382879690756     1.093971586483    15.994914619570
         H           -0.783253149331     0.124879690756    -1.344028413517     1.007825032230
         H            0.333746850669     0.785879690756     0.749971586483     1.007825032230
         H           -0.185253149331    -0.935120309244    -3.710028413517     1.007825032230
         H            0.994746850669    -0.016120309244    -4.642028413517     1.007825032230
         H            2.880746850669     0.824879690756    -3.436028413517     1.007825032230
         H            2.087746850669     1.236879690756     1.805971586483     1.007825032230
         H            3.959746850669     1.425879690756    -1.281028413517     1.007825032230
         H           -0.513719149331     0.781309690756    -4.075408413517     1.007825032230

  Running in c1 symmetry.

  Rotational constants: A =      0.02781  B =      0.01162  C =      0.01006 [cm^-1]
  Rotational constants: A =    833.78498  B =    348.36909  C =    301.64827 [MHz]
  Nuclear repulsion =  890.327627257760582

  Charge       = 1
  Multiplicity = 1
  Electrons    = 106
  Nalpha       = 53
  Nbeta        = 53

  ==> Algorithm <==

  SCF Algorithm Type is PK.
  DIIS enabled.
  MOM disabled.
  Fractional occupation disabled.
  Guess Type is SAD.
  Energy threshold   = 1.00e-06
  Density threshold  = 1.00e-10
  Integral threshold = 0.00e+00

  ==> Primary Basis <==

  Basis Set: CC-PVDZ
    Blend: CC-PVDZ
    Number of shells: 138
    Number of basis function: 286
    Number of Cartesian functions: 300
    Spherical Harmonics?: true
    Max angular momentum: 2

  ==> Pre-Iterations <==

   -------------------------------------------------------
    Irrep   Nso     Nmo     Nalpha   Nbeta   Ndocc  Nsocc
   -------------------------------------------------------
     A        286     286       0       0       0       0
   -------------------------------------------------------
    Total     286     286      53      53      53       0
   -------------------------------------------------------

  ==> Integral Setup <==

  Using integral reordering PK algorithm.
  Sizing the integral batches needed.
  Building batch lookup table.
   Calculation information:
      Number of atoms:                  32
      Number of AO shells:             138
      Number of primitives:            398
      Number of atomic orbitals:       300
      Number of basis functions:       286

      Integral cutoff                 1.00e-12
      Number of threads:                 1

	Batch   1 pq = [       0,    9405] index = [             0,44231715] size =     44231715
	Batch   2 pq = [    9405,   13301] index = [      44231715,88464951] size =     44233236
	Batch   3 pq = [   13301,   16290] index = [      88464951,132690195] size =     44225244
	Batch   4 pq = [   16290,   18810] index = [     132690195,176917455] size =     44227260
	Batch   5 pq = [   18810,   21030] index = [     176917455,221140965] size =     44223510
	Batch   6 pq = [   21030,   23037] index = [     221140965,265363203] size =     44222238
	Batch   7 pq = [   23037,   24883] index = [     265363203,309594286] size =     44231083
	Batch   8 pq = [   24883,   26601] index = [     309594286,353819901] size =     44225615
	Batch   9 pq = [   26601,   28214] index = [     353819901,398029005] size =     44209104
	Batch  10 pq = [   28214,   29740] index = [     398029005,442248670] size =     44219665
	Batch  11 pq = [   29740,   31191] index = [     442248670,486454836] size =     44206166
	Batch  12 pq = [   31191,   32578] index = [     486454836,530679331] size =     44224495
	Batch  13 pq = [   32578,   33908] index = [     530679331,574893186] size =     44213855
	Batch  14 pq = [   33908,   35188] index = [     574893186,619115266] size =     44222080
	Batch  15 pq = [   35188,   36423] index = [     619115266,663335676] size =     44220410
	Batch  16 pq = [   36423,   37617] index = [     663335676,707538153] size =     44202477
	Batch  17 pq = [   37617,   38775] index = [     707538153,751769700] size =     44231547
	Batch  18 pq = [   38775,   39899] index = [     751769700,795985050] size =     44215350
	Batch  19 pq = [   39899,   41041] index = [     795985050,842202361] size =     46217311
  Task number: 77
  Buffer size: 11059200
  Buffer per thread: 2
  We computed 45224367 shell quartets total.
  Whereas there are 45998436 unique shell quartets.

  ==> DiskJK: Disk-Based J/K Matrices <==

    J tasked:                  Yes
    K tasked:                  Yes
    wK tasked:                  No
    Memory [MiB]:              375
    Schwarz Cutoff:          1E-12

    OpenMP threads:              1

  Minimum eigenvalue in the overlap matrix is 3.0530014682E-04.
  Using Symmetric Orthogonalization.

  SCF Guess: Superposition of Atomic Densities via on-the-fly atomic UHF.

  ==> Iterations <==

                        Total Energy        Delta E     RMS |[F,P]|

   @RHF iter SAD:  -626.43984405808988   -6.26440e+02   0.00000e+00
   @RHF iter   1:  -626.88746733741289   -4.47623e-01   2.56144e-03 DIIS
   @RHF iter   2:  -627.17563866055639   -2.88171e-01   1.03180e-03 DIIS
   @RHF iter   3:  -627.21741933222108   -4.17807e-02   2.56537e-04 DIIS
   @RHF iter   4:  -627.22140497569160   -3.98564e-03   8.82786e-05 DIIS
   @RHF iter   5:  -627.22177828850079   -3.73313e-04   2.07026e-05 DIIS
   @RHF iter   6:  -627.22180954913460   -3.12606e-05   6.98189e-06 DIIS
   @RHF iter   7:  -627.22181283603175   -3.28690e-06   1.93532e-06 DIIS
   @RHF iter   8:  -627.22181322456515   -3.88533e-07   6.71459e-07 DIIS
   @RHF iter   9:  -627.22181325743088   -3.28657e-08   2.07532e-07 DIIS
   @RHF iter  10:  -627.22181326134910   -3.91822e-09   7.16513e-08 DIIS
   @RHF iter  11:  -627.22181326207829   -7.29187e-10   3.01446e-08 DIIS
   @RHF iter  12:  -627.22181326225541   -1.77124e-10   1.39389e-08 DIIS
   @RHF iter  13:  -627.22181326230100   -4.55884e-11   6.68275e-09 DIIS
   @RHF iter  14:  -627.22181326230691   -5.91172e-12   2.23793e-09 DIIS
   @RHF iter  15:  -627.22181326231203   -5.11591e-12   7.91812e-10 DIIS
   @RHF iter  16:  -627.22181326231612   -4.09273e-12   2.93357e-10 DIIS
   @RHF iter  17:  -627.22181326231419    1.93268e-12   1.24435e-10 DIIS
   @RHF iter  18:  -627.22181326231532   -1.13687e-12   4.50902e-11 DIIS
  Energy and wave function converged.

  ==> Post-Iterations <==

    Orbital Energies [Eh]
    ---------------------

    Doubly Occupied:

       1A    -20.676426     2A    -15.791352     3A    -15.790464
       4A    -15.788460     5A    -11.593810     6A    -11.443913
       7A    -11.388090     8A    -11.370442     9A    -11.337366
      10A    -11.330889    11A    -11.328341    12A    -11.327780
      13A    -11.322272    14A    -11.315215    15A     -1.547255
      16A     -1.486907    17A     -1.403417    18A     -1.395125
      19A     -1.251810    20A     -1.166932    21A     -1.135559
      22A     -1.115746    23A     -1.060926    24A     -1.019011
      25A     -1.013986    26A     -0.982548    27A     -0.945305
      28A     -0.937484    29A     -0.895395    30A     -0.865038
      31A     -0.860650    32A     -0.829236    33A     -0.817904
      34A     -0.788982    35A     -0.767910    36A     -0.751480
      37A     -0.738683    38A     -0.705845    39A     -0.703113
      40A     -0.682992    41A     -0.678523    42A     -0.660521
      43A     -0.659462    44A     -0.656559    45A     -0.646575
      46A     -0.620568    47A     -0.618304    48A     -0.592643
      49A     -0.580958    50A     -0.572370    51A     -0.562632
      52A     -0.434034    53A     -0.400621

    Virtual:

      54A     -0.016623    55A      0.013015    56A      0.020778
      57A      0.027051    58A      0.030652    59A      0.054360
      60A      0.062481    61A      0.083065    62A      0.085727
      63A      0.102695    64A      0.122976    65A      0.127178
      66A      0.136786    67A      0.137588    68A      0.144703
      69A      0.155400    70A      0.168240    71A      0.176232
      72A      0.182029    73A      0.192211    74A      0.214045
      75A      0.216653    76A      0.223043    77A      0.270286
      78A      0.286193    79A      0.296736    80A      0.326584
      81A      0.328302    82A      0.339926    83A      0.356841
      84A      0.388343    85A      0.402967    86A      0.418822
      87A      0.435027    88A      0.467326    89A      0.487126
      90A      0.494818    91A      0.521501    92A      0.530196
      93A      0.538623    94A      0.543499    95A      0.548379
      96A      0.552635    97A      0.561049    98A      0.568972
      99A      0.599656   100A      0.601736   101A      0.607745
     102A      0.619703   103A      0.629832   104A      0.637526
     105A      0.650324   106A      0.657895   107A      0.668088
     108A      0.678298   109A      0.687706   110A      0.695270
     111A      0.709578   112A      0.713093   113A      0.724957
     114A      0.733772   115A      0.742598   116A      0.746443
     117A      0.749699   118A      0.763200   119A      0.771457
     120A      0.776300   121A      0.783497   122A      0.799995
     123A      0.803386   124A      0.808610   125A      0.817152
     126A      0.821046   127A      0.840939   128A      0.843206
     129A      0.845918   130A      0.854574   131A      0.863318
     132A      0.881894   133A      0.883025   134A      0.894864
     135A      0.921999   136A      0.940592   137A      0.951179
     138A      0.957649   139A      0.977292   140A      0.995051
     141A      1.020565   142A      1.037993   143A      1.050432
     144A      1.057940   145A      1.084466   146A      1.087067
     147A      1.113718   148A      1.122575   149A      1.138564
     150A      1.144913   151A      1.157669   152A      1.173160
     153A      1.176516   154A      1.188140   155A      1.189576
     156A      1.199427   157A      1.207454   158A      1.233140
     159A      1.241011   160A      1.249954   161A      1.266160
     162A      1.275569   163A      1.279016   164A      1.294816
     165A      1.312669   166A      1.330209   167A      1.367725
     168A      1.409923   169A      1.443990   170A      1.455886
     171A      1.462866   172A      1.470102   173A      1.509094
     174A      1.523649   175A      1.529450   176A      1.550081
     177A      1.557842   178A      1.576677   179A      1.590443
     180A      1.600155   181A      1.625194   182A      1.637310
     183A      1.648795   184A      1.657056   185A      1.675692
     186A      1.689086   187A      1.693798   188A      1.699850
     189A      1.712756   190A      1.721700   191A      1.724633
     192A      1.733637   193A      1.764015   194A      1.776001
     195A      1.782071   196A      1.791169   197A      1.800751
     198A      1.805350   199A      1.806412   200A      1.823205
     201A      1.828949   202A      1.831573   203A      1.836049
     204A      1.849629   205A      1.853860   206A      1.862714
     207A      1.873931   208A      1.893633   209A      1.911335
     210A      1.919098   211A      1.925118   212A      1.942721
     213A      1.946943   214A      1.965996   215A      1.980304
     216A      1.986689   217A      1.997627   218A      2.014356
     219A      2.029767   220A      2.033961   221A      2.052639
     222A      2.080432   223A      2.083290   224A      2.106144
     225A      2.129327   226A      2.146820   227A      2.170388
     228A      2.174410   229A      2.190035   230A      2.205549
     231A      2.224461   232A      2.243794   233A      2.252829
     234A      2.266519   235A      2.271163   236A      2.275977
     237A      2.286819   238A      2.319130   239A      2.327152
     240A      2.331128   241A      2.346790   242A      2.358448
     243A      2.386504   244A      2.395094   245A      2.399373
     246A      2.416290   247A      2.423323   248A      2.438081
     249A      2.459030   250A      2.480889   251A      2.527332
     252A      2.561405   253A      2.575524   254A      2.607461
     255A      2.626737   256A      2.632957   257A      2.665250
     258A      2.683274   259A      2.694042   260A      2.702853
     261A      2.715230   262A      2.736967   263A      2.753834
     264A      2.763201   265A      2.775131   266A      2.807233
     267A      2.819097   268A      2.854665   269A      2.867963
     270A      2.883820   271A      2.926133   272A      2.960917
     273A      3.002195   274A      3.028811   275A      3.075169
     276A      3.097480   277A      3.129790   278A      3.160239
     279A      3.215333   280A      3.243976   281A      3.492465
     282A      3.565647   283A      3.580503   284A      3.657122
     285A      3.912835   286A      4.076067

    Final Occupation by Irrep:
              A
    DOCC [    53 ]

  @RHF Final Energy:  -627.22181326231532

   => Energetics <=

    Nuclear Repulsion Energy =            890.3276272577605823
    One-Electron Energy =               -2604.3832277269293627
    Two-Electron Energy =                1086.8337872068536853
    Total Energy =                       -627.2218132623152087

Computation Completed

Properties will be evaluated at   0.000000,   0.000000,   0.000000 [a0]

Properties computed using the SCF density matrix

  Nuclear Dipole Moment: [e a0]
     X:    -8.0361      Y:    -8.1430      Z:     1.1682

  Electronic Dipole Moment: [e a0]
     X:     3.3227      Y:     7.2650      Z:     1.2235

  Dipole Moment: [e a0]
     X:    -4.7134      Y:    -0.8780      Z:     2.3917     Total:     5.3579

  Dipole Moment: [D]
     X:   -11.9803      Y:    -2.2316      Z:     6.0791     Total:    13.6185

*** tstop() called on ds3 at Mon Apr 27 13:41:21 2020
Module time:
	user time   =     390.59 seconds =       6.51 minutes
	system time =     156.11 seconds =       2.60 minutes
	total time  =        615 seconds =      10.25 minutes
Total time:
	user time   =     390.59 seconds =       6.51 minutes
	system time =     156.11 seconds =       2.60 minutes
	total time  =        615 seconds =      10.25 minutes
                                     G D M A

                                 by Anthony Stone

                           version 2.2.06, 22 June 2011

               Distributed Multipoles from Gaussian wavefunctions

Starting at 13:41:21 on 27 Apr 2020

Using SCF density matrix from file ./SSI/SSI-046ARG-092TYR-1-dimer.test.6966.fchk

                         Distributed Multipole Analysis

Standard DMA

Positions and radii in angstrom
Multipole moments in atomic units, ea_0^k for rank k

C          x = -0.519253  y = -1.674120  z =  1.410972 angstrom
           Maximum rank =  0   Radius =  0.650 angstrom
                   Q00  =  -0.009106

C          x = -0.722253  y = -2.893120  z =  2.464972 angstrom
           Maximum rank =  0   Radius =  0.650 angstrom
                   Q00  =  -0.241249

C          x = -2.567253  y = -0.242120  z =  1.422972 angstrom
           Maximum rank =  0   Radius =  0.650 angstrom
                   Q00  =   1.078020

N          x = -1.345253  y = -0.532120  z =  1.852972 angstrom
           Maximum rank =  0   Radius =  0.650 angstrom
                   Q00  =  -0.498613

N          x = -3.127253  y = -0.933120  z =  0.446972 angstrom
           Maximum rank =  0   Radius =  0.650 angstrom
                   Q00  =  -0.581466

N          x = -3.218253  y =  0.773880  z =  1.958972 angstrom
           Maximum rank =  0   Radius =  0.650 angstrom
                   Q00  =  -0.597643

H          x =  0.534747  y = -1.393120  z =  1.421972 angstrom
           Maximum rank =  0   Radius =  0.325 angstrom
                   Q00  =   0.136533

H          x = -0.776253  y = -2.003120  z =  0.403972 angstrom
           Maximum rank =  0   Radius =  0.325 angstrom
                   Q00  =   0.093643

H          x = -1.802253  y = -3.015120  z =  2.551972 angstrom
           Maximum rank =  0   Radius =  0.325 angstrom
                   Q00  =   0.081529

H          x = -0.414253  y = -2.557120  z =  3.453972 angstrom
           Maximum rank =  0   Radius =  0.325 angstrom
                   Q00  =   0.107072

H          x = -0.937253  y =  0.056880  z =  2.571972 angstrom
           Maximum rank =  0   Radius =  0.325 angstrom
                   Q00  =   0.228745

H          x = -2.646253  y = -1.721120  z =  0.049972 angstrom
           Maximum rank =  0   Radius =  0.325 angstrom
                   Q00  =   0.273454

H          x = -4.054253  y = -0.701120  z =  0.127972 angstrom
           Maximum rank =  0   Radius =  0.325 angstrom
                   Q00  =   0.269026

H          x = -2.792253  y =  1.304880  z =  2.701972 angstrom
           Maximum rank =  0   Radius =  0.325 angstrom
                   Q00  =   0.265709

H          x = -4.142253  y =  1.014880  z =  1.639972 angstrom
           Maximum rank =  0   Radius =  0.325 angstrom
                   Q00  =   0.267959

H          x = -0.354202  y = -3.909770  z =  2.262582 angstrom
           Maximum rank =  0   Radius =  0.325 angstrom
                   Q00  =   0.138673

C          x =  0.269747  y =  0.048880  z = -3.831028 angstrom
           Maximum rank =  0   Radius =  0.650 angstrom
                   Q00  =  -0.188945

C          x =  0.268747  y =  0.382880  z = -1.349028 angstrom
           Maximum rank =  0   Radius =  0.650 angstrom
                   Q00  =  -0.028859

C          x =  0.972747  y =  0.388880  z = -2.543028 angstrom
           Maximum rank =  0   Radius =  0.650 angstrom
                   Q00  =  -0.135987

C          x =  0.894747  y =  0.707880  z = -0.157028 angstrom
           Maximum rank =  0   Radius =  0.650 angstrom
                   Q00  =  -0.120033

C          x =  2.207747  y =  1.067880  z = -0.131028 angstrom
           Maximum rank =  0   Radius =  0.650 angstrom
                   Q00  =   0.279402

C          x =  2.310747  y =  0.783880  z = -2.518028 angstrom
           Maximum rank =  0   Radius =  0.650 angstrom
                   Q00  =  -0.036312

C          x =  2.924747  y =  1.122880  z = -1.303028 angstrom
           Maximum rank =  0   Radius =  0.650 angstrom
                   Q00  =  -0.058918

O          x =  2.743747  y =  1.382880  z =  1.093972 angstrom
           Maximum rank =  0   Radius =  0.650 angstrom
                   Q00  =  -0.654495

H          x = -0.783253  y =  0.124880  z = -1.344028 angstrom
           Maximum rank =  0   Radius =  0.325 angstrom
                   Q00  =   0.029754

H          x =  0.333747  y =  0.785880  z =  0.749972 angstrom
           Maximum rank =  0   Radius =  0.325 angstrom
                   Q00  =   0.010640

H          x = -0.185253  y = -0.935120  z = -3.710028 angstrom
           Maximum rank =  0   Radius =  0.325 angstrom
                   Q00  =   0.090179

H          x =  0.994747  y = -0.016120  z = -4.642028 angstrom
           Maximum rank =  0   Radius =  0.325 angstrom
                   Q00  =   0.115931

H          x =  2.880747  y =  0.824880  z = -3.436028 angstrom
           Maximum rank =  0   Radius =  0.325 angstrom
                   Q00  =   0.086211

H          x =  2.087747  y =  1.236880  z =  1.805972 angstrom
           Maximum rank =  0   Radius =  0.325 angstrom
                   Q00  =   0.394496

H          x =  3.959747  y =  1.425880  z = -1.281028 angstrom
           Maximum rank =  0   Radius =  0.325 angstrom
                   Q00  =   0.100935

H          x = -0.513719  y =  0.781310  z = -4.075408 angstrom
           Maximum rank =  0   Radius =  0.325 angstrom
                   Q00  =   0.103713

Total multipoles referred to origin at
           x =   0.000000,  y =    0.000000,  z =    0.000000 angstrom
                   Q00  =   1.000000

Finished at 13:41:21 on 27 Apr 2020

  DMA results are available in the Python driver through the
	  variable('DMA DISTRIBUTED MULTIPOLES')
  and
	  variable('DMA TOTAL MULTIPOLES')
  commands.

    Psi4 stopped on: Monday, 27 April 2020 01:41PM
    Psi4 wall time for execution: 0:10:14.65

*** Psi4 exiting successfully. Buy a developer a beer!
