                               Psi4 1.3.2 release

  ==> Input File <==

--------------------------------------------------------------------------
import numpy as np
set {scf_type pk
basis cc-pvdz
d_convergence 10
gdma_switch   0
gdma_limit    0
gdma_origin   [ 0.0,  0.0,  0.0 ]
}
molecule test {
    units Angstrom
    -1 1
    --
    -1 1
    C               -1.093170965799957     1.489408425448911     0.687425767684932
    C                0.258829034200043     1.593408425448911    -1.720574232315067
    S                0.457829034200043     2.081408425448911     0.005425767684932
    H               -1.185170965799957     0.418408425448911     0.539425767684932
    H               -1.083170965799956     1.721408425448911     1.743425767684933
    H               -1.938170965799957     1.984408425448911     0.211425767684932
    H                0.024829034200043     0.531408425448911    -1.773574232315067
    H                1.210829034200043     1.754408425448911    -2.221574232315068
    H               -0.528200965799957     2.155368425448911    -2.244774232315068
    C                0.876829034200043    -1.667591574551089     1.415425767684932
    C               -0.077170965799957    -1.911591574551089     0.222425767684932
    O               -1.300170965799957    -2.165591574551089     0.374425767684932
    O                0.416829034200043    -1.858591574551089    -0.922574232315068
    H                1.523829034200043    -0.830591574551089     1.149425767684932
    H                1.509829034200043    -2.546591574551089     1.556425767684932
    H                0.373559034200043    -1.441621574551089     2.367085767684932

}
e, wfn = energy('scf', return_wfn=True)
gdma(wfn)
dmavals = variable('DMA DISTRIBUTED MULTIPOLES')
charges = np.array(dmavals)
print(charges)
np.save('SSI-081MET-134GLU-2-dimer.npy', np.array(charges))--------------------------------------------------------------------------

*** tstart() called on ds3
*** at Sun Apr 26 20:13:59 2020

   => Loading Basis Set <=

    Name: CC-PVDZ
    Role: ORBITAL
    Keyword: BASIS
    atoms 1-2, 10-11 entry C          line   138 file /theoryfs2/ds/metcalf/miniconda2/envs/tf2gpu/share/psi4/basis/cc-pvdz.gbs
    atoms 3          entry S          line   598 file /theoryfs2/ds/metcalf/miniconda2/envs/tf2gpu/share/psi4/basis/cc-pvdz.gbs
    atoms 4-9, 14-16 entry H          line    22 file /theoryfs2/ds/metcalf/miniconda2/envs/tf2gpu/share/psi4/basis/cc-pvdz.gbs
    atoms 12-13      entry O          line   198 file /theoryfs2/ds/metcalf/miniconda2/envs/tf2gpu/share/psi4/basis/cc-pvdz.gbs

         ---------------------------------------------------------
                                   SCF
               by Justin Turney, Rob Parrish, Andy Simmonett
                          and Daniel G. A. Smith
                              RHF Reference
                        1 Threads,    500 MiB Core
         ---------------------------------------------------------

  ==> Geometry <==

    Molecular point group: c1
    Full point group: C1

    Geometry (in Angstrom), charge = -1, multiplicity = 1:

       Center              X                  Y                   Z               Mass
    ------------   -----------------  -----------------  -----------------  -----------------
         C           -1.093170965800     1.489408425449     0.687425767685    12.000000000000
         C            0.258829034200     1.593408425449    -1.720574232315    12.000000000000
         S            0.457829034200     2.081408425449     0.005425767685    31.972071174400
         H           -1.185170965800     0.418408425449     0.539425767685     1.007825032230
         H           -1.083170965800     1.721408425449     1.743425767685     1.007825032230
         H           -1.938170965800     1.984408425449     0.211425767685     1.007825032230
         H            0.024829034200     0.531408425449    -1.773574232315     1.007825032230
         H            1.210829034200     1.754408425449    -2.221574232315     1.007825032230
         H           -0.528200965800     2.155368425449    -2.244774232315     1.007825032230
         C            0.876829034200    -1.667591574551     1.415425767685    12.000000000000
         C           -0.077170965800    -1.911591574551     0.222425767685    12.000000000000
         O           -1.300170965800    -2.165591574551     0.374425767685    15.994914619570
         O            0.416829034200    -1.858591574551    -0.922574232315    15.994914619570
         H            1.523829034200    -0.830591574551     1.149425767685     1.007825032230
         H            1.509829034200    -2.546591574551     1.556425767685     1.007825032230
         H            0.373559034200    -1.441621574551     2.367085767685     1.007825032230

  Running in c1 symmetry.

  Rotational constants: A =      0.09841  B =      0.03323  C =      0.03123 [cm^-1]
  Rotational constants: A =   2950.13561  B =    996.16366  C =    936.20664 [MHz]
  Nuclear repulsion =  360.840234683505230

  Charge       = -1
  Multiplicity = 1
  Electrons    = 66
  Nalpha       = 33
  Nbeta        = 33

  ==> Algorithm <==

  SCF Algorithm Type is PK.
  DIIS enabled.
  MOM disabled.
  Fractional occupation disabled.
  Guess Type is SAD.
  Energy threshold   = 1.00e-06
  Density threshold  = 1.00e-10
  Integral threshold = 0.00e+00

  ==> Primary Basis <==

  Basis Set: CC-PVDZ
    Blend: CC-PVDZ
    Number of shells: 71
    Number of basis function: 147
    Number of Cartesian functions: 154
    Spherical Harmonics?: true
    Max angular momentum: 2

  ==> Pre-Iterations <==

   -------------------------------------------------------
    Irrep   Nso     Nmo     Nalpha   Nbeta   Ndocc  Nsocc
   -------------------------------------------------------
     A        147     147       0       0       0       0
   -------------------------------------------------------
    Total     147     147      33      33      33       0
   -------------------------------------------------------

  ==> Integral Setup <==

  Using integral reordering PK algorithm.
  Sizing the integral batches needed.
  Building batch lookup table.
   Calculation information:
      Number of atoms:                  16
      Number of AO shells:              71
      Number of primitives:            227
      Number of atomic orbitals:       154
      Number of basis functions:       147

      Integral cutoff                 1.00e-12
      Number of threads:                 1

	Batch   1 pq = [       0,    9405] index = [             0,44231715] size =     44231715
	Batch   2 pq = [    9405,   10878] index = [      44231715,59170881] size =     14939166
  Task number: 6
  Buffer size: 11059200
  Buffer per thread: 2
  We computed 3096124 shell quartets total.
  Whereas there are 3267846 unique shell quartets.

  ==> DiskJK: Disk-Based J/K Matrices <==

    J tasked:                  Yes
    K tasked:                  Yes
    wK tasked:                  No
    Memory [MiB]:              375
    Schwarz Cutoff:          1E-12

    OpenMP threads:              1

  Minimum eigenvalue in the overlap matrix is 5.5880272672E-03.
  Using Symmetric Orthogonalization.

  SCF Guess: Superposition of Atomic Densities via on-the-fly atomic UHF.

  ==> Iterations <==

                        Total Energy        Delta E     RMS |[F,P]|

   @RHF iter SAD:  -702.38333735618380   -7.02383e+02   0.00000e+00
   @RHF iter   1:  -703.75614319000226   -1.37281e+00   4.80452e-03 DIIS
   @RHF iter   2:  -703.94319692836950   -1.87054e-01   2.74354e-03 DIIS
   @RHF iter   3:  -704.00154513701955   -5.83482e-02   4.19898e-04 DIIS
   @RHF iter   4:  -704.00425426194329   -2.70912e-03   1.46600e-04 DIIS
   @RHF iter   5:  -704.00460085517068   -3.46593e-04   2.37954e-05 DIIS
   @RHF iter   6:  -704.00461218142141   -1.13263e-05   5.86862e-06 DIIS
   @RHF iter   7:  -704.00461283055574   -6.49134e-07   1.99578e-06 DIIS
   @RHF iter   8:  -704.00461290022747   -6.96717e-08   7.42852e-07 DIIS
   @RHF iter   9:  -704.00461290868350   -8.45603e-09   2.62142e-07 DIIS
   @RHF iter  10:  -704.00461291012175   -1.43825e-09   7.37862e-08 DIIS
   @RHF iter  11:  -704.00461291029637   -1.74623e-10   2.26271e-08 DIIS
   @RHF iter  12:  -704.00461291031797   -2.16005e-11   7.65840e-09 DIIS
   @RHF iter  13:  -704.00461291031888   -9.09495e-13   2.69425e-09 DIIS
   @RHF iter  14:  -704.00461291031377    5.11591e-12   1.04343e-09 DIIS
   @RHF iter  15:  -704.00461291031968   -5.91172e-12   3.48799e-10 DIIS
   @RHF iter  16:  -704.00461291031331    6.36646e-12   1.21534e-10 DIIS
   @RHF iter  17:  -704.00461291031661   -3.29692e-12   5.05524e-11 DIIS
  Energy and wave function converged.

  ==> Post-Iterations <==

    Orbital Energies [Eh]
    ---------------------

    Doubly Occupied:

       1A    -91.811004     2A    -20.264055     3A    -20.262989
       4A    -11.124005     5A    -11.122853     6A    -11.121754
       7A    -11.054863     8A     -8.814850     9A     -6.497101
      10A     -6.495472    11A     -6.493273    12A     -1.153989
      13A     -1.035094    14A     -0.934590    15A     -0.822597
      16A     -0.795461    17A     -0.677378    18A     -0.503227
      19A     -0.475445    20A     -0.470616    21A     -0.449678
      22A     -0.427623    23A     -0.410392    24A     -0.407359
      25A     -0.403302    26A     -0.367253    27A     -0.344683
      28A     -0.311110    29A     -0.301962    30A     -0.206213
      31A     -0.189549    32A     -0.172725    33A     -0.163012

    Virtual:

      34A      0.303499    35A      0.308185    36A      0.348412
      37A      0.361301    38A      0.376945    39A      0.382682
      40A      0.397283    41A      0.402208    42A      0.421856
      43A      0.447558    44A      0.473878    45A      0.500316
      46A      0.566148    47A      0.635867    48A      0.676534
      49A      0.704823    50A      0.709932    51A      0.736028
      52A      0.761097    53A      0.768845    54A      0.813621
      55A      0.831619    56A      0.869985    57A      0.896342
      58A      0.903722    59A      0.926327    60A      0.946897
      61A      0.964932    62A      0.977050    63A      0.988956
      64A      0.996199    65A      1.016860    66A      1.019978
      67A      1.028347    68A      1.039230    69A      1.050159
      70A      1.058956    71A      1.065059    72A      1.073797
      73A      1.109950    74A      1.130812    75A      1.144190
      76A      1.150859    77A      1.264760    78A      1.309288
      79A      1.337630    80A      1.357163    81A      1.384781
      82A      1.409422    83A      1.432951    84A      1.442275
      85A      1.501129    86A      1.529380    87A      1.545587
      88A      1.571317    89A      1.579191    90A      1.598599
      91A      1.634900    92A      1.658885    93A      1.702249
      94A      1.715800    95A      1.735553    96A      1.806638
      97A      1.816116    98A      1.842750    99A      1.849936
     100A      2.013068   101A      2.020127   102A      2.024025
     103A      2.031583   104A      2.052016   105A      2.067253
     106A      2.078313   107A      2.109692   108A      2.119593
     109A      2.127478   110A      2.139991   111A      2.152357
     112A      2.164606   113A      2.202903   114A      2.229727
     115A      2.256073   116A      2.320279   117A      2.358242
     118A      2.377946   119A      2.429673   120A      2.483457
     121A      2.532048   122A      2.549382   123A      2.582253
     124A      2.593170   125A      2.645152   126A      2.663989
     127A      2.714325   128A      2.797232   129A      2.862723
     130A      2.900281   131A      2.913018   132A      2.921044
     133A      2.927681   134A      2.964833   135A      2.980430
     136A      2.999112   137A      3.005826   138A      3.239757
     139A      3.284968   140A      3.291022   141A      3.362459
     142A      3.648095   143A      3.736439   144A      3.809841
     145A      4.059306   146A      4.079716   147A      4.190349

    Final Occupation by Irrep:
              A
    DOCC [    33 ]

  @RHF Final Energy:  -704.00461291031661

   => Energetics <=

    Nuclear Repulsion Energy =            360.8402346835052299
    One-Electron Energy =               -1697.5187415470411452
    Two-Electron Energy =                 632.6738939532192489
    Total Energy =                       -704.0046129103166095

Computation Completed

Properties will be evaluated at   0.000000,   0.000000,   0.000000 [a0]

Properties computed using the SCF density matrix

  Nuclear Dipole Moment: [e a0]
     X:    -0.0783      Y:     3.5479      Z:     1.2418

  Electronic Dipole Moment: [e a0]
     X:     0.5833      Y:    -0.6772      Z:    -0.8139

  Dipole Moment: [e a0]
     X:     0.5050      Y:     2.8707      Z:     0.4280     Total:     2.9460

  Dipole Moment: [D]
     X:     1.2837      Y:     7.2965      Z:     1.0877     Total:     7.4880

*** tstop() called on ds3 at Sun Apr 26 20:14:39 2020
Module time:
	user time   =      29.97 seconds =       0.50 minutes
	system time =       8.50 seconds =       0.14 minutes
	total time  =         40 seconds =       0.67 minutes
Total time:
	user time   =      29.97 seconds =       0.50 minutes
	system time =       8.50 seconds =       0.14 minutes
	total time  =         40 seconds =       0.67 minutes
                                     G D M A

                                 by Anthony Stone

                           version 2.2.06, 22 June 2011

               Distributed Multipoles from Gaussian wavefunctions

Starting at 20:14:39 on 26 Apr 2020

Using SCF density matrix from file ./SSI/SSI-081MET-134GLU-2-dimer.test.21236.fchk

                         Distributed Multipole Analysis

Standard DMA

Positions and radii in angstrom
Multipole moments in atomic units, ea_0^k for rank k

C          x = -1.093171  y =  1.489408  z =  0.687426 angstrom
           Maximum rank =  0   Radius =  0.650 angstrom
                   Q00  =  -0.295757

C          x =  0.258829  y =  1.593408  z = -1.720574 angstrom
           Maximum rank =  0   Radius =  0.650 angstrom
                   Q00  =  -0.331064

S          x =  0.457829  y =  2.081408  z =  0.005426 angstrom
           Maximum rank =  0   Radius =  0.650 angstrom
                   Q00  =   0.072019

H          x = -1.185171  y =  0.418408  z =  0.539426 angstrom
           Maximum rank =  0   Radius =  0.325 angstrom
                   Q00  =   0.108995

H          x = -1.083171  y =  1.721408  z =  1.743426 angstrom
           Maximum rank =  0   Radius =  0.325 angstrom
                   Q00  =   0.093661

H          x = -1.938171  y =  1.984408  z =  0.211426 angstrom
           Maximum rank =  0   Radius =  0.325 angstrom
                   Q00  =   0.061775

H          x =  0.024829  y =  0.531408  z = -1.773574 angstrom
           Maximum rank =  0   Radius =  0.325 angstrom
                   Q00  =   0.120019

H          x =  1.210829  y =  1.754408  z = -2.221574 angstrom
           Maximum rank =  0   Radius =  0.325 angstrom
                   Q00  =   0.096334

H          x = -0.528201  y =  2.155368  z = -2.244774 angstrom
           Maximum rank =  0   Radius =  0.325 angstrom
                   Q00  =   0.054854

C          x =  0.876829  y = -1.667592  z =  1.415426 angstrom
           Maximum rank =  0   Radius =  0.650 angstrom
                   Q00  =  -0.290745

C          x = -0.077171  y = -1.911592  z =  0.222426 angstrom
           Maximum rank =  0   Radius =  0.650 angstrom
                   Q00  =   0.946283

O          x = -1.300171  y = -2.165592  z =  0.374426 angstrom
           Maximum rank =  0   Radius =  0.650 angstrom
                   Q00  =  -0.928055

O          x =  0.416829  y = -1.858592  z = -0.922574 angstrom
           Maximum rank =  0   Radius =  0.650 angstrom
                   Q00  =  -0.922736

H          x =  1.523829  y = -0.830592  z =  1.149426 angstrom
           Maximum rank =  0   Radius =  0.325 angstrom
                   Q00  =   0.083806

H          x =  1.509829  y = -2.546592  z =  1.556426 angstrom
           Maximum rank =  0   Radius =  0.325 angstrom
                   Q00  =   0.081273

H          x =  0.373559  y = -1.441622  z =  2.367086 angstrom
           Maximum rank =  0   Radius =  0.325 angstrom
                   Q00  =   0.049340

Total multipoles referred to origin at
           x =   0.000000,  y =    0.000000,  z =    0.000000 angstrom
                   Q00  =  -1.000000

Finished at 20:14:39 on 26 Apr 2020

  DMA results are available in the Python driver through the
	  variable('DMA DISTRIBUTED MULTIPOLES')
  and
	  variable('DMA TOTAL MULTIPOLES')
  commands.

    Psi4 stopped on: Sunday, 26 April 2020 08:14PM
    Psi4 wall time for execution: 0:00:39.58

*** Psi4 exiting successfully. Buy a developer a beer!
