                               Psi4 1.3.2 release

  ==> Input File <==

--------------------------------------------------------------------------
import numpy as np
set {scf_type pk
basis cc-pvdz
d_convergence 10
gdma_switch   0
gdma_limit    0
gdma_origin   [ 0.0,  0.0,  0.0 ]
}
molecule test {
    units Angstrom
    0 1
    --
    0 1
    C               -1.439973806713236    -0.065859280854793     1.982455754924790
    C               -0.397973806713236    -0.457859280854793     3.029455754924789
    C               -2.148973806713236     1.267140719145207     2.251455754924789
    H               -0.950973806713236    -0.008859280854793     1.010455754924789
    H               -2.192973806713236    -0.853859280854793     1.928455754924790
    H                0.384026193286764     0.303140719145207     3.036455754924789
    H               -2.627973806713236     1.232140719145207     3.229455754924790
    H                0.051136193286764    -1.430809280854793     2.781125754924789
    H               -0.863193806713236    -0.507059280854793     4.025015754924789
    H               -1.428773806713236     2.098590719145207     2.249285754924789
    H               -2.939483806713236     1.440400719145207     1.506425754924789
    C               -0.014973806713236    -2.455859280854793    -1.482544245075210
    C                0.385026193286764    -1.019859280854793    -1.292544245075210
    C                1.558026193286764    -0.704859280854793    -0.613544245075211
    C               -0.413973806713236     0.010140719145207    -1.779544245075210
    C                1.934026193286764     0.624140719145207    -0.428544245075210
    C               -0.043973806713236     1.340140719145207    -1.594544245075211
    C                1.131026193286764     1.649140719145207    -0.919544245075211
    H               -1.050973806713236    -2.513859280854793    -1.819544245075210
    H                0.038026193286764    -2.946859280854794    -0.508544245075211
    H                2.168026193286764    -1.499859280854793    -0.216544245075211
    H               -1.335973806713236    -0.208859280854793    -2.294544245075210
    H                2.846026193286764     0.860140719145207     0.095455754924789
    H               -0.672973806713236     2.136140719145207    -1.970544245075210
    H                1.418026193286764     2.682140719145206    -0.775544245075211
    H                0.629966193286764    -3.002189280854793    -2.186514245075211

}
e, wfn = energy('scf', return_wfn=True)
gdma(wfn)
dmavals = variable('DMA DISTRIBUTED MULTIPOLES')
charges = np.array(dmavals)
print(charges)
np.save('SSI-074LEU-107PHE-1-dimer.npy', np.array(charges))--------------------------------------------------------------------------

*** tstart() called on ds3
*** at Tue Apr 28 11:27:03 2020

   => Loading Basis Set <=

    Name: CC-PVDZ
    Role: ORBITAL
    Keyword: BASIS
    atoms 1-3, 12-18  entry C          line   138 file /theoryfs2/ds/metcalf/miniconda2/envs/tf2gpu/share/psi4/basis/cc-pvdz.gbs
    atoms 4-11, 19-26 entry H          line    22 file /theoryfs2/ds/metcalf/miniconda2/envs/tf2gpu/share/psi4/basis/cc-pvdz.gbs

         ---------------------------------------------------------
                                   SCF
               by Justin Turney, Rob Parrish, Andy Simmonett
                          and Daniel G. A. Smith
                              RHF Reference
                        1 Threads,    500 MiB Core
         ---------------------------------------------------------

  ==> Geometry <==

    Molecular point group: c1
    Full point group: C1

    Geometry (in Angstrom), charge = 0, multiplicity = 1:

       Center              X                  Y                   Z               Mass
    ------------   -----------------  -----------------  -----------------  -----------------
         C           -1.439973806713    -0.065859280855     1.982455754925    12.000000000000
         C           -0.397973806713    -0.457859280855     3.029455754925    12.000000000000
         C           -2.148973806713     1.267140719145     2.251455754925    12.000000000000
         H           -0.950973806713    -0.008859280855     1.010455754925     1.007825032230
         H           -2.192973806713    -0.853859280855     1.928455754925     1.007825032230
         H            0.384026193287     0.303140719145     3.036455754925     1.007825032230
         H           -2.627973806713     1.232140719145     3.229455754925     1.007825032230
         H            0.051136193287    -1.430809280855     2.781125754925     1.007825032230
         H           -0.863193806713    -0.507059280855     4.025015754925     1.007825032230
         H           -1.428773806713     2.098590719145     2.249285754925     1.007825032230
         H           -2.939483806713     1.440400719145     1.506425754925     1.007825032230
         C           -0.014973806713    -2.455859280855    -1.482544245075    12.000000000000
         C            0.385026193287    -1.019859280855    -1.292544245075    12.000000000000
         C            1.558026193287    -0.704859280855    -0.613544245075    12.000000000000
         C           -0.413973806713     0.010140719145    -1.779544245075    12.000000000000
         C            1.934026193287     0.624140719145    -0.428544245075    12.000000000000
         C           -0.043973806713     1.340140719145    -1.594544245075    12.000000000000
         C            1.131026193287     1.649140719145    -0.919544245075    12.000000000000
         H           -1.050973806713    -2.513859280855    -1.819544245075     1.007825032230
         H            0.038026193287    -2.946859280855    -0.508544245075     1.007825032230
         H            2.168026193287    -1.499859280855    -0.216544245075     1.007825032230
         H           -1.335973806713    -0.208859280855    -2.294544245075     1.007825032230
         H            2.846026193287     0.860140719145     0.095455754925     1.007825032230
         H           -0.672973806713     2.136140719145    -1.970544245075     1.007825032230
         H            1.418026193287     2.682140719145    -0.775544245075     1.007825032230
         H            0.629966193287    -3.002189280855    -2.186514245075     1.007825032230

  Running in c1 symmetry.

  Rotational constants: A =      0.04842  B =      0.02594  C =      0.02305 [cm^-1]
  Rotational constants: A =   1451.55928  B =    777.71017  C =    691.04707 [MHz]
  Nuclear repulsion =  502.472352381508017

  Charge       = 0
  Multiplicity = 1
  Electrons    = 76
  Nalpha       = 38
  Nbeta        = 38

  ==> Algorithm <==

  SCF Algorithm Type is PK.
  DIIS enabled.
  MOM disabled.
  Fractional occupation disabled.
  Guess Type is SAD.
  Energy threshold   = 1.00e-06
  Density threshold  = 1.00e-10
  Integral threshold = 0.00e+00

  ==> Primary Basis <==

  Basis Set: CC-PVDZ
    Blend: CC-PVDZ
    Number of shells: 108
    Number of basis function: 220
    Number of Cartesian functions: 230
    Spherical Harmonics?: true
    Max angular momentum: 2

  ==> Pre-Iterations <==

   -------------------------------------------------------
    Irrep   Nso     Nmo     Nalpha   Nbeta   Ndocc  Nsocc
   -------------------------------------------------------
     A        220     220       0       0       0       0
   -------------------------------------------------------
    Total     220     220      38      38      38       0
   -------------------------------------------------------

  ==> Integral Setup <==

  Using integral reordering PK algorithm.
  Sizing the integral batches needed.
  Building batch lookup table.
   Calculation information:
      Number of atoms:                  26
      Number of AO shells:             108
      Number of primitives:            300
      Number of atomic orbitals:       230
      Number of basis functions:       220

      Integral cutoff                 1.00e-12
      Number of threads:                 1

	Batch   1 pq = [       0,    9405] index = [             0,44231715] size =     44231715
	Batch   2 pq = [    9405,   13301] index = [      44231715,88464951] size =     44233236
	Batch   3 pq = [   13301,   16290] index = [      88464951,132690195] size =     44225244
	Batch   4 pq = [   16290,   18810] index = [     132690195,176917455] size =     44227260
	Batch   5 pq = [   18810,   21030] index = [     176917455,221140965] size =     44223510
	Batch   6 pq = [   21030,   23037] index = [     221140965,265363203] size =     44222238
	Batch   7 pq = [   23037,   24310] index = [     265363203,295500205] size =     30137002
  Task number: 27
  Buffer size: 11059200
  Buffer per thread: 2
  We computed 17633697 shell quartets total.
  Whereas there are 17325441 unique shell quartets.
     1.78 percent of shell quartets recomputed by reordering.

  ==> DiskJK: Disk-Based J/K Matrices <==

    J tasked:                  Yes
    K tasked:                  Yes
    wK tasked:                  No
    Memory [MiB]:              375
    Schwarz Cutoff:          1E-12

    OpenMP threads:              1

  Minimum eigenvalue in the overlap matrix is 3.0822130560E-04.
  Using Symmetric Orthogonalization.

  SCF Guess: Superposition of Atomic Densities via on-the-fly atomic UHF.

  ==> Iterations <==

                        Total Energy        Delta E     RMS |[F,P]|

   @RHF iter SAD:  -386.87597424680712   -3.86876e+02   0.00000e+00
   @RHF iter   1:  -387.77391308368300   -8.97939e-01   2.75163e-03 DIIS
   @RHF iter   2:  -387.99246285351660   -2.18550e-01   1.16535e-03 DIIS
   @RHF iter   3:  -388.02809372908933   -3.56309e-02   2.50159e-04 DIIS
   @RHF iter   4:  -388.03097621647856   -2.88249e-03   5.11920e-05 DIIS
   @RHF iter   5:  -388.03106333172241   -8.71152e-05   1.55486e-05 DIIS
   @RHF iter   6:  -388.03107100953798   -7.67782e-06   4.67086e-06 DIIS
   @RHF iter   7:  -388.03107177043046   -7.60892e-07   1.23394e-06 DIIS
   @RHF iter   8:  -388.03107183239757   -6.19671e-08   2.83871e-07 DIIS
   @RHF iter   9:  -388.03107183973555   -7.33797e-09   1.17744e-07 DIIS
   @RHF iter  10:  -388.03107184131392   -1.57837e-09   5.60422e-08 DIIS
   @RHF iter  11:  -388.03107184181863   -5.04713e-10   2.15642e-08 DIIS
   @RHF iter  12:  -388.03107184190310   -8.44693e-11   8.00079e-09 DIIS
   @RHF iter  13:  -388.03107184191094   -7.84439e-12   3.23818e-09 DIIS
   @RHF iter  14:  -388.03107184190901    1.93268e-12   8.60525e-10 DIIS
   @RHF iter  15:  -388.03107184191055   -1.53477e-12   3.11527e-10 DIIS
   @RHF iter  16:  -388.03107184191191   -1.36424e-12   1.03597e-10 DIIS
   @RHF iter  17:  -388.03107184191049    1.42109e-12   4.81142e-11 DIIS
  Energy and wave function converged.

  ==> Post-Iterations <==

    Orbital Energies [Eh]
    ---------------------

    Doubly Occupied:

       1A    -11.241234     2A    -11.237566     3A    -11.236662
       4A    -11.232773     5A    -11.231409     6A    -11.231205
       7A    -11.230184     8A    -11.210608     9A    -11.210543
      10A    -11.208095    11A     -1.155215    12A     -1.046525
      13A     -1.042479    14A     -1.013207    15A     -0.932477
      16A     -0.916715    17A     -0.827252    18A     -0.796714
      19A     -0.786477    20A     -0.692853    21A     -0.632997
      22A     -0.631797    23A     -0.616612    24A     -0.586873
      25A     -0.584097    26A     -0.576769    27A     -0.564235
      28A     -0.540529    29A     -0.536417    30A     -0.524382
      31A     -0.491353    32A     -0.486268    33A     -0.483214
      34A     -0.465635    35A     -0.458361    36A     -0.454159
      37A     -0.333831    38A     -0.323871

    Virtual:

      39A      0.132475    40A      0.140504    41A      0.169840
      42A      0.192815    43A      0.201774    44A      0.207711
      45A      0.239794    46A      0.241545    47A      0.247054
      48A      0.249922    49A      0.254569    50A      0.261195
      51A      0.281756    52A      0.283819    53A      0.292917
      54A      0.310411    55A      0.314697    56A      0.321405
      57A      0.365831    58A      0.374842    59A      0.378147
      60A      0.433687    61A      0.450372    62A      0.460478
      63A      0.474906    64A      0.499111    65A      0.564672
      66A      0.576076    67A      0.589987    68A      0.595552
      69A      0.603707    70A      0.615292    71A      0.624411
      72A      0.660293    73A      0.680305    74A      0.696206
      75A      0.706481    76A      0.738043    77A      0.741288
      78A      0.744136    79A      0.756708    80A      0.758943
      81A      0.772177    82A      0.782545    83A      0.793388
      84A      0.808719    85A      0.825132    86A      0.837153
      87A      0.850828    88A      0.862682    89A      0.866142
      90A      0.873869    91A      0.886940    92A      0.893428
      93A      0.897664    94A      0.900435    95A      0.905099
      96A      0.911689    97A      0.917064    98A      0.920774
      99A      0.929623   100A      0.938553   101A      0.943322
     102A      0.952877   103A      0.955823   104A      0.988420
     105A      0.989977   106A      0.999316   107A      1.032340
     108A      1.115641   109A      1.127967   110A      1.133011
     111A      1.140634   112A      1.146078   113A      1.151706
     114A      1.160144   115A      1.199078   116A      1.226620
     117A      1.241335   118A      1.250411   119A      1.256307
     120A      1.296178   121A      1.302355   122A      1.317126
     123A      1.325976   124A      1.350591   125A      1.384180
     126A      1.430543   127A      1.476834   128A      1.499055
     129A      1.507894   130A      1.523445   131A      1.527048
     132A      1.569248   133A      1.604348   134A      1.642179
     135A      1.679453   136A      1.683921   137A      1.687581
     138A      1.689566   139A      1.698035   140A      1.735185
     141A      1.743915   142A      1.761241   143A      1.794817
     144A      1.837533   145A      1.851431   146A      1.860599
     147A      1.877061   148A      1.881530   149A      1.895878
     150A      1.900833   151A      1.905575   152A      1.911667
     153A      1.925904   154A      1.930339   155A      1.945301
     156A      1.948842   157A      1.953113   158A      1.962338
     159A      1.972311   160A      1.974755   161A      1.978485
     162A      1.982796   163A      2.000857   164A      2.007540
     165A      2.009864   166A      2.022342   167A      2.037516
     168A      2.041922   169A      2.063360   170A      2.085744
     171A      2.111147   172A      2.129896   173A      2.136217
     174A      2.156985   175A      2.160876   176A      2.170799
     177A      2.175756   178A      2.195835   179A      2.244212
     180A      2.273375   181A      2.287967   182A      2.294892
     183A      2.301759   184A      2.308477   185A      2.318129
     186A      2.333407   187A      2.339654   188A      2.362506
     189A      2.451445   190A      2.479409   191A      2.503788
     192A      2.520093   193A      2.529529   194A      2.543456
     195A      2.600289   196A      2.620905   197A      2.632464
     198A      2.635757   199A      2.737881   200A      2.753526
     201A      2.759644   202A      2.764038   203A      2.772161
     204A      2.786103   205A      2.797799   206A      2.809206
     207A      2.815870   208A      2.848347   209A      2.867649
     210A      2.942319   211A      2.969910   212A      2.974998
     213A      2.988934   214A      3.011929   215A      3.038268
     216A      3.111885   217A      3.162448   218A      3.201906
     219A      3.302949   220A      3.972004

    Final Occupation by Irrep:
              A
    DOCC [    38 ]

  @RHF Final Energy:  -388.03107184191049

   => Energetics <=

    Nuclear Repulsion Energy =            502.4723523815080171
    One-Electron Energy =               -1519.4636638436650173
    Two-Electron Energy =                 628.9602396202465115
    Total Energy =                       -388.0310718419104887

Computation Completed

Properties will be evaluated at   0.000000,   0.000000,   0.000000 [a0]

Properties computed using the SCF density matrix

  Nuclear Dipole Moment: [e a0]
     X:    -6.1199      Y:    -2.0807      Z:     9.4594

  Electronic Dipole Moment: [e a0]
     X:     6.1398      Y:     1.9504      Z:    -9.5881

  Dipole Moment: [e a0]
     X:     0.0199      Y:    -0.1304      Z:    -0.1287     Total:     0.1843

  Dipole Moment: [D]
     X:     0.0506      Y:    -0.3314      Z:    -0.3271     Total:     0.4684

*** tstop() called on ds3 at Tue Apr 28 11:30:42 2020
Module time:
	user time   =     125.85 seconds =       2.10 minutes
	system time =      40.39 seconds =       0.67 minutes
	total time  =        219 seconds =       3.65 minutes
Total time:
	user time   =     125.85 seconds =       2.10 minutes
	system time =      40.39 seconds =       0.67 minutes
	total time  =        219 seconds =       3.65 minutes
                                     G D M A

                                 by Anthony Stone

                           version 2.2.06, 22 June 2011

               Distributed Multipoles from Gaussian wavefunctions

Starting at 11:30:42 on 28 Apr 2020

Using SCF density matrix from file ./SSI/SSI-074LEU-107PHE-1-dimer.test.17665.fchk

                         Distributed Multipole Analysis

Standard DMA

Positions and radii in angstrom
Multipole moments in atomic units, ea_0^k for rank k

C          x = -1.439974  y = -0.065859  z =  1.982456 angstrom
           Maximum rank =  0   Radius =  0.650 angstrom
                   Q00  =  -0.079663

C          x = -0.397974  y = -0.457859  z =  3.029456 angstrom
           Maximum rank =  0   Radius =  0.650 angstrom
                   Q00  =  -0.239578

C          x = -2.148974  y =  1.267141  z =  2.251456 angstrom
           Maximum rank =  0   Radius =  0.650 angstrom
                   Q00  =  -0.248027

H          x = -0.950974  y = -0.008859  z =  1.010456 angstrom
           Maximum rank =  0   Radius =  0.325 angstrom
                   Q00  =   0.066989

H          x = -2.192974  y = -0.853859  z =  1.928456 angstrom
           Maximum rank =  0   Radius =  0.325 angstrom
                   Q00  =   0.035802

H          x =  0.384026  y =  0.303141  z =  3.036456 angstrom
           Maximum rank =  0   Radius =  0.325 angstrom
                   Q00  =   0.075743

H          x = -2.627974  y =  1.232141  z =  3.229456 angstrom
           Maximum rank =  0   Radius =  0.325 angstrom
                   Q00  =   0.071007

H          x =  0.051136  y = -1.430809  z =  2.781126 angstrom
           Maximum rank =  0   Radius =  0.325 angstrom
                   Q00  =   0.081322

H          x = -0.863194  y = -0.507059  z =  4.025016 angstrom
           Maximum rank =  0   Radius =  0.325 angstrom
                   Q00  =   0.070867

H          x = -1.428774  y =  2.098591  z =  2.249286 angstrom
           Maximum rank =  0   Radius =  0.325 angstrom
                   Q00  =   0.076273

H          x = -2.939484  y =  1.440401  z =  1.506426 angstrom
           Maximum rank =  0   Radius =  0.325 angstrom
                   Q00  =   0.082265

C          x = -0.014974  y = -2.455859  z = -1.482544 angstrom
           Maximum rank =  0   Radius =  0.650 angstrom
                   Q00  =  -0.205401

C          x =  0.385026  y = -1.019859  z = -1.292544 angstrom
           Maximum rank =  0   Radius =  0.650 angstrom
                   Q00  =  -0.093902

C          x =  1.558026  y = -0.704859  z = -0.613544 angstrom
           Maximum rank =  0   Radius =  0.650 angstrom
                   Q00  =  -0.047132

C          x = -0.413974  y =  0.010141  z = -1.779544 angstrom
           Maximum rank =  0   Radius =  0.650 angstrom
                   Q00  =  -0.012707

C          x =  1.934026  y =  0.624141  z = -0.428544 angstrom
           Maximum rank =  0   Radius =  0.650 angstrom
                   Q00  =  -0.085523

C          x = -0.043974  y =  1.340141  z = -1.594544 angstrom
           Maximum rank =  0   Radius =  0.650 angstrom
                   Q00  =  -0.077745

C          x =  1.131026  y =  1.649141  z = -0.919544 angstrom
           Maximum rank =  0   Radius =  0.650 angstrom
                   Q00  =  -0.080379

H          x = -1.050974  y = -2.513859  z = -1.819544 angstrom
           Maximum rank =  0   Radius =  0.325 angstrom
                   Q00  =   0.098890

H          x =  0.038026  y = -2.946859  z = -0.508544 angstrom
           Maximum rank =  0   Radius =  0.325 angstrom
                   Q00  =   0.097874

H          x =  2.168026  y = -1.499859  z = -0.216544 angstrom
           Maximum rank =  0   Radius =  0.325 angstrom
                   Q00  =   0.056038

H          x = -1.335974  y = -0.208859  z = -2.294544 angstrom
           Maximum rank =  0   Radius =  0.325 angstrom
                   Q00  =   0.058535

H          x =  2.846026  y =  0.860141  z =  0.095456 angstrom
           Maximum rank =  0   Radius =  0.325 angstrom
                   Q00  =   0.065746

H          x = -0.672974  y =  2.136141  z = -1.970544 angstrom
           Maximum rank =  0   Radius =  0.325 angstrom
                   Q00  =   0.065855

H          x =  1.418026  y =  2.682141  z = -0.775544 angstrom
           Maximum rank =  0   Radius =  0.325 angstrom
                   Q00  =   0.062459

H          x =  0.629966  y = -3.002189  z = -2.186514 angstrom
           Maximum rank =  0   Radius =  0.325 angstrom
                   Q00  =   0.104391

Total multipoles referred to origin at
           x =   0.000000,  y =    0.000000,  z =    0.000000 angstrom
                   Q00  =  -0.000000

Finished at 11:30:42 on 28 Apr 2020

  DMA results are available in the Python driver through the
	  variable('DMA DISTRIBUTED MULTIPOLES')
  and
	  variable('DMA TOTAL MULTIPOLES')
  commands.

    Psi4 stopped on: Tuesday, 28 April 2020 11:30AM
    Psi4 wall time for execution: 0:03:38.98

*** Psi4 exiting successfully. Buy a developer a beer!
