                               Psi4 1.3.2 release

  ==> Input File <==

--------------------------------------------------------------------------
import numpy as np
set {scf_type pk
basis cc-pvdz
d_convergence 10
gdma_switch   0
gdma_limit    0
gdma_origin   [ 0.0,  0.0,  0.0 ]
}
molecule test {
    units Angstrom
    0 1
    --
    0 1
    C               -0.685660441084600     1.783448779327727     1.910254410723240
    C               -1.247660441084600     1.613448779327727     3.318254410723240
    H               -0.175660441084600     2.735448779327726     1.793254410723240
    H                0.024339558915400     0.982448779327727     1.704254410723240
    H               -1.494660441084600     1.734448779327727     1.181254410723241
    H               -0.407660441084600     1.574448779327727     4.013254410723240
    H               -1.892312441084600     2.461218779327726     3.593404410723240
    H               -1.798533441084600     0.664238779327727     3.392714410723241
    C               -0.632660441084600    -3.039551220672274     0.388254410723241
    C               -1.060660441084600    -0.843551220672273    -0.771745589276760
    C               -0.159660441084600    -1.720551220672273    -0.175745589276760
    C               -0.653660441084600     0.367448779327727    -1.297745589276760
    C                1.182339558915400    -1.348551220672273    -0.126745589276759
    C                0.678339558915400     0.731448779327727    -1.254745589276760
    C                1.594339558915400    -0.140551220672273    -0.682745589276760
    O                1.049339558915400     1.935448779327727    -1.782745589276759
    H               -2.104660441084599    -1.078551220672273    -0.818745589276760
    H               -1.373660441084600     1.041448779327727    -1.741745589276759
    H               -1.710660441084600    -3.002551220672274     0.533254410723240
    H               -0.188660441084600    -3.154551220672273     1.378254410723240
    H                1.905339558915400    -2.006551220672273     0.336254410723241
    H                2.637339558915401     0.136448779327727    -0.644745589276760
    H                2.030339558915401     2.042448779327727    -1.781745589276760
    H               -0.377110441084600    -3.925801220672274    -0.211125589276760

}
e, wfn = energy('scf', return_wfn=True)
gdma(wfn)
dmavals = variable('DMA DISTRIBUTED MULTIPOLES')
charges = np.array(dmavals)
print(charges)
np.save('SSI-018VAL-164TYR-1-dimer.npy', np.array(charges))--------------------------------------------------------------------------

*** tstart() called on ds3
*** at Mon Apr 27 20:10:06 2020

   => Loading Basis Set <=

    Name: CC-PVDZ
    Role: ORBITAL
    Keyword: BASIS
    atoms 1-2, 9-15  entry C          line   138 file /theoryfs2/ds/metcalf/miniconda2/envs/tf2gpu/share/psi4/basis/cc-pvdz.gbs
    atoms 3-8, 17-24 entry H          line    22 file /theoryfs2/ds/metcalf/miniconda2/envs/tf2gpu/share/psi4/basis/cc-pvdz.gbs
    atoms 16         entry O          line   198 file /theoryfs2/ds/metcalf/miniconda2/envs/tf2gpu/share/psi4/basis/cc-pvdz.gbs

         ---------------------------------------------------------
                                   SCF
               by Justin Turney, Rob Parrish, Andy Simmonett
                          and Daniel G. A. Smith
                              RHF Reference
                        1 Threads,    500 MiB Core
         ---------------------------------------------------------

  ==> Geometry <==

    Molecular point group: c1
    Full point group: C1

    Geometry (in Angstrom), charge = 0, multiplicity = 1:

       Center              X                  Y                   Z               Mass
    ------------   -----------------  -----------------  -----------------  -----------------
         C           -0.685660441085     1.783448779328     1.910254410723    12.000000000000
         C           -1.247660441085     1.613448779328     3.318254410723    12.000000000000
         H           -0.175660441085     2.735448779328     1.793254410723     1.007825032230
         H            0.024339558915     0.982448779328     1.704254410723     1.007825032230
         H           -1.494660441085     1.734448779328     1.181254410723     1.007825032230
         H           -0.407660441085     1.574448779328     4.013254410723     1.007825032230
         H           -1.892312441085     2.461218779328     3.593404410723     1.007825032230
         H           -1.798533441085     0.664238779328     3.392714410723     1.007825032230
         C           -0.632660441085    -3.039551220672     0.388254410723    12.000000000000
         C           -1.060660441085    -0.843551220672    -0.771745589277    12.000000000000
         C           -0.159660441085    -1.720551220672    -0.175745589277    12.000000000000
         C           -0.653660441085     0.367448779328    -1.297745589277    12.000000000000
         C            1.182339558915    -1.348551220672    -0.126745589277    12.000000000000
         C            0.678339558915     0.731448779328    -1.254745589277    12.000000000000
         C            1.594339558915    -0.140551220672    -0.682745589277    12.000000000000
         O            1.049339558915     1.935448779328    -1.782745589277    15.994914619570
         H           -2.104660441085    -1.078551220672    -0.818745589277     1.007825032230
         H           -1.373660441085     1.041448779328    -1.741745589277     1.007825032230
         H           -1.710660441085    -3.002551220672     0.533254410723     1.007825032230
         H           -0.188660441085    -3.154551220672     1.378254410723     1.007825032230
         H            1.905339558915    -2.006551220672     0.336254410723     1.007825032230
         H            2.637339558915     0.136448779328    -0.644745589277     1.007825032230
         H            2.030339558915     2.042448779328    -1.781745589277     1.007825032230
         H           -0.377110441085    -3.925801220672    -0.211125589277     1.007825032230

  Running in c1 symmetry.

  Rotational constants: A =      0.03829  B =      0.03242  C =      0.02154 [cm^-1]
  Rotational constants: A =   1148.02105  B =    971.92389  C =    645.85093 [MHz]
  Nuclear repulsion =  506.853521080005066

  Charge       = 0
  Multiplicity = 1
  Electrons    = 76
  Nalpha       = 38
  Nbeta        = 38

  ==> Algorithm <==

  SCF Algorithm Type is PK.
  DIIS enabled.
  MOM disabled.
  Fractional occupation disabled.
  Guess Type is SAD.
  Energy threshold   = 1.00e-06
  Density threshold  = 1.00e-10
  Integral threshold = 0.00e+00

  ==> Primary Basis <==

  Basis Set: CC-PVDZ
    Blend: CC-PVDZ
    Number of shells: 102
    Number of basis function: 210
    Number of Cartesian functions: 220
    Spherical Harmonics?: true
    Max angular momentum: 2

  ==> Pre-Iterations <==

   -------------------------------------------------------
    Irrep   Nso     Nmo     Nalpha   Nbeta   Ndocc  Nsocc
   -------------------------------------------------------
     A        210     210       0       0       0       0
   -------------------------------------------------------
    Total     210     210      38      38      38       0
   -------------------------------------------------------

  ==> Integral Setup <==

  Using integral reordering PK algorithm.
  Sizing the integral batches needed.
  Building batch lookup table.
   Calculation information:
      Number of atoms:                  24
      Number of AO shells:             102
      Number of primitives:            290
      Number of atomic orbitals:       220
      Number of basis functions:       210

      Integral cutoff                 1.00e-12
      Number of threads:                 1

	Batch   1 pq = [       0,    9405] index = [             0,44231715] size =     44231715
	Batch   2 pq = [    9405,   13301] index = [      44231715,88464951] size =     44233236
	Batch   3 pq = [   13301,   16290] index = [      88464951,132690195] size =     44225244
	Batch   4 pq = [   16290,   18810] index = [     132690195,176917455] size =     44227260
	Batch   5 pq = [   18810,   21030] index = [     176917455,221140965] size =     44223510
	Batch   6 pq = [   21030,   22155] index = [     221140965,245433090] size =     24292125
  Task number: 23
  Buffer size: 11059200
  Buffer per thread: 2
  We computed 12909528 shell quartets total.
  Whereas there are 13799631 unique shell quartets.

  ==> DiskJK: Disk-Based J/K Matrices <==

    J tasked:                  Yes
    K tasked:                  Yes
    wK tasked:                  No
    Memory [MiB]:              375
    Schwarz Cutoff:          1E-12

    OpenMP threads:              1

  Minimum eigenvalue in the overlap matrix is 3.1454519813E-04.
  Using Symmetric Orthogonalization.

  SCF Guess: Superposition of Atomic Densities via on-the-fly atomic UHF.

  ==> Iterations <==

                        Total Energy        Delta E     RMS |[F,P]|

   @RHF iter SAD:  -422.72267312348527   -4.22723e+02   0.00000e+00
   @RHF iter   1:  -423.59681351384188   -8.74140e-01   2.99481e-03 DIIS
   @RHF iter   2:  -423.81541650754104   -2.18603e-01   1.27172e-03 DIIS
   @RHF iter   3:  -423.85103569390321   -3.56192e-02   2.84491e-04 DIIS
   @RHF iter   4:  -423.85391842132844   -2.88273e-03   1.18247e-04 DIIS
   @RHF iter   5:  -423.85427794406013   -3.59523e-04   2.11050e-05 DIIS
   @RHF iter   6:  -423.85429612325174   -1.81792e-05   6.46350e-06 DIIS
   @RHF iter   7:  -423.85429778064304   -1.65739e-06   2.08351e-06 DIIS
   @RHF iter   8:  -423.85429798500479   -2.04362e-07   7.67816e-07 DIIS
   @RHF iter   9:  -423.85429801193635   -2.69316e-08   2.52501e-07 DIIS
   @RHF iter  10:  -423.85429801514687   -3.21052e-09   7.94188e-08 DIIS
   @RHF iter  11:  -423.85429801565385   -5.06986e-10   3.43451e-08 DIIS
   @RHF iter  12:  -423.85429801577152   -1.17666e-10   2.01343e-08 DIIS
   @RHF iter  13:  -423.85429801581836   -4.68390e-11   7.87519e-09 DIIS
   @RHF iter  14:  -423.85429801582569   -7.33280e-12   2.12674e-09 DIIS
   @RHF iter  15:  -423.85429801582586   -1.70530e-13   7.18486e-10 DIIS
   @RHF iter  16:  -423.85429801582507    7.95808e-13   2.11812e-10 DIIS
   @RHF iter  17:  -423.85429801582643   -1.36424e-12   8.59217e-11 DIIS
  Energy and wave function converged.

  ==> Post-Iterations <==

    Orbital Energies [Eh]
    ---------------------

    Doubly Occupied:

       1A    -20.585867     2A    -11.296510     3A    -11.239450
       4A    -11.234481     5A    -11.233415     6A    -11.233206
       7A    -11.228609     8A    -11.225777     9A    -11.210783
      10A    -11.202449    11A     -1.393924    12A     -1.153471
      13A     -1.038132    14A     -1.019124    15A     -1.008236
      16A     -0.927443    17A     -0.844578    18A     -0.826200
      19A     -0.801407    20A     -0.729192    21A     -0.668293
      22A     -0.640480    23A     -0.607175    24A     -0.591387
      25A     -0.587439    26A     -0.585464    27A     -0.583905
      28A     -0.568858    29A     -0.567442    30A     -0.526941
      31A     -0.499330    32A     -0.492299    33A     -0.484090
      34A     -0.481197    35A     -0.473312    36A     -0.461192
      37A     -0.338921    38A     -0.303187

    Virtual:

      39A      0.131736    40A      0.155141    41A      0.175154
      42A      0.180658    43A      0.202563    44A      0.210729
      45A      0.221228    46A      0.247239    47A      0.259407
      48A      0.264565    49A      0.267226    50A      0.274911
      51A      0.280096    52A      0.293764    53A      0.301763
      54A      0.312283    55A      0.370644    56A      0.377048
      57A      0.393788    58A      0.433570    59A      0.455625
      60A      0.492433    61A      0.497221    62A      0.508272
      63A      0.581414    64A      0.590157    65A      0.607445
      66A      0.610951    67A      0.638823    68A      0.648462
      69A      0.660496    70A      0.672019    71A      0.677815
      72A      0.696240    73A      0.701075    74A      0.731755
      75A      0.736792    76A      0.764226    77A      0.769172
      78A      0.775470    79A      0.791412    80A      0.798708
      81A      0.828635    82A      0.831606    83A      0.850703
      84A      0.865606    85A      0.874872    86A      0.885177
      87A      0.889057    88A      0.898116    89A      0.899790
      90A      0.901806    91A      0.916335    92A      0.923136
      93A      0.926494    94A      0.937238    95A      0.939966
      96A      0.946007    97A      0.969317    98A      0.973035
      99A      0.996073   100A      1.022899   101A      1.045803
     102A      1.094450   103A      1.130301   104A      1.133217
     105A      1.136802   106A      1.148970   107A      1.166259
     108A      1.176063   109A      1.205648   110A      1.227906
     111A      1.250055   112A      1.263028   113A      1.280886
     114A      1.285280   115A      1.302665   116A      1.313022
     117A      1.334720   118A      1.358274   119A      1.366979
     120A      1.381111   121A      1.480247   122A      1.493551
     123A      1.496055   124A      1.507563   125A      1.523878
     126A      1.547457   127A      1.594782   128A      1.616863
     129A      1.630275   130A      1.674128   131A      1.689320
     132A      1.696622   133A      1.718194   134A      1.734156
     135A      1.746823   136A      1.785313   137A      1.808228
     138A      1.818414   139A      1.866224   140A      1.874247
     141A      1.886750   142A      1.894352   143A      1.900137
     144A      1.906090   145A      1.917812   146A      1.927384
     147A      1.936675   148A      1.945943   149A      1.955651
     150A      1.958395   151A      1.963192   152A      1.974742
     153A      1.977511   154A      1.984426   155A      2.002669
     156A      2.006894   157A      2.039638   158A      2.054226
     159A      2.070451   160A      2.081704   161A      2.097148
     162A      2.104610   163A      2.131026   164A      2.136359
     165A      2.152652   166A      2.178448   167A      2.211755
     168A      2.225183   169A      2.259008   170A      2.276857
     171A      2.303499   172A      2.314392   173A      2.322196
     174A      2.346261   175A      2.391633   176A      2.417029
     177A      2.439404   178A      2.462330   179A      2.479833
     180A      2.484404   181A      2.506585   182A      2.532403
     183A      2.568048   184A      2.574434   185A      2.586880
     186A      2.607263   187A      2.641610   188A      2.748963
     189A      2.770458   190A      2.772547   191A      2.796471
     192A      2.806443   193A      2.821122   194A      2.849770
     195A      2.861295   196A      2.877338   197A      2.906591
     198A      2.967685   199A      2.978347   200A      2.983126
     201A      3.011663   202A      3.098863   203A      3.130270
     204A      3.243328   205A      3.298858   206A      3.338824
     207A      3.575402   208A      3.679342   209A      3.955302
     210A      4.174091

    Final Occupation by Irrep:
              A
    DOCC [    38 ]

  @RHF Final Energy:  -423.85429801582643

   => Energetics <=

    Nuclear Repulsion Energy =            506.8535210800050663
    One-Electron Energy =               -1579.6293023799944422
    Two-Electron Energy =                 648.9214832841629459
    Total Energy =                       -423.8542980158264299

Computation Completed

Properties will be evaluated at   0.000000,   0.000000,   0.000000 [a0]

Properties computed using the SCF density matrix

  Nuclear Dipole Moment: [e a0]
     X:    -4.6131      Y:     0.2011      Z:    11.9234

  Electronic Dipole Moment: [e a0]
     X:     5.1211      Y:    -0.5132      Z:   -11.8434

  Dipole Moment: [e a0]
     X:     0.5079      Y:    -0.3121      Z:     0.0800     Total:     0.6015

  Dipole Moment: [D]
     X:     1.2911      Y:    -0.7934      Z:     0.2033     Total:     1.5289

*** tstop() called on ds3 at Mon Apr 27 20:12:09 2020
Module time:
	user time   =      90.95 seconds =       1.52 minutes
	system time =      35.97 seconds =       0.60 minutes
	total time  =        123 seconds =       2.05 minutes
Total time:
	user time   =      90.95 seconds =       1.52 minutes
	system time =      35.97 seconds =       0.60 minutes
	total time  =        123 seconds =       2.05 minutes
                                     G D M A

                                 by Anthony Stone

                           version 2.2.06, 22 June 2011

               Distributed Multipoles from Gaussian wavefunctions

Starting at 20:12:9 on 27 Apr 2020

Using SCF density matrix from file ./SSI/SSI-018VAL-164TYR-1-dimer.test.13657.fchk

                         Distributed Multipole Analysis

Standard DMA

Positions and radii in angstrom
Multipole moments in atomic units, ea_0^k for rank k

C          x = -0.685660  y =  1.783449  z =  1.910254 angstrom
           Maximum rank =  0   Radius =  0.650 angstrom
                   Q00  =  -0.235959

C          x = -1.247660  y =  1.613449  z =  3.318254 angstrom
           Maximum rank =  0   Radius =  0.650 angstrom
                   Q00  =  -0.230799

H          x = -0.175660  y =  2.735449  z =  1.793254 angstrom
           Maximum rank =  0   Radius =  0.325 angstrom
                   Q00  =   0.074223

H          x =  0.024340  y =  0.982449  z =  1.704254 angstrom
           Maximum rank =  0   Radius =  0.325 angstrom
                   Q00  =   0.084767

H          x = -1.494660  y =  1.734449  z =  1.181254 angstrom
           Maximum rank =  0   Radius =  0.325 angstrom
                   Q00  =   0.077355

H          x = -0.407660  y =  1.574449  z =  4.013254 angstrom
           Maximum rank =  0   Radius =  0.325 angstrom
                   Q00  =   0.072463

H          x = -1.892312  y =  2.461219  z =  3.593404 angstrom
           Maximum rank =  0   Radius =  0.325 angstrom
                   Q00  =   0.075857

H          x = -1.798533  y =  0.664239  z =  3.392714 angstrom
           Maximum rank =  0   Radius =  0.325 angstrom
                   Q00  =   0.075876

C          x = -0.632660  y = -3.039551  z =  0.388254 angstrom
           Maximum rank =  0   Radius =  0.650 angstrom
                   Q00  =  -0.205709

C          x = -1.060660  y = -0.843551  z = -0.771746 angstrom
           Maximum rank =  0   Radius =  0.650 angstrom
                   Q00  =   0.066738

C          x = -0.159660  y = -1.720551  z = -0.175746 angstrom
           Maximum rank =  0   Radius =  0.650 angstrom
                   Q00  =  -0.133239

C          x = -0.653660  y =  0.367449  z = -1.297746 angstrom
           Maximum rank =  0   Radius =  0.650 angstrom
                   Q00  =  -0.107194

C          x =  1.182340  y = -1.348551  z = -0.126746 angstrom
           Maximum rank =  0   Radius =  0.650 angstrom
                   Q00  =  -0.057507

C          x =  0.678340  y =  0.731449  z = -1.254746 angstrom
           Maximum rank =  0   Radius =  0.650 angstrom
                   Q00  =   0.307218

C          x =  1.594340  y = -0.140551  z = -0.682746 angstrom
           Maximum rank =  0   Radius =  0.650 angstrom
                   Q00  =  -0.167010

O          x =  1.049340  y =  1.935449  z = -1.782746 angstrom
           Maximum rank =  0   Radius =  0.650 angstrom
                   Q00  =  -0.679417

H          x = -2.104660  y = -1.078551  z = -0.818746 angstrom
           Maximum rank =  0   Radius =  0.325 angstrom
                   Q00  =   0.059807

H          x = -1.373660  y =  1.041449  z = -1.741746 angstrom
           Maximum rank =  0   Radius =  0.325 angstrom
                   Q00  =   0.078029

H          x = -1.710660  y = -3.002551  z =  0.533254 angstrom
           Maximum rank =  0   Radius =  0.325 angstrom
                   Q00  =   0.097771

H          x = -0.188660  y = -3.154551  z =  1.378254 angstrom
           Maximum rank =  0   Radius =  0.325 angstrom
                   Q00  =   0.094508

H          x =  1.905340  y = -2.006551  z =  0.336254 angstrom
           Maximum rank =  0   Radius =  0.325 angstrom
                   Q00  =   0.068182

H          x =  2.637340  y =  0.136449  z = -0.644746 angstrom
           Maximum rank =  0   Radius =  0.325 angstrom
                   Q00  =   0.070536

H          x =  2.030340  y =  2.042449  z = -1.781746 angstrom
           Maximum rank =  0   Radius =  0.325 angstrom
                   Q00  =   0.412057

H          x = -0.377110  y = -3.925801  z = -0.211126 angstrom
           Maximum rank =  0   Radius =  0.325 angstrom
                   Q00  =   0.101445

Total multipoles referred to origin at
           x =   0.000000,  y =    0.000000,  z =    0.000000 angstrom
                   Q00  =  -0.000000

Finished at 20:12:9 on 27 Apr 2020

  DMA results are available in the Python driver through the
	  variable('DMA DISTRIBUTED MULTIPOLES')
  and
	  variable('DMA TOTAL MULTIPOLES')
  commands.

    Psi4 stopped on: Monday, 27 April 2020 08:12PM
    Psi4 wall time for execution: 0:02:03.11

*** Psi4 exiting successfully. Buy a developer a beer!
