                               Psi4 1.3.2 release

  ==> Input File <==

--------------------------------------------------------------------------
import numpy as np
set {scf_type pk
basis cc-pvdz
d_convergence 10
gdma_switch   0
gdma_limit    0
gdma_origin   [ 0.0,  0.0,  0.0 ]
}
molecule test {
    units Angstrom
    0 1
    --
    0 1
    C                2.001557737313676    -2.827291541885820     0.768426682687748
    C                1.783557737313676    -0.787291541885820    -0.613573317312252
    N                0.694557737313676    -0.429291541885820     0.034426682687748
    N                2.416557737313676    -1.903291541885820    -0.292573317312252
    N                2.241557737313676    -0.027291541885820    -1.587573317312251
    H                0.248557737313676    -1.072291541885820     0.676426682687748
    H                0.212557737313676     0.450708458114180    -0.165573317312252
    H                3.181557737313676    -2.180291541885820    -0.908573317312252
    H                3.041557737313676    -0.369291541885820    -2.108573317312251
    H                1.753557737313676     0.813708458114180    -1.855573317312252
    H                1.650557737313676    -3.752291541885820     0.304426682687748
    H                1.195557737313676    -2.428291541885820     1.383426682687748
    H                2.844457737313676    -3.062518541885821     1.434903682687748
    C               -3.109442262686324     0.448708458114180    -0.130573317312252
    C               -2.229442262686324     1.551708458114180     0.448426682687748
    O               -1.055442262686324     1.707708458114180     0.042426682687748
    O               -2.723442262686324     2.266708458114180     1.345426682687748
    H               -4.096442262686324     0.856708458114180    -0.355573317312252
    H               -3.232442262686324    -0.322291541885820     0.630426682687748
    H               -2.697292262686324    -0.002213541885820    -1.045342427312252

}
e, wfn = energy('scf', return_wfn=True)
gdma(wfn)
dmavals = variable('DMA DISTRIBUTED MULTIPOLES')
charges = np.array(dmavals)
print(charges)
np.save('SSI-009ARG-106ASP-1-dimer.npy', np.array(charges))--------------------------------------------------------------------------

*** tstart() called on ds3
*** at Tue Apr 28 20:47:48 2020

   => Loading Basis Set <=

    Name: CC-PVDZ
    Role: ORBITAL
    Keyword: BASIS
    atoms 1-2, 14-15  entry C          line   138 file /theoryfs2/ds/metcalf/miniconda2/envs/tf2gpu/share/psi4/basis/cc-pvdz.gbs
    atoms 3-5         entry N          line   168 file /theoryfs2/ds/metcalf/miniconda2/envs/tf2gpu/share/psi4/basis/cc-pvdz.gbs
    atoms 6-13, 18-20 entry H          line    22 file /theoryfs2/ds/metcalf/miniconda2/envs/tf2gpu/share/psi4/basis/cc-pvdz.gbs
    atoms 16-17       entry O          line   198 file /theoryfs2/ds/metcalf/miniconda2/envs/tf2gpu/share/psi4/basis/cc-pvdz.gbs

         ---------------------------------------------------------
                                   SCF
               by Justin Turney, Rob Parrish, Andy Simmonett
                          and Daniel G. A. Smith
                              RHF Reference
                        1 Threads,    500 MiB Core
         ---------------------------------------------------------

  ==> Geometry <==

    Molecular point group: c1
    Full point group: C1

    Geometry (in Angstrom), charge = 0, multiplicity = 1:

       Center              X                  Y                   Z               Mass
    ------------   -----------------  -----------------  -----------------  -----------------
         C            2.001557737314    -2.827291541886     0.768426682688    12.000000000000
         C            1.783557737314    -0.787291541886    -0.613573317312    12.000000000000
         N            0.694557737314    -0.429291541886     0.034426682688    14.003074004430
         N            2.416557737314    -1.903291541886    -0.292573317312    14.003074004430
         N            2.241557737314    -0.027291541886    -1.587573317312    14.003074004430
         H            0.248557737314    -1.072291541886     0.676426682688     1.007825032230
         H            0.212557737314     0.450708458114    -0.165573317312     1.007825032230
         H            3.181557737314    -2.180291541886    -0.908573317312     1.007825032230
         H            3.041557737314    -0.369291541886    -2.108573317312     1.007825032230
         H            1.753557737314     0.813708458114    -1.855573317312     1.007825032230
         H            1.650557737314    -3.752291541886     0.304426682688     1.007825032230
         H            1.195557737314    -2.428291541886     1.383426682688     1.007825032230
         H            2.844457737314    -3.062518541886     1.434903682688     1.007825032230
         C           -3.109442262686     0.448708458114    -0.130573317312    12.000000000000
         C           -2.229442262686     1.551708458114     0.448426682688    12.000000000000
         O           -1.055442262686     1.707708458114     0.042426682688    15.994914619570
         O           -2.723442262686     2.266708458114     1.345426682688    15.994914619570
         H           -4.096442262686     0.856708458114    -0.355573317312     1.007825032230
         H           -3.232442262686    -0.322291541886     0.630426682688     1.007825032230
         H           -2.697292262686    -0.002213541886    -1.045342427312     1.007825032230

  Running in c1 symmetry.

  Rotational constants: A =      0.09649  B =      0.01781  C =      0.01635 [cm^-1]
  Rotational constants: A =   2892.66069  B =    533.97483  C =    490.23913 [MHz]
  Nuclear repulsion =  444.288768314992694

  Charge       = 0
  Multiplicity = 1
  Electrons    = 72
  Nalpha       = 36
  Nbeta        = 36

  ==> Algorithm <==

  SCF Algorithm Type is PK.
  DIIS enabled.
  MOM disabled.
  Fractional occupation disabled.
  Guess Type is SAD.
  Energy threshold   = 1.00e-06
  Density threshold  = 1.00e-10
  Integral threshold = 0.00e+00

  ==> Primary Basis <==

  Basis Set: CC-PVDZ
    Blend: CC-PVDZ
    Number of shells: 87
    Number of basis function: 181
    Number of Cartesian functions: 190
    Spherical Harmonics?: true
    Max angular momentum: 2

  ==> Pre-Iterations <==

   -------------------------------------------------------
    Irrep   Nso     Nmo     Nalpha   Nbeta   Ndocc  Nsocc
   -------------------------------------------------------
     A        181     181       0       0       0       0
   -------------------------------------------------------
    Total     181     181      36      36      36       0
   -------------------------------------------------------

  ==> Integral Setup <==

  Using integral reordering PK algorithm.
  Sizing the integral batches needed.
  Building batch lookup table.
   Calculation information:
      Number of atoms:                  20
      Number of AO shells:              87
      Number of primitives:            253
      Number of atomic orbitals:       190
      Number of basis functions:       181

      Integral cutoff                 1.00e-12
      Number of threads:                 1

	Batch   1 pq = [       0,    9405] index = [             0,44231715] size =     44231715
	Batch   2 pq = [    9405,   13301] index = [      44231715,88464951] size =     44233236
	Batch   3 pq = [   13301,   16471] index = [      88464951,135655156] size =     47190205
  Task number: 13
  Buffer size: 11059200
  Buffer per thread: 2
  We computed 5605304 shell quartets total.
  Whereas there are 7328706 unique shell quartets.

  ==> DiskJK: Disk-Based J/K Matrices <==

    J tasked:                  Yes
    K tasked:                  Yes
    wK tasked:                  No
    Memory [MiB]:              375
    Schwarz Cutoff:          1E-12

    OpenMP threads:              1

  Minimum eigenvalue in the overlap matrix is 3.8194956729E-03.
  Using Symmetric Orthogonalization.

  SCF Guess: Superposition of Atomic Densities via on-the-fly atomic UHF.

  ==> Iterations <==

                        Total Energy        Delta E     RMS |[F,P]|

   @RHF iter SAD:  -469.69348920957890   -4.69693e+02   0.00000e+00
   @RHF iter   1:  -470.66231767140295   -9.68828e-01   4.29413e-03 DIIS
   @RHF iter   2:  -470.89314870129391   -2.30831e-01   2.28929e-03 DIIS
   @RHF iter   3:  -470.95507484430624   -6.19261e-02   4.04109e-04 DIIS
   @RHF iter   4:  -470.95848315142490   -3.40831e-03   1.49050e-04 DIIS
   @RHF iter   5:  -470.95892440125215   -4.41250e-04   3.00300e-05 DIIS
   @RHF iter   6:  -470.95894963249134   -2.52312e-05   1.52920e-05 DIIS
   @RHF iter   7:  -470.95895450203898   -4.86955e-06   3.90823e-06 DIIS
   @RHF iter   8:  -470.95895523863669   -7.36598e-07   1.85408e-06 DIIS
   @RHF iter   9:  -470.95895536410109   -1.25464e-07   6.61169e-07 DIIS
   @RHF iter  10:  -470.95895538826130   -2.41602e-08   2.22585e-07 DIIS
   @RHF iter  11:  -470.95895539053402   -2.27271e-09   6.71612e-08 DIIS
   @RHF iter  12:  -470.95895539066248   -1.28466e-10   1.98811e-08 DIIS
   @RHF iter  13:  -470.95895539067538   -1.29035e-11   5.46930e-09 DIIS
   @RHF iter  14:  -470.95895539067618   -7.95808e-13   1.71133e-09 DIIS
   @RHF iter  15:  -470.95895539067732   -1.13687e-12   6.60471e-10 DIIS
   @RHF iter  16:  -470.95895539067948   -2.16005e-12   2.37535e-10 DIIS
   @RHF iter  17:  -470.95895539067521    4.26326e-12   9.73212e-11 DIIS
  Energy and wave function converged.

  ==> Post-Iterations <==

    Orbital Energies [Eh]
    ---------------------

    Doubly Occupied:

       1A    -20.401934     2A    -20.377248     3A    -15.674832
       4A    -15.666780     5A    -15.627821     6A    -11.458208
       7A    -11.344922     8A    -11.243413     9A    -11.164815
      10A     -1.420308    11A     -1.284813    12A     -1.281205
      13A     -1.249473    14A     -1.164794    15A     -1.036318
      16A     -0.912209    17A     -0.906818    18A     -0.848917
      19A     -0.819514    20A     -0.732374    21A     -0.715469
      22A     -0.701811    23A     -0.687214    24A     -0.632828
      25A     -0.624965    26A     -0.622791    27A     -0.534922
      28A     -0.528031    29A     -0.523280    30A     -0.483870
      31A     -0.464912    32A     -0.463581    33A     -0.430965
      34A     -0.318258    35A     -0.294449    36A     -0.290743

    Virtual:

      37A      0.097594    38A      0.134162    39A      0.150552
      40A      0.157509    41A      0.188513    42A      0.200091
      43A      0.208425    44A      0.237069    45A      0.268701
      46A      0.286032    47A      0.305033    48A      0.306739
      49A      0.349358    50A      0.384831    51A      0.396552
      52A      0.454941    53A      0.467538    54A      0.469201
      55A      0.524452    56A      0.547494    57A      0.581989
      58A      0.599901    59A      0.625062    60A      0.652301
      61A      0.667853    62A      0.673598    63A      0.679058
      64A      0.702565    65A      0.741638    66A      0.764462
      67A      0.766138    68A      0.791141    69A      0.797359
      70A      0.812556    71A      0.847969    72A      0.849074
      73A      0.850892    74A      0.874279    75A      0.913893
      76A      0.920459    77A      0.923743    78A      0.929515
      79A      0.931387    80A      0.941396    81A      0.971776
      82A      0.976500    83A      1.005442    84A      1.024807
      85A      1.058856    86A      1.091696    87A      1.104044
      88A      1.116561    89A      1.185548    90A      1.224951
      91A      1.234513    92A      1.238982    93A      1.252626
      94A      1.259045    95A      1.312937    96A      1.323879
      97A      1.340759    98A      1.361852    99A      1.429110
     100A      1.444340   101A      1.457710   102A      1.469284
     103A      1.481271   104A      1.512246   105A      1.558347
     106A      1.585765   107A      1.600313   108A      1.609030
     109A      1.618262   110A      1.632857   111A      1.652079
     112A      1.696749   113A      1.730952   114A      1.738304
     115A      1.764264   116A      1.788899   117A      1.820361
     118A      1.828513   119A      1.841135   120A      1.855312
     121A      1.872157   122A      1.893114   123A      1.922091
     124A      1.939027   125A      1.949328   126A      1.972090
     127A      1.983730   128A      2.010186   129A      2.024417
     130A      2.063483   131A      2.090825   132A      2.098455
     133A      2.132478   134A      2.136402   135A      2.195762
     136A      2.204169   137A      2.216630   138A      2.262914
     139A      2.276302   140A      2.308648   141A      2.335048
     142A      2.379229   143A      2.401439   144A      2.427431
     145A      2.443067   146A      2.462010   147A      2.466856
     148A      2.492841   149A      2.539185   150A      2.546063
     151A      2.595226   152A      2.604050   153A      2.641686
     154A      2.675466   155A      2.702097   156A      2.707900
     157A      2.746474   158A      2.805897   159A      2.846007
     160A      2.860059   161A      2.867118   162A      2.879463
     163A      2.911031   164A      2.922062   165A      3.001599
     166A      3.028718   167A      3.110277   168A      3.145441
     169A      3.165225   170A      3.182362   171A      3.233552
     172A      3.236032   173A      3.315372   174A      3.533990
     175A      3.650296   176A      3.682928   177A      3.694692
     178A      3.798788   179A      3.945432   180A      3.976183
     181A      4.069262

    Final Occupation by Irrep:
              A
    DOCC [    36 ]

  @RHF Final Energy:  -470.95895539067521

   => Energetics <=

    Nuclear Repulsion Energy =            444.2887683149926943
    One-Electron Energy =               -1524.6258347470925401
    Two-Electron Energy =                 609.3781110414246314
    Total Energy =                       -470.9589553906752144

Computation Completed

Properties will be evaluated at   0.000000,   0.000000,   0.000000 [a0]

Properties computed using the SCF density matrix

  Nuclear Dipole Moment: [e a0]
     X:     3.8120      Y:   -10.3503      Z:    -1.8719

  Electronic Dipole Moment: [e a0]
     X:     1.7278      Y:     5.3018      Z:    -0.3285

  Dipole Moment: [e a0]
     X:     5.5398      Y:    -5.0485      Z:    -2.2004     Total:     7.8114

  Dipole Moment: [D]
     X:    14.0808      Y:   -12.8319      Z:    -5.5929     Total:    19.8546

*** tstop() called on ds3 at Tue Apr 28 20:48:49 2020
Module time:
	user time   =      42.59 seconds =       0.71 minutes
	system time =      20.29 seconds =       0.34 minutes
	total time  =         61 seconds =       1.02 minutes
Total time:
	user time   =      42.59 seconds =       0.71 minutes
	system time =      20.29 seconds =       0.34 minutes
	total time  =         61 seconds =       1.02 minutes
                                     G D M A

                                 by Anthony Stone

                           version 2.2.06, 22 June 2011

               Distributed Multipoles from Gaussian wavefunctions

Starting at 20:48:49 on 28 Apr 2020

Using SCF density matrix from file ./SSI/SSI-009ARG-106ASP-1-dimer.test.29196.fchk

                         Distributed Multipole Analysis

Standard DMA

Positions and radii in angstrom
Multipole moments in atomic units, ea_0^k for rank k

C          x =  2.001558  y = -2.827292  z =  0.768427 angstrom
           Maximum rank =  0   Radius =  0.650 angstrom
                   Q00  =  -0.115634

C          x =  1.783558  y = -0.787292  z = -0.613573 angstrom
           Maximum rank =  0   Radius =  0.650 angstrom
                   Q00  =   1.068111

N          x =  0.694558  y = -0.429292  z =  0.034427 angstrom
           Maximum rank =  0   Radius =  0.650 angstrom
                   Q00  =  -0.600736

N          x =  2.416558  y = -1.903292  z = -0.292573 angstrom
           Maximum rank =  0   Radius =  0.650 angstrom
                   Q00  =  -0.489668

N          x =  2.241558  y = -0.027292  z = -1.587573 angstrom
           Maximum rank =  0   Radius =  0.650 angstrom
                   Q00  =  -0.593875

H          x =  0.248558  y = -1.072292  z =  0.676427 angstrom
           Maximum rank =  0   Radius =  0.325 angstrom
                   Q00  =   0.245641

H          x =  0.212558  y =  0.450708  z = -0.165573 angstrom
           Maximum rank =  0   Radius =  0.325 angstrom
                   Q00  =   0.341503

H          x =  3.181558  y = -2.180292  z = -0.908573 angstrom
           Maximum rank =  0   Radius =  0.325 angstrom
                   Q00  =   0.209808

H          x =  3.041558  y = -0.369292  z = -2.108573 angstrom
           Maximum rank =  0   Radius =  0.325 angstrom
                   Q00  =   0.235132

H          x =  1.753558  y =  0.813708  z = -1.855573 angstrom
           Maximum rank =  0   Radius =  0.325 angstrom
                   Q00  =   0.284504

H          x =  1.650558  y = -3.752292  z =  0.304427 angstrom
           Maximum rank =  0   Radius =  0.325 angstrom
                   Q00  =   0.117661

H          x =  1.195558  y = -2.428292  z =  1.383427 angstrom
           Maximum rank =  0   Radius =  0.325 angstrom
                   Q00  =   0.124314

H          x =  2.844458  y = -3.062519  z =  1.434904 angstrom
           Maximum rank =  0   Radius =  0.325 angstrom
                   Q00  =   0.131901

C          x = -3.109442  y =  0.448708  z = -0.130573 angstrom
           Maximum rank =  0   Radius =  0.650 angstrom
                   Q00  =  -0.289413

C          x = -2.229442  y =  1.551708  z =  0.448427 angstrom
           Maximum rank =  0   Radius =  0.650 angstrom
                   Q00  =   0.924296

O          x = -1.055442  y =  1.707708  z =  0.042427 angstrom
           Maximum rank =  0   Radius =  0.650 angstrom
                   Q00  =  -0.953094

O          x = -2.723442  y =  2.266708  z =  1.345427 angstrom
           Maximum rank =  0   Radius =  0.650 angstrom
                   Q00  =  -0.870268

H          x = -4.096442  y =  0.856708  z = -0.355573 angstrom
           Maximum rank =  0   Radius =  0.325 angstrom
                   Q00  =   0.105258

H          x = -3.232442  y = -0.322292  z =  0.630427 angstrom
           Maximum rank =  0   Radius =  0.325 angstrom
                   Q00  =   0.085523

H          x = -2.697292  y = -0.002214  z = -1.045342 angstrom
           Maximum rank =  0   Radius =  0.325 angstrom
                   Q00  =   0.039035

Total multipoles referred to origin at
           x =   0.000000,  y =    0.000000,  z =    0.000000 angstrom
                   Q00  =  -0.000000

Finished at 20:48:49 on 28 Apr 2020

  DMA results are available in the Python driver through the
	  variable('DMA DISTRIBUTED MULTIPOLES')
  and
	  variable('DMA TOTAL MULTIPOLES')
  commands.

    Psi4 stopped on: Tuesday, 28 April 2020 08:48PM
    Psi4 wall time for execution: 0:01:01.18

*** Psi4 exiting successfully. Buy a developer a beer!
