                               Psi4 1.3.2 release

  ==> Input File <==

--------------------------------------------------------------------------
import numpy as np
set {scf_type pk
basis cc-pvdz
d_convergence 10
gdma_switch   0
gdma_limit    0
gdma_origin   [ 0.0,  0.0,  0.0 ]
}
molecule test {
    units Angstrom
    0 1
    --
    0 1
    C               -1.406754192709350     0.569090792035454    -0.254306996393000
    C               -2.559754192709351     1.575090792035454    -0.269306996393000
    H               -0.617754192709350     0.887090792035454    -0.940306996393000
    H               -0.982754192709350     0.495090792035454     0.746693003607000
    H               -1.749754192709350    -0.429909207964546    -0.529306996393000
    H               -3.390754192709350     1.156090792035455     0.297693003607000
    H               -2.896114192709351     1.766070792035455    -1.299056996393000
    H               -2.237234192709350     2.513990792035455     0.204443003607000
    C                1.334245807290650    -1.466909207964545     0.272693003607000
    C                2.632245807290650    -0.672909207964546     0.241693003607000
    H                1.541245807290650    -2.517909207964546     0.457693003607000
    H                0.701245807290650    -1.098909207964545     1.080693003607000
    H                0.810245807290650    -1.365909207964545    -0.680306996393000
    H                3.089245807290650    -0.788909207964546     1.221693003607000
    H                3.305935807290650    -1.064940207964546    -0.534486996393000
    H                2.426645807290650     0.396200792035454     0.084433003607000

}
e, wfn = energy('scf', return_wfn=True)
gdma(wfn)
dmavals = variable('DMA DISTRIBUTED MULTIPOLES')
charges = np.array(dmavals)
print(charges)
np.save('SSI-142ILE-155LEU-1-dimer.npy', np.array(charges))--------------------------------------------------------------------------

*** tstart() called on ds3
*** at Mon Apr 27 17:47:54 2020

   => Loading Basis Set <=

    Name: CC-PVDZ
    Role: ORBITAL
    Keyword: BASIS
    atoms 1-2, 9-10  entry C          line   138 file /theoryfs2/ds/metcalf/miniconda2/envs/tf2gpu/share/psi4/basis/cc-pvdz.gbs
    atoms 3-8, 11-16 entry H          line    22 file /theoryfs2/ds/metcalf/miniconda2/envs/tf2gpu/share/psi4/basis/cc-pvdz.gbs

         ---------------------------------------------------------
                                   SCF
               by Justin Turney, Rob Parrish, Andy Simmonett
                          and Daniel G. A. Smith
                              RHF Reference
                        1 Threads,    500 MiB Core
         ---------------------------------------------------------

  ==> Geometry <==

    Molecular point group: c1
    Full point group: C1

    Geometry (in Angstrom), charge = 0, multiplicity = 1:

       Center              X                  Y                   Z               Mass
    ------------   -----------------  -----------------  -----------------  -----------------
         C           -1.406754192709     0.569090792035    -0.254306996393    12.000000000000
         C           -2.559754192709     1.575090792035    -0.269306996393    12.000000000000
         H           -0.617754192709     0.887090792035    -0.940306996393     1.007825032230
         H           -0.982754192709     0.495090792035     0.746693003607     1.007825032230
         H           -1.749754192709    -0.429909207965    -0.529306996393     1.007825032230
         H           -3.390754192709     1.156090792035     0.297693003607     1.007825032230
         H           -2.896114192709     1.766070792035    -1.299056996393     1.007825032230
         H           -2.237234192709     2.513990792035     0.204443003607     1.007825032230
         C            1.334245807291    -1.466909207965     0.272693003607    12.000000000000
         C            2.632245807291    -0.672909207965     0.241693003607    12.000000000000
         H            1.541245807291    -2.517909207965     0.457693003607     1.007825032230
         H            0.701245807291    -1.098909207965     1.080693003607     1.007825032230
         H            0.810245807291    -1.365909207965    -0.680306996393     1.007825032230
         H            3.089245807291    -0.788909207965     1.221693003607     1.007825032230
         H            3.305935807291    -1.064940207965    -0.534486996393     1.007825032230
         H            2.426645807291     0.396200792035     0.084433003607     1.007825032230

  Running in c1 symmetry.

  Rotational constants: A =      0.60863  B =      0.04896  C =      0.04699 [cm^-1]
  Rotational constants: A =  18246.30806  B =   1467.68354  C =   1408.62190 [MHz]
  Nuclear repulsion =  123.283401593882317

  Charge       = 0
  Multiplicity = 1
  Electrons    = 36
  Nalpha       = 18
  Nbeta        = 18

  ==> Algorithm <==

  SCF Algorithm Type is PK.
  DIIS enabled.
  MOM disabled.
  Fractional occupation disabled.
  Guess Type is SAD.
  Energy threshold   = 1.00e-06
  Density threshold  = 1.00e-10
  Integral threshold = 0.00e+00

  ==> Primary Basis <==

  Basis Set: CC-PVDZ
    Blend: CC-PVDZ
    Number of shells: 60
    Number of basis function: 116
    Number of Cartesian functions: 120
    Spherical Harmonics?: true
    Max angular momentum: 2

  ==> Pre-Iterations <==

   -------------------------------------------------------
    Irrep   Nso     Nmo     Nalpha   Nbeta   Ndocc  Nsocc
   -------------------------------------------------------
     A        116     116       0       0       0       0
   -------------------------------------------------------
    Total     116     116      18      18      18       0
   -------------------------------------------------------

  ==> Integral Setup <==

  Using integral reordering PK algorithm.
  Sizing the integral batches needed.
  Building batch lookup table.
   Calculation information:
      Number of atoms:                  16
      Number of AO shells:              60
      Number of primitives:            148
      Number of atomic orbitals:       120
      Number of basis functions:       116

      Integral cutoff                 1.00e-12
      Number of threads:                 1

	Batch   1 pq = [       0,    6786] index = [             0,23028291] size =     23028291
  Task number: 3
  Buffer size: 11059200
  Buffer per thread: 2
  We computed 1458955 shell quartets total.
  Whereas there are 1675365 unique shell quartets.

  ==> DiskJK: Disk-Based J/K Matrices <==

    J tasked:                  Yes
    K tasked:                  Yes
    wK tasked:                  No
    Memory [MiB]:              375
    Schwarz Cutoff:          1E-12

    OpenMP threads:              1

  Minimum eigenvalue in the overlap matrix is 6.4076451127E-03.
  Using Symmetric Orthogonalization.

  SCF Guess: Superposition of Atomic Densities via on-the-fly atomic UHF.

  ==> Iterations <==

                        Total Energy        Delta E     RMS |[F,P]|

   @RHF iter SAD:  -157.37139113742379   -1.57371e+02   0.00000e+00
   @RHF iter   1:  -158.30531065284288   -9.33920e-01   4.22186e-03 DIIS
   @RHF iter   2:  -158.43970040233194   -1.34390e-01   1.79541e-03 DIIS
   @RHF iter   3:  -158.46311408537986   -2.34137e-02   3.51163e-04 DIIS
   @RHF iter   4:  -158.46495777698669   -1.84369e-03   3.87284e-05 DIIS
   @RHF iter   5:  -158.46498120047841   -2.34235e-05   6.57007e-06 DIIS
   @RHF iter   6:  -158.46498183786659   -6.37388e-07   1.01275e-06 DIIS
   @RHF iter   7:  -158.46498184849531   -1.06287e-08   3.05247e-07 DIIS
   @RHF iter   8:  -158.46498184930286   -8.07546e-10   4.00651e-08 DIIS
   @RHF iter   9:  -158.46498184932679   -2.39311e-11   7.89594e-09 DIIS
   @RHF iter  10:  -158.46498184932770   -9.09495e-13   1.84080e-09 DIIS
   @RHF iter  11:  -158.46498184932810   -3.97904e-13   4.91360e-10 DIIS
   @RHF iter  12:  -158.46498184932813   -2.84217e-14   1.53871e-10 DIIS
   @RHF iter  13:  -158.46498184932796    1.70530e-13   2.12103e-11 DIIS
  Energy and wave function converged.

  ==> Post-Iterations <==

    Orbital Energies [Eh]
    ---------------------

    Doubly Occupied:

       1A    -11.219298     2A    -11.217611     3A    -11.216690
       4A    -11.213839     5A     -1.020396     6A     -1.016168
       7A     -0.840004     8A     -0.830968     9A     -0.602148
      10A     -0.599210    11A     -0.596779    12A     -0.593540
      13A     -0.505479    14A     -0.497012    15A     -0.490190
      16A     -0.485820    17A     -0.479492    18A     -0.478865

    Virtual:

      19A      0.173947    20A      0.196166    21A      0.228785
      22A      0.233480    23A      0.239759    24A      0.259103
      25A      0.264589    26A      0.275599    27A      0.283384
      28A      0.295510    29A      0.310840    30A      0.344893
      31A      0.396180    32A      0.401478    33A      0.567931
      34A      0.589104    35A      0.593706    36A      0.607681
      37A      0.608932    38A      0.632283    39A      0.676806
      40A      0.698791    41A      0.705068    42A      0.779578
      43A      0.847268    44A      0.874052    45A      0.887563
      46A      0.890678    47A      0.893284    48A      0.896468
      49A      0.906089    50A      0.914062    51A      0.915075
      52A      0.927615    53A      0.939061    54A      0.954093
      55A      0.973371    56A      1.000793    57A      1.122642
      58A      1.124425    59A      1.135716    60A      1.157762
      61A      1.224638    62A      1.273697    63A      1.472827
      64A      1.474977    65A      1.482742    66A      1.499657
      67A      1.579421    68A      1.591332    69A      1.678906
      70A      1.680688    71A      1.695440    72A      1.695803
      73A      1.853665    74A      1.861884    75A      1.878861
      76A      1.884349    77A      1.905981    78A      1.916859
      79A      1.936890    80A      1.943327    81A      1.945902
      82A      1.950725    83A      1.953871    84A      1.959803
      85A      1.962858    86A      1.980355    87A      1.991351
      88A      2.067805    89A      2.093133    90A      2.107780
      91A      2.119513    92A      2.132917    93A      2.288852
      94A      2.299778    95A      2.317932    96A      2.359886
      97A      2.445889    98A      2.454368    99A      2.456312
     100A      2.491388   101A      2.559473   102A      2.569041
     103A      2.574142   104A      2.589151   105A      2.761511
     106A      2.763583   107A      2.782663   108A      2.798658
     109A      2.845803   110A      2.848718   111A      2.852316
     112A      2.860267   113A      2.939224   114A      2.957889
     115A      2.966277   116A      2.979194

    Final Occupation by Irrep:
              A
    DOCC [    18 ]

  @RHF Final Energy:  -158.46498184932796

   => Energetics <=

    Nuclear Repulsion Energy =            123.2834015938823171
    One-Electron Energy =                -455.6897496956858049
    Two-Electron Energy =                 173.9413662524755182
    Total Energy =                       -158.4649818493279554

Computation Completed

Properties will be evaluated at   0.000000,   0.000000,   0.000000 [a0]

Properties computed using the SCF density matrix

  Nuclear Dipole Moment: [e a0]
     X:     0.0002      Y:    -0.0487      Z:     0.1030

  Electronic Dipole Moment: [e a0]
     X:    -0.0106      Y:     0.0323      Z:    -0.0841

  Dipole Moment: [e a0]
     X:    -0.0104      Y:    -0.0164      Z:     0.0189     Total:     0.0271

  Dipole Moment: [D]
     X:    -0.0264      Y:    -0.0417      Z:     0.0479     Total:     0.0688

*** tstop() called on ds3 at Mon Apr 27 17:48:05 2020
Module time:
	user time   =       8.15 seconds =       0.14 minutes
	system time =       3.42 seconds =       0.06 minutes
	total time  =         11 seconds =       0.18 minutes
Total time:
	user time   =       8.15 seconds =       0.14 minutes
	system time =       3.42 seconds =       0.06 minutes
	total time  =         11 seconds =       0.18 minutes
                                     G D M A

                                 by Anthony Stone

                           version 2.2.06, 22 June 2011

               Distributed Multipoles from Gaussian wavefunctions

Starting at 17:48:5 on 27 Apr 2020

Using SCF density matrix from file ./SSI/SSI-142ILE-155LEU-1-dimer.test.5631.fchk

                         Distributed Multipole Analysis

Standard DMA

Positions and radii in angstrom
Multipole moments in atomic units, ea_0^k for rank k

C          x = -1.406754  y =  0.569091  z = -0.254307 angstrom
           Maximum rank =  0   Radius =  0.650 angstrom
                   Q00  =  -0.237493

C          x = -2.559754  y =  1.575091  z = -0.269307 angstrom
           Maximum rank =  0   Radius =  0.650 angstrom
                   Q00  =  -0.235341

H          x = -0.617754  y =  0.887091  z = -0.940307 angstrom
           Maximum rank =  0   Radius =  0.325 angstrom
                   Q00  =   0.077144

H          x = -0.982754  y =  0.495091  z =  0.746693 angstrom
           Maximum rank =  0   Radius =  0.325 angstrom
                   Q00  =   0.077336

H          x = -1.749754  y = -0.429909  z = -0.529307 angstrom
           Maximum rank =  0   Radius =  0.325 angstrom
                   Q00  =   0.079260

H          x = -3.390754  y =  1.156091  z =  0.297693 angstrom
           Maximum rank =  0   Radius =  0.325 angstrom
                   Q00  =   0.079687

H          x = -2.896114  y =  1.766071  z = -1.299057 angstrom
           Maximum rank =  0   Radius =  0.325 angstrom
                   Q00  =   0.080159

H          x = -2.237234  y =  2.513991  z =  0.204443 angstrom
           Maximum rank =  0   Radius =  0.325 angstrom
                   Q00  =   0.079702

C          x =  1.334246  y = -1.466909  z =  0.272693 angstrom
           Maximum rank =  0   Radius =  0.650 angstrom
                   Q00  =  -0.233988

C          x =  2.632246  y = -0.672909  z =  0.241693 angstrom
           Maximum rank =  0   Radius =  0.650 angstrom
                   Q00  =  -0.231279

H          x =  1.541246  y = -2.517909  z =  0.457693 angstrom
           Maximum rank =  0   Radius =  0.325 angstrom
                   Q00  =   0.077073

H          x =  0.701246  y = -1.098909  z =  1.080693 angstrom
           Maximum rank =  0   Radius =  0.325 angstrom
                   Q00  =   0.076794

H          x =  0.810246  y = -1.365909  z = -0.680307 angstrom
           Maximum rank =  0   Radius =  0.325 angstrom
                   Q00  =   0.078562

H          x =  3.089246  y = -0.788909  z =  1.221693 angstrom
           Maximum rank =  0   Radius =  0.325 angstrom
                   Q00  =   0.075018

H          x =  3.305936  y = -1.064940  z = -0.534487 angstrom
           Maximum rank =  0   Radius =  0.325 angstrom
                   Q00  =   0.079345

H          x =  2.426646  y =  0.396201  z =  0.084433 angstrom
           Maximum rank =  0   Radius =  0.325 angstrom
                   Q00  =   0.078020

Total multipoles referred to origin at
           x =   0.000000,  y =    0.000000,  z =    0.000000 angstrom
                   Q00  =  -0.000000

Finished at 17:48:5 on 27 Apr 2020

  DMA results are available in the Python driver through the
	  variable('DMA DISTRIBUTED MULTIPOLES')
  and
	  variable('DMA TOTAL MULTIPOLES')
  commands.

    Psi4 stopped on: Monday, 27 April 2020 05:48PM
    Psi4 wall time for execution: 0:00:11.34

*** Psi4 exiting successfully. Buy a developer a beer!
