                               Psi4 1.3.2 release

  ==> Input File <==

--------------------------------------------------------------------------
import numpy as np
set {scf_type pk
basis cc-pvdz
d_convergence 10
gdma_switch   0
gdma_limit    0
gdma_origin   [ 0.0,  0.0,  0.0 ]
}
molecule test {
    units Angstrom
    0 1
    --
    0 1
    C                1.089163928721244    -1.109623249352126     0.749900213517459
    C                1.915163928721244    -1.972623249352126     1.693900213517459
    H                0.099163928721244    -0.923623249352126     1.166900213517459
    H                1.595163928721244    -0.154623249352126     0.606900213517459
    H                0.993163928721244    -1.604623249352126    -0.216099786482541
    H                1.995163928721244    -1.448623249352126     2.645900213517459
    H                2.916163928721244    -2.062623249352126     1.269900213517459
    H                1.505813928721244    -2.982023249352125     1.847320213517459
    C               -1.280836071278756     0.907376750647874    -0.859099786482541
    C               -1.730836071278756     2.168376750647874    -1.585099786482541
    H               -1.371836071278756     0.069376750647874    -1.538099786482541
    H               -0.246836071278756     1.012376750647874    -0.530099786482541
    H               -1.908836071278756     0.735376750647874     0.016900213517459
    H               -1.459836071278756     3.023376750647874    -0.964099786482541
    H               -2.817736071278756     2.137366750647874    -1.751499786482541
    H               -1.212106071278756     2.275576750647874    -2.549169786482541

}
e, wfn = energy('scf', return_wfn=True)
gdma(wfn)
dmavals = variable('DMA DISTRIBUTED MULTIPOLES')
charges = np.array(dmavals)
print(charges)
np.save('SSI-118ILE-165ALA-1-dimer.npy', np.array(charges))--------------------------------------------------------------------------

*** tstart() called on ds3
*** at Tue Apr 28 14:29:56 2020

   => Loading Basis Set <=

    Name: CC-PVDZ
    Role: ORBITAL
    Keyword: BASIS
    atoms 1-2, 9-10  entry C          line   138 file /theoryfs2/ds/metcalf/miniconda2/envs/tf2gpu/share/psi4/basis/cc-pvdz.gbs
    atoms 3-8, 11-16 entry H          line    22 file /theoryfs2/ds/metcalf/miniconda2/envs/tf2gpu/share/psi4/basis/cc-pvdz.gbs

         ---------------------------------------------------------
                                   SCF
               by Justin Turney, Rob Parrish, Andy Simmonett
                          and Daniel G. A. Smith
                              RHF Reference
                        1 Threads,    500 MiB Core
         ---------------------------------------------------------

  ==> Geometry <==

    Molecular point group: c1
    Full point group: C1

    Geometry (in Angstrom), charge = 0, multiplicity = 1:

       Center              X                  Y                   Z               Mass
    ------------   -----------------  -----------------  -----------------  -----------------
         C            1.089163928721    -1.109623249352     0.749900213517    12.000000000000
         C            1.915163928721    -1.972623249352     1.693900213517    12.000000000000
         H            0.099163928721    -0.923623249352     1.166900213517     1.007825032230
         H            1.595163928721    -0.154623249352     0.606900213517     1.007825032230
         H            0.993163928721    -1.604623249352    -0.216099786483     1.007825032230
         H            1.995163928721    -1.448623249352     2.645900213517     1.007825032230
         H            2.916163928721    -2.062623249352     1.269900213517     1.007825032230
         H            1.505813928721    -2.982023249352     1.847320213517     1.007825032230
         C           -1.280836071279     0.907376750648    -0.859099786483    12.000000000000
         C           -1.730836071279     2.168376750648    -1.585099786483    12.000000000000
         H           -1.371836071279     0.069376750648    -1.538099786483     1.007825032230
         H           -0.246836071279     1.012376750648    -0.530099786483     1.007825032230
         H           -1.908836071279     0.735376750648     0.016900213517     1.007825032230
         H           -1.459836071279     3.023376750648    -0.964099786483     1.007825032230
         H           -2.817736071279     2.137366750648    -1.751499786483     1.007825032230
         H           -1.212106071279     2.275576750648    -2.549169786483     1.007825032230

  Running in c1 symmetry.

  Rotational constants: A =      1.08321  B =      0.04059  C =      0.04039 [cm^-1]
  Rotational constants: A =  32473.92180  B =   1216.79883  C =   1210.71928 [MHz]
  Nuclear repulsion =  121.073603373242804

  Charge       = 0
  Multiplicity = 1
  Electrons    = 36
  Nalpha       = 18
  Nbeta        = 18

  ==> Algorithm <==

  SCF Algorithm Type is PK.
  DIIS enabled.
  MOM disabled.
  Fractional occupation disabled.
  Guess Type is SAD.
  Energy threshold   = 1.00e-06
  Density threshold  = 1.00e-10
  Integral threshold = 0.00e+00

  ==> Primary Basis <==

  Basis Set: CC-PVDZ
    Blend: CC-PVDZ
    Number of shells: 60
    Number of basis function: 116
    Number of Cartesian functions: 120
    Spherical Harmonics?: true
    Max angular momentum: 2

  ==> Pre-Iterations <==

   -------------------------------------------------------
    Irrep   Nso     Nmo     Nalpha   Nbeta   Ndocc  Nsocc
   -------------------------------------------------------
     A        116     116       0       0       0       0
   -------------------------------------------------------
    Total     116     116      18      18      18       0
   -------------------------------------------------------

  ==> Integral Setup <==

  Using integral reordering PK algorithm.
  Sizing the integral batches needed.
  Building batch lookup table.
   Calculation information:
      Number of atoms:                  16
      Number of AO shells:              60
      Number of primitives:            148
      Number of atomic orbitals:       120
      Number of basis functions:       116

      Integral cutoff                 1.00e-12
      Number of threads:                 1

	Batch   1 pq = [       0,    6786] index = [             0,23028291] size =     23028291
  Task number: 3
  Buffer size: 11059200
  Buffer per thread: 2
  We computed 1353682 shell quartets total.
  Whereas there are 1675365 unique shell quartets.

  ==> DiskJK: Disk-Based J/K Matrices <==

    J tasked:                  Yes
    K tasked:                  Yes
    wK tasked:                  No
    Memory [MiB]:              375
    Schwarz Cutoff:          1E-12

    OpenMP threads:              1

  Minimum eigenvalue in the overlap matrix is 5.3782240498E-03.
  Using Symmetric Orthogonalization.

  SCF Guess: Superposition of Atomic Densities via on-the-fly atomic UHF.

  ==> Iterations <==

                        Total Energy        Delta E     RMS |[F,P]|

   @RHF iter SAD:  -157.38623928262632   -1.57386e+02   0.00000e+00
   @RHF iter   1:  -158.30436585197143   -9.18127e-01   4.23854e-03 DIIS
   @RHF iter   2:  -158.43936883828491   -1.35003e-01   1.80095e-03 DIIS
   @RHF iter   3:  -158.46290358279728   -2.35347e-02   3.52309e-04 DIIS
   @RHF iter   4:  -158.46475773345227   -1.85415e-03   3.95616e-05 DIIS
   @RHF iter   5:  -158.46478220251018   -2.44691e-05   7.25421e-06 DIIS
   @RHF iter   6:  -158.46478294556340   -7.43053e-07   1.42991e-06 DIIS
   @RHF iter   7:  -158.46478296494089   -1.93775e-08   3.46731e-07 DIIS
   @RHF iter   8:  -158.46478296626373   -1.32283e-09   5.30076e-08 DIIS
   @RHF iter   9:  -158.46478296631813   -5.43992e-11   1.01409e-08 DIIS
   @RHF iter  10:  -158.46478296632023   -2.10321e-12   2.33174e-09 DIIS
   @RHF iter  11:  -158.46478296632014    8.52651e-14   3.80786e-10 DIIS
   @RHF iter  12:  -158.46478296632046   -3.12639e-13   9.52140e-11 DIIS
  Energy and wave function converged.

  ==> Post-Iterations <==

    Orbital Energies [Eh]
    ---------------------

    Doubly Occupied:

       1A    -11.217300     2A    -11.216865     3A    -11.215569
       4A    -11.213507     5A     -1.020763     6A     -1.017900
       7A     -0.839715     8A     -0.830239     9A     -0.602658
      10A     -0.598926    11A     -0.597670    12A     -0.595308
      13A     -0.509093    14A     -0.495277    15A     -0.486734
      16A     -0.482287    17A     -0.482176    18A     -0.480234

    Virtual:

      19A      0.177734    20A      0.193771    21A      0.223066
      22A      0.233420    23A      0.238201    24A      0.264985
      25A      0.266904    26A      0.278841    27A      0.282873
      28A      0.289938    29A      0.308827    30A      0.334577
      31A      0.383669    32A      0.423878    33A      0.565846
      34A      0.592567    35A      0.599657    36A      0.603770
      37A      0.608247    38A      0.651721    39A      0.665656
      40A      0.705948    41A      0.715215    42A      0.748513
      43A      0.847809    44A      0.883546    45A      0.887470
      46A      0.894287    47A      0.895139    48A      0.898179
      49A      0.902014    50A      0.915420    51A      0.916712
      52A      0.922815    53A      0.946292    54A      0.956364
      55A      0.970798    56A      1.012043    57A      1.118901
      58A      1.131820    59A      1.133871    60A      1.142982
      61A      1.217144    62A      1.272887    63A      1.465561
      64A      1.481673    65A      1.487161    66A      1.496121
      67A      1.581693    68A      1.599467    69A      1.679424
      70A      1.682071    71A      1.692966    72A      1.694774
      73A      1.841479    74A      1.855491    75A      1.866531
      76A      1.891281    77A      1.896490    78A      1.918348
      79A      1.926782    80A      1.939043    81A      1.943406
      82A      1.947379    83A      1.954175    84A      1.959097
      85A      1.966747    86A      1.973961    87A      2.024476
      88A      2.073504    89A      2.093677    90A      2.125550
      91A      2.130526    92A      2.141634    93A      2.299154
      94A      2.301988    95A      2.317333    96A      2.369855
      97A      2.442919    98A      2.459931    99A      2.467485
     100A      2.480815   101A      2.556889   102A      2.570095
     103A      2.584446   104A      2.596211   105A      2.759987
     106A      2.769448   107A      2.787715   108A      2.809655
     109A      2.839689   110A      2.852924   111A      2.856650
     112A      2.865381   113A      2.944337   114A      2.951347
     115A      2.959731   116A      2.970551

    Final Occupation by Irrep:
              A
    DOCC [    18 ]

  @RHF Final Energy:  -158.46478296632046

   => Energetics <=

    Nuclear Repulsion Energy =            121.0736033732428041
    One-Electron Energy =                -451.2723333736680615
    Two-Electron Energy =                 171.7339470341048013
    Total Energy =                       -158.4647829663204561

Computation Completed

Properties will be evaluated at   0.000000,   0.000000,   0.000000 [a0]

Properties computed using the SCF density matrix

  Nuclear Dipole Moment: [e a0]
     X:     0.0820      Y:     0.0725      Z:     0.0045

  Electronic Dipole Moment: [e a0]
     X:    -0.0652      Y:    -0.0741      Z:     0.0012

  Dipole Moment: [e a0]
     X:     0.0167      Y:    -0.0016      Z:     0.0056     Total:     0.0177

  Dipole Moment: [D]
     X:     0.0425      Y:    -0.0042      Z:     0.0143     Total:     0.0451

*** tstop() called on ds3 at Tue Apr 28 14:30:06 2020
Module time:
	user time   =       7.46 seconds =       0.12 minutes
	system time =       3.09 seconds =       0.05 minutes
	total time  =         10 seconds =       0.17 minutes
Total time:
	user time   =       7.46 seconds =       0.12 minutes
	system time =       3.09 seconds =       0.05 minutes
	total time  =         10 seconds =       0.17 minutes
                                     G D M A

                                 by Anthony Stone

                           version 2.2.06, 22 June 2011

               Distributed Multipoles from Gaussian wavefunctions

Starting at 14:30:6 on 28 Apr 2020

Using SCF density matrix from file ./SSI/SSI-118ILE-165ALA-1-dimer.test.26063.fchk

                         Distributed Multipole Analysis

Standard DMA

Positions and radii in angstrom
Multipole moments in atomic units, ea_0^k for rank k

C          x =  1.089164  y = -1.109623  z =  0.749900 angstrom
           Maximum rank =  0   Radius =  0.650 angstrom
                   Q00  =  -0.235218

C          x =  1.915164  y = -1.972623  z =  1.693900 angstrom
           Maximum rank =  0   Radius =  0.650 angstrom
                   Q00  =  -0.232973

H          x =  0.099164  y = -0.923623  z =  1.166900 angstrom
           Maximum rank =  0   Radius =  0.325 angstrom
                   Q00  =   0.079360

H          x =  1.595164  y = -0.154623  z =  0.606900 angstrom
           Maximum rank =  0   Radius =  0.325 angstrom
                   Q00  =   0.076000

H          x =  0.993164  y = -1.604623  z = -0.216100 angstrom
           Maximum rank =  0   Radius =  0.325 angstrom
                   Q00  =   0.078773

H          x =  1.995164  y = -1.448623  z =  2.645900 angstrom
           Maximum rank =  0   Radius =  0.325 angstrom
                   Q00  =   0.077656

H          x =  2.916164  y = -2.062623  z =  1.269900 angstrom
           Maximum rank =  0   Radius =  0.325 angstrom
                   Q00  =   0.076287

H          x =  1.505814  y = -2.982023  z =  1.847320 angstrom
           Maximum rank =  0   Radius =  0.325 angstrom
                   Q00  =   0.082111

C          x = -1.280836  y =  0.907377  z = -0.859100 angstrom
           Maximum rank =  0   Radius =  0.650 angstrom
                   Q00  =  -0.249084

C          x = -1.730836  y =  2.168377  z = -1.585100 angstrom
           Maximum rank =  0   Radius =  0.650 angstrom
                   Q00  =  -0.222513

H          x = -1.371836  y =  0.069377  z = -1.538100 angstrom
           Maximum rank =  0   Radius =  0.325 angstrom
                   Q00  =   0.078052

H          x = -0.246836  y =  1.012377  z = -0.530100 angstrom
           Maximum rank =  0   Radius =  0.325 angstrom
                   Q00  =   0.081860

H          x = -1.908836  y =  0.735377  z =  0.016900 angstrom
           Maximum rank =  0   Radius =  0.325 angstrom
                   Q00  =   0.077085

H          x = -1.459836  y =  3.023377  z = -0.964100 angstrom
           Maximum rank =  0   Radius =  0.325 angstrom
                   Q00  =   0.075911

H          x = -2.817736  y =  2.137367  z = -1.751500 angstrom
           Maximum rank =  0   Radius =  0.325 angstrom
                   Q00  =   0.078679

H          x = -1.212106  y =  2.275577  z = -2.549170 angstrom
           Maximum rank =  0   Radius =  0.325 angstrom
                   Q00  =   0.078013

Total multipoles referred to origin at
           x =   0.000000,  y =    0.000000,  z =    0.000000 angstrom
                   Q00  =  -0.000000

Finished at 14:30:6 on 28 Apr 2020

  DMA results are available in the Python driver through the
	  variable('DMA DISTRIBUTED MULTIPOLES')
  and
	  variable('DMA TOTAL MULTIPOLES')
  commands.

    Psi4 stopped on: Tuesday, 28 April 2020 02:30PM
    Psi4 wall time for execution: 0:00:10.55

*** Psi4 exiting successfully. Buy a developer a beer!
