                               Psi4 1.3.2 release

  ==> Input File <==

--------------------------------------------------------------------------
import numpy as np
set {scf_type pk
basis cc-pvdz
d_convergence 10
gdma_switch   0
gdma_limit    0
gdma_origin   [ 0.0,  0.0,  0.0 ]
}
molecule test {
    units Angstrom
    0 1
    --
    0 1
    C                0.196309403579503     1.594325021242760     2.514331711750498
    C               -1.487690596420497    -0.248674978757240    -0.124668288249503
    C               -0.383690596420497     1.093325021242760     1.223331711750497
    C               -0.258690596420497     1.575325021242760    -0.040668288249503
    N               -1.155690596420497    -0.047674978757240     1.147331711750498
    N               -0.955690596420497     0.719325021242760    -0.864668288249503
    H               -2.086690596420497    -1.071674978757240    -0.500668288249503
    H               -1.032690596420497     0.789325021242760    -1.872668288249502
    H                0.304309403579503     2.451325021242760    -0.337668288249503
    H               -0.571690596420497     1.547325021242760     3.286331711750498
    H                0.437309403579503     2.630325021242760     2.355331711750498
    H                1.069809403579503     1.018935021242760     2.854821711750497
    C                1.370309403579503    -1.673674978757240    -2.125668288249503
    C                2.270309403579503    -2.653674978757240    -1.380668288249502
    H                1.452309403579503    -1.828674978757240    -3.201668288249503
    H                0.337309403579503    -1.826674978757240    -1.819668288249503
    H                1.661309403579503    -0.652674978757240    -1.881668288249502
    H                2.181309403579503    -2.460674978757240    -0.314668288249502
    H                3.309959403579503    -2.512554978757240    -1.711138288249503
    H                1.950469403579503    -3.689014978757240    -1.569828288249502

}
e, wfn = energy('scf', return_wfn=True)
gdma(wfn)
dmavals = variable('DMA DISTRIBUTED MULTIPOLES')
charges = np.array(dmavals)
print(charges)
np.save('SSI-170HIE-174LEU-1-dimer.npy', np.array(charges))--------------------------------------------------------------------------

*** tstart() called on ds3
*** at Sun Apr 26 18:59:56 2020

   => Loading Basis Set <=

    Name: CC-PVDZ
    Role: ORBITAL
    Keyword: BASIS
    atoms 1-4, 13-14  entry C          line   138 file /theoryfs2/ds/metcalf/miniconda2/envs/tf2gpu/share/psi4/basis/cc-pvdz.gbs
    atoms 5-6         entry N          line   168 file /theoryfs2/ds/metcalf/miniconda2/envs/tf2gpu/share/psi4/basis/cc-pvdz.gbs
    atoms 7-12, 15-20 entry H          line    22 file /theoryfs2/ds/metcalf/miniconda2/envs/tf2gpu/share/psi4/basis/cc-pvdz.gbs

         ---------------------------------------------------------
                                   SCF
               by Justin Turney, Rob Parrish, Andy Simmonett
                          and Daniel G. A. Smith
                              RHF Reference
                        1 Threads,    500 MiB Core
         ---------------------------------------------------------

  ==> Geometry <==

    Molecular point group: c1
    Full point group: C1

    Geometry (in Angstrom), charge = 0, multiplicity = 1:

       Center              X                  Y                   Z               Mass
    ------------   -----------------  -----------------  -----------------  -----------------
         C            0.196309403580     1.594325021243     2.514331711750    12.000000000000
         C           -1.487690596420    -0.248674978757    -0.124668288250    12.000000000000
         C           -0.383690596420     1.093325021243     1.223331711750    12.000000000000
         C           -0.258690596420     1.575325021243    -0.040668288250    12.000000000000
         N           -1.155690596420    -0.047674978757     1.147331711750    14.003074004430
         N           -0.955690596420     0.719325021243    -0.864668288250    14.003074004430
         H           -2.086690596420    -1.071674978757    -0.500668288250     1.007825032230
         H           -1.032690596420     0.789325021243    -1.872668288250     1.007825032230
         H            0.304309403580     2.451325021243    -0.337668288250     1.007825032230
         H           -0.571690596420     1.547325021243     3.286331711750     1.007825032230
         H            0.437309403580     2.630325021243     2.355331711750     1.007825032230
         H            1.069809403580     1.018935021243     2.854821711750     1.007825032230
         C            1.370309403580    -1.673674978757    -2.125668288250    12.000000000000
         C            2.270309403580    -2.653674978757    -1.380668288250    12.000000000000
         H            1.452309403580    -1.828674978757    -3.201668288250     1.007825032230
         H            0.337309403580    -1.826674978757    -1.819668288250     1.007825032230
         H            1.661309403580    -0.652674978757    -1.881668288250     1.007825032230
         H            2.181309403580    -2.460674978757    -0.314668288250     1.007825032230
         H            3.309959403580    -2.512554978757    -1.711138288250     1.007825032230
         H            1.950469403580    -3.689014978757    -1.569828288250     1.007825032230

  Running in c1 symmetry.

  Rotational constants: A =      0.09462  B =      0.02997  C =      0.02711 [cm^-1]
  Rotational constants: A =   2836.75296  B =    898.53126  C =    812.87505 [MHz]
  Nuclear repulsion =  355.981619618533557

  Charge       = 0
  Multiplicity = 1
  Electrons    = 62
  Nalpha       = 31
  Nbeta        = 31

  ==> Algorithm <==

  SCF Algorithm Type is PK.
  DIIS enabled.
  MOM disabled.
  Fractional occupation disabled.
  Guess Type is SAD.
  Energy threshold   = 1.00e-06
  Density threshold  = 1.00e-10
  Integral threshold = 0.00e+00

  ==> Primary Basis <==

  Basis Set: CC-PVDZ
    Blend: CC-PVDZ
    Number of shells: 84
    Number of basis function: 172
    Number of Cartesian functions: 180
    Spherical Harmonics?: true
    Max angular momentum: 2

  ==> Pre-Iterations <==

   -------------------------------------------------------
    Irrep   Nso     Nmo     Nalpha   Nbeta   Ndocc  Nsocc
   -------------------------------------------------------
     A        172     172       0       0       0       0
   -------------------------------------------------------
    Total     172     172      31      31      31       0
   -------------------------------------------------------

  ==> Integral Setup <==

  Using integral reordering PK algorithm.
  Sizing the integral batches needed.
  Building batch lookup table.
   Calculation information:
      Number of atoms:                  20
      Number of AO shells:              84
      Number of primitives:            236
      Number of atomic orbitals:       180
      Number of basis functions:       172

      Integral cutoff                 1.00e-12
      Number of threads:                 1

	Batch   1 pq = [       0,    9405] index = [             0,44231715] size =     44231715
	Batch   2 pq = [    9405,   13301] index = [      44231715,88464951] size =     44233236
	Batch   3 pq = [   13301,   14878] index = [      88464951,110684881] size =     22219930
  Task number: 11
  Buffer size: 11059200
  Buffer per thread: 2
  We computed 5362649 shell quartets total.
  Whereas there are 6374235 unique shell quartets.

  ==> DiskJK: Disk-Based J/K Matrices <==

    J tasked:                  Yes
    K tasked:                  Yes
    wK tasked:                  No
    Memory [MiB]:              375
    Schwarz Cutoff:          1E-12

    OpenMP threads:              1

  Minimum eigenvalue in the overlap matrix is 1.1945863302E-03.
  Using Symmetric Orthogonalization.

  SCF Guess: Superposition of Atomic Densities via on-the-fly atomic UHF.

  ==> Iterations <==

                        Total Energy        Delta E     RMS |[F,P]|

   @RHF iter SAD:  -342.20980423285346   -3.42210e+02   0.00000e+00
   @RHF iter   1:  -342.88672864151772   -6.76924e-01   3.38027e-03 DIIS
   @RHF iter   2:  -343.05906968729937   -1.72341e-01   1.73091e-03 DIIS
   @RHF iter   3:  -343.10096603438564   -4.18963e-02   4.36929e-04 DIIS
   @RHF iter   4:  -343.10448151667003   -3.51548e-03   1.83151e-04 DIIS
   @RHF iter   5:  -343.10505275152525   -5.71235e-04   2.68709e-05 DIIS
   @RHF iter   6:  -343.10507440466216   -2.16531e-05   1.17154e-05 DIIS
   @RHF iter   7:  -343.10507801900127   -3.61434e-06   4.15651e-06 DIIS
   @RHF iter   8:  -343.10507881149692   -7.92496e-07   1.66548e-06 DIIS
   @RHF iter   9:  -343.10507898021569   -1.68719e-07   5.88583e-07 DIIS
   @RHF iter  10:  -343.10507899644347   -1.62278e-08   1.82921e-07 DIIS
   @RHF iter  11:  -343.10507899828679   -1.84332e-09   8.22390e-08 DIIS
   @RHF iter  12:  -343.10507899854804   -2.61252e-10   3.20505e-08 DIIS
   @RHF iter  13:  -343.10507899859363   -4.55884e-11   8.93099e-09 DIIS
   @RHF iter  14:  -343.10507899860090   -7.27596e-12   3.39732e-09 DIIS
   @RHF iter  15:  -343.10507899860028    6.25278e-13   1.34934e-09 DIIS
   @RHF iter  16:  -343.10507899860141   -1.13687e-12   4.31428e-10 DIIS
   @RHF iter  17:  -343.10507899859914    2.27374e-12   1.31085e-10 DIIS
   @RHF iter  18:  -343.10507899860102   -1.87583e-12   4.53676e-11 DIIS
  Energy and wave function converged.

  ==> Post-Iterations <==

    Orbital Energies [Eh]
    ---------------------

    Doubly Occupied:

       1A    -15.620230     2A    -15.527510     3A    -11.292555
       4A    -11.250661     5A    -11.241035     6A    -11.222234
       7A    -11.217682     8A    -11.217084     9A     -1.340309
      10A     -1.152498    11A     -1.030802    12A     -1.019799
      13A     -0.941356    14A     -0.836144    15A     -0.817501
      16A     -0.760803    17A     -0.740305    18A     -0.610269
      19A     -0.607068    20A     -0.599077    21A     -0.596182
      22A     -0.595708    23A     -0.554369    24A     -0.540477
      25A     -0.520185    26A     -0.499189    27A     -0.487219
      28A     -0.484973    29A     -0.410169    30A     -0.377050
      31A     -0.309435

    Virtual:

      32A      0.167227    33A      0.181121    34A      0.196175
      35A      0.202125    36A      0.214174    37A      0.225946
      38A      0.237474    39A      0.249576    40A      0.259637
      41A      0.266991    42A      0.279554    43A      0.285980
      44A      0.301819    45A      0.320728    46A      0.378373
      47A      0.390614    48A      0.400976    49A      0.414428
      50A      0.472076    51A      0.491188    52A      0.589520
      53A      0.598171    54A      0.602292    55A      0.617215
      56A      0.619353    57A      0.643951    58A      0.653121
      59A      0.673961    60A      0.680359    61A      0.706735
      62A      0.742653    63A      0.762805    64A      0.779140
      65A      0.803800    66A      0.816068    67A      0.833800
      68A      0.854273    69A      0.864825    70A      0.880347
      71A      0.893548    72A      0.896380    73A      0.900494
      74A      0.904968    75A      0.915748    76A      0.926655
      77A      0.936967    78A      0.958338    79A      0.959998
      80A      0.983224    81A      0.995436    82A      1.027026
      83A      1.070172    84A      1.093187    85A      1.103100
      86A      1.123422    87A      1.127257    88A      1.137391
      89A      1.163548    90A      1.188364    91A      1.241519
      92A      1.253183    93A      1.273622    94A      1.314608
      95A      1.330448    96A      1.332301    97A      1.427039
      98A      1.445670    99A      1.476898   100A      1.482818
     101A      1.488534   102A      1.527070   103A      1.552474
     104A      1.579332   105A      1.605008   106A      1.633036
     107A      1.679615   108A      1.688800   109A      1.696169
     110A      1.725464   111A      1.783349   112A      1.805579
     113A      1.822673   114A      1.853095   115A      1.863575
     116A      1.878534   117A      1.896443   118A      1.915001
     119A      1.924618   120A      1.940985   121A      1.943797
     122A      1.953688   123A      1.958725   124A      1.965592
     125A      1.970352   126A      1.973817   127A      1.989909
     128A      1.990827   129A      2.051045   130A      2.082192
     131A      2.105096   132A      2.113736   133A      2.115936
     134A      2.140009   135A      2.195852   136A      2.224671
     137A      2.231108   138A      2.293739   139A      2.296892
     140A      2.310781   141A      2.343457   142A      2.374821
     143A      2.441559   144A      2.447834   145A      2.462883
     146A      2.468109   147A      2.510690   148A      2.556303
     149A      2.567243   150A      2.574809   151A      2.608536
     152A      2.693027   153A      2.734394   154A      2.750505
     155A      2.766249   156A      2.780752   157A      2.792908
     158A      2.797849   159A      2.845416   160A      2.846501
     161A      2.852313   162A      2.858497   163A      2.893283
     164A      2.913491   165A      2.953453   166A      2.965333
     167A      2.977877   168A      3.062014   169A      3.159338
     170A      3.234018   171A      3.470693   172A      3.795937

    Final Occupation by Irrep:
              A
    DOCC [    31 ]

  @RHF Final Energy:  -343.10507899860102

   => Energetics <=

    Nuclear Repulsion Energy =            355.9816196185335571
    One-Electron Energy =               -1169.3336459942124748
    Two-Electron Energy =                 470.2469473770778450
    Total Energy =                       -343.1050789986010159

Computation Completed

Properties will be evaluated at   0.000000,   0.000000,   0.000000 [a0]

Properties computed using the SCF density matrix

  Nuclear Dipole Moment: [e a0]
     X:     8.4556      Y:    -5.2562      Z:    -4.4193

  Electronic Dipole Moment: [e a0]
     X:    -8.3389      Y:     5.7037      Z:     3.1938

  Dipole Moment: [e a0]
     X:     0.1167      Y:     0.4475      Z:    -1.2255     Total:     1.3098

  Dipole Moment: [D]
     X:     0.2966      Y:     1.1375      Z:    -3.1149     Total:     3.3293

*** tstop() called on ds3 at Sun Apr 26 19:01:33 2020
Module time:
	user time   =      36.86 seconds =       0.61 minutes
	system time =      15.41 seconds =       0.26 minutes
	total time  =         97 seconds =       1.62 minutes
Total time:
	user time   =      36.86 seconds =       0.61 minutes
	system time =      15.41 seconds =       0.26 minutes
	total time  =         97 seconds =       1.62 minutes
                                     G D M A

                                 by Anthony Stone

                           version 2.2.06, 22 June 2011

               Distributed Multipoles from Gaussian wavefunctions

Starting at 19:1:33 on 26 Apr 2020

Using SCF density matrix from file ./SSI/SSI-170HIE-174LEU-1-dimer.test.29430.fchk

                         Distributed Multipole Analysis

Standard DMA

Positions and radii in angstrom
Multipole moments in atomic units, ea_0^k for rank k

C          x =  0.196309  y =  1.594325  z =  2.514332 angstrom
           Maximum rank =  0   Radius =  0.650 angstrom
                   Q00  =  -0.190878

C          x = -1.487691  y = -0.248675  z = -0.124668 angstrom
           Maximum rank =  0   Radius =  0.650 angstrom
                   Q00  =   0.459312

C          x = -0.383691  y =  1.093325  z =  1.223332 angstrom
           Maximum rank =  0   Radius =  0.650 angstrom
                   Q00  =   0.219639

C          x = -0.258691  y =  1.575325  z = -0.040668 angstrom
           Maximum rank =  0   Radius =  0.650 angstrom
                   Q00  =  -0.004559

N          x = -1.155691  y = -0.047675  z =  1.147332 angstrom
           Maximum rank =  0   Radius =  0.650 angstrom
                   Q00  =  -0.768737

N          x = -0.955691  y =  0.719325  z = -0.864668 angstrom
           Maximum rank =  0   Radius =  0.650 angstrom
                   Q00  =  -0.474299

H          x = -2.086691  y = -1.071675  z = -0.500668 angstrom
           Maximum rank =  0   Radius =  0.325 angstrom
                   Q00  =   0.123629

H          x = -1.032691  y =  0.789325  z = -1.872668 angstrom
           Maximum rank =  0   Radius =  0.325 angstrom
                   Q00  =   0.222147

H          x =  0.304309  y =  2.451325  z = -0.337668 angstrom
           Maximum rank =  0   Radius =  0.325 angstrom
                   Q00  =   0.101294

H          x = -0.571691  y =  1.547325  z =  3.286332 angstrom
           Maximum rank =  0   Radius =  0.325 angstrom
                   Q00  =   0.114983

H          x =  0.437309  y =  2.630325  z =  2.355332 angstrom
           Maximum rank =  0   Radius =  0.325 angstrom
                   Q00  =   0.093692

H          x =  1.069809  y =  1.018935  z =  2.854822 angstrom
           Maximum rank =  0   Radius =  0.325 angstrom
                   Q00  =   0.106417

C          x =  1.370309  y = -1.673675  z = -2.125668 angstrom
           Maximum rank =  0   Radius =  0.650 angstrom
                   Q00  =  -0.240862

C          x =  2.270309  y = -2.653675  z = -1.380668 angstrom
           Maximum rank =  0   Radius =  0.650 angstrom
                   Q00  =  -0.229305

H          x =  1.452309  y = -1.828675  z = -3.201668 angstrom
           Maximum rank =  0   Radius =  0.325 angstrom
                   Q00  =   0.072507

H          x =  0.337309  y = -1.826675  z = -1.819668 angstrom
           Maximum rank =  0   Radius =  0.325 angstrom
                   Q00  =   0.073736

H          x =  1.661309  y = -0.652675  z = -1.881668 angstrom
           Maximum rank =  0   Radius =  0.325 angstrom
                   Q00  =   0.080618

H          x =  2.181309  y = -2.460675  z = -0.314668 angstrom
           Maximum rank =  0   Radius =  0.325 angstrom
                   Q00  =   0.087318

H          x =  3.309959  y = -2.512555  z = -1.711138 angstrom
           Maximum rank =  0   Radius =  0.325 angstrom
                   Q00  =   0.076551

H          x =  1.950469  y = -3.689015  z = -1.569828 angstrom
           Maximum rank =  0   Radius =  0.325 angstrom
                   Q00  =   0.076796

Total multipoles referred to origin at
           x =   0.000000,  y =    0.000000,  z =    0.000000 angstrom
                   Q00  =  -0.000000

Finished at 19:1:33 on 26 Apr 2020

  DMA results are available in the Python driver through the
	  variable('DMA DISTRIBUTED MULTIPOLES')
  and
	  variable('DMA TOTAL MULTIPOLES')
  commands.

    Psi4 stopped on: Sunday, 26 April 2020 07:01PM
    Psi4 wall time for execution: 0:01:37.63

*** Psi4 exiting successfully. Buy a developer a beer!
