                               Psi4 1.3.2 release

  ==> Input File <==

--------------------------------------------------------------------------
import numpy as np
set {scf_type pk
basis cc-pvdz
d_convergence 10
gdma_switch   0
gdma_limit    0
gdma_origin   [ 0.0,  0.0,  0.0 ]
}
molecule test {
    units Angstrom
    0 1
    --
    0 1
    C                2.889552982600565     1.816608169988770    -1.631500827702594
    C                2.149552982600565     1.118608169988770    -0.492500827702594
    O                1.044552982600565     0.620608169988770    -0.779500827702594
    O                2.656552982600565     1.063608169988770     0.657499172297406
    H                2.194552982600564     2.478608169988770    -2.150500827702594
    H                3.207552982600565     1.054608169988770    -2.345500827702594
    H                3.765342982600564     2.404598169988770    -1.319650827702594
    C               -1.452447017399435     0.381608169988770     1.939499172297406
    C               -1.800447017399435    -1.239391830011230     0.088499172297406
    N               -1.178447017399435    -0.212391830011230     0.627499172297406
    N               -2.810447017399435    -1.832391830011230     0.698499172297406
    N               -1.427447017399435    -1.661391830011230    -1.096500827702594
    H               -0.376447017399435     0.153608169988770     0.110499172297406
    H               -0.528447017399435     0.841608169988770     2.296499172297406
    H               -1.708447017399435    -0.396391830011230     2.661499172297406
    H               -3.127447017399435    -1.497391830011230     1.592499172297406
    H               -3.300447017399435    -2.592391830011230     0.225499172297406
    H               -0.655447017399435    -1.198391830011230    -1.550500827702594
    H               -1.984447017399435    -2.371391830011230    -1.576500827702594
    H               -2.237137017399435     1.152458169988770     1.946789172297406

}
e, wfn = energy('scf', return_wfn=True)
gdma(wfn)
dmavals = variable('DMA DISTRIBUTED MULTIPOLES')
charges = np.array(dmavals)
print(charges)
np.save('SSI-004ASP-194ARG-1-dimer.npy', np.array(charges))--------------------------------------------------------------------------

*** tstart() called on ds3
*** at Mon Apr 27 18:59:27 2020

   => Loading Basis Set <=

    Name: CC-PVDZ
    Role: ORBITAL
    Keyword: BASIS
    atoms 1-2, 8-9   entry C          line   138 file /theoryfs2/ds/metcalf/miniconda2/envs/tf2gpu/share/psi4/basis/cc-pvdz.gbs
    atoms 3-4        entry O          line   198 file /theoryfs2/ds/metcalf/miniconda2/envs/tf2gpu/share/psi4/basis/cc-pvdz.gbs
    atoms 5-7, 13-20 entry H          line    22 file /theoryfs2/ds/metcalf/miniconda2/envs/tf2gpu/share/psi4/basis/cc-pvdz.gbs
    atoms 10-12      entry N          line   168 file /theoryfs2/ds/metcalf/miniconda2/envs/tf2gpu/share/psi4/basis/cc-pvdz.gbs

         ---------------------------------------------------------
                                   SCF
               by Justin Turney, Rob Parrish, Andy Simmonett
                          and Daniel G. A. Smith
                              RHF Reference
                        1 Threads,    500 MiB Core
         ---------------------------------------------------------

  ==> Geometry <==

    Molecular point group: c1
    Full point group: C1

    Geometry (in Angstrom), charge = 0, multiplicity = 1:

       Center              X                  Y                   Z               Mass
    ------------   -----------------  -----------------  -----------------  -----------------
         C            2.889552982601     1.816608169989    -1.631500827703    12.000000000000
         C            2.149552982601     1.118608169989    -0.492500827703    12.000000000000
         O            1.044552982601     0.620608169989    -0.779500827703    15.994914619570
         O            2.656552982601     1.063608169989     0.657499172297    15.994914619570
         H            2.194552982601     2.478608169989    -2.150500827703     1.007825032230
         H            3.207552982601     1.054608169989    -2.345500827703     1.007825032230
         H            3.765342982601     2.404598169989    -1.319650827703     1.007825032230
         C           -1.452447017399     0.381608169989     1.939499172297    12.000000000000
         C           -1.800447017399    -1.239391830011     0.088499172297    12.000000000000
         N           -1.178447017399    -0.212391830011     0.627499172297    14.003074004430
         N           -2.810447017399    -1.832391830011     0.698499172297    14.003074004430
         N           -1.427447017399    -1.661391830011    -1.096500827703    14.003074004430
         H           -0.376447017399     0.153608169989     0.110499172297     1.007825032230
         H           -0.528447017399     0.841608169989     2.296499172297     1.007825032230
         H           -1.708447017399    -0.396391830011     2.661499172297     1.007825032230
         H           -3.127447017399    -1.497391830011     1.592499172297     1.007825032230
         H           -3.300447017399    -2.592391830011     0.225499172297     1.007825032230
         H           -0.655447017399    -1.198391830011    -1.550500827703     1.007825032230
         H           -1.984447017399    -2.371391830011    -1.576500827703     1.007825032230
         H           -2.237137017399     1.152458169989     1.946789172297     1.007825032230

  Running in c1 symmetry.

  Rotational constants: A =      0.09931  B =      0.02101  C =      0.01815 [cm^-1]
  Rotational constants: A =   2977.34000  B =    629.77450  C =    544.14430 [MHz]
  Nuclear repulsion =  453.483094958468598

  Charge       = 0
  Multiplicity = 1
  Electrons    = 72
  Nalpha       = 36
  Nbeta        = 36

  ==> Algorithm <==

  SCF Algorithm Type is PK.
  DIIS enabled.
  MOM disabled.
  Fractional occupation disabled.
  Guess Type is SAD.
  Energy threshold   = 1.00e-06
  Density threshold  = 1.00e-10
  Integral threshold = 0.00e+00

  ==> Primary Basis <==

  Basis Set: CC-PVDZ
    Blend: CC-PVDZ
    Number of shells: 87
    Number of basis function: 181
    Number of Cartesian functions: 190
    Spherical Harmonics?: true
    Max angular momentum: 2

  ==> Pre-Iterations <==

   -------------------------------------------------------
    Irrep   Nso     Nmo     Nalpha   Nbeta   Ndocc  Nsocc
   -------------------------------------------------------
     A        181     181       0       0       0       0
   -------------------------------------------------------
    Total     181     181      36      36      36       0
   -------------------------------------------------------

  ==> Integral Setup <==

  Using integral reordering PK algorithm.
  Sizing the integral batches needed.
  Building batch lookup table.
   Calculation information:
      Number of atoms:                  20
      Number of AO shells:              87
      Number of primitives:            253
      Number of atomic orbitals:       190
      Number of basis functions:       181

      Integral cutoff                 1.00e-12
      Number of threads:                 1

	Batch   1 pq = [       0,    9405] index = [             0,44231715] size =     44231715
	Batch   2 pq = [    9405,   13301] index = [      44231715,88464951] size =     44233236
	Batch   3 pq = [   13301,   16471] index = [      88464951,135655156] size =     47190205
  Task number: 13
  Buffer size: 11059200
  Buffer per thread: 2
  We computed 5606182 shell quartets total.
  Whereas there are 7328706 unique shell quartets.

  ==> DiskJK: Disk-Based J/K Matrices <==

    J tasked:                  Yes
    K tasked:                  Yes
    wK tasked:                  No
    Memory [MiB]:              375
    Schwarz Cutoff:          1E-12

    OpenMP threads:              1

  Minimum eigenvalue in the overlap matrix is 3.7420851004E-03.
  Using Symmetric Orthogonalization.

  SCF Guess: Superposition of Atomic Densities via on-the-fly atomic UHF.

  ==> Iterations <==

                        Total Energy        Delta E     RMS |[F,P]|

   @RHF iter SAD:  -469.69760428597181   -4.69698e+02   0.00000e+00
   @RHF iter   1:  -470.69683401153941   -9.99230e-01   4.22907e-03 DIIS
   @RHF iter   2:  -470.92167035645980   -2.24836e-01   2.22801e-03 DIIS
   @RHF iter   3:  -470.98058693119413   -5.89166e-02   4.04188e-04 DIIS
   @RHF iter   4:  -470.98389049252717   -3.30356e-03   1.53377e-04 DIIS
   @RHF iter   5:  -470.98433665287126   -4.46160e-04   3.19680e-05 DIIS
   @RHF iter   6:  -470.98436170399572   -2.50511e-05   1.58953e-05 DIIS
   @RHF iter   7:  -470.98436697141739   -5.26742e-06   3.79201e-06 DIIS
   @RHF iter   8:  -470.98436762697827   -6.55561e-07   1.65421e-06 DIIS
   @RHF iter   9:  -470.98436773663218   -1.09654e-07   6.03602e-07 DIIS
   @RHF iter  10:  -470.98436775579432   -1.91621e-08   2.07971e-07 DIIS
   @RHF iter  11:  -470.98436775782454   -2.03022e-09   5.20870e-08 DIIS
   @RHF iter  12:  -470.98436775792538   -1.00840e-10   1.86121e-08 DIIS
   @RHF iter  13:  -470.98436775793624   -1.08571e-11   6.05691e-09 DIIS
   @RHF iter  14:  -470.98436775793442    1.81899e-12   1.53483e-09 DIIS
   @RHF iter  15:  -470.98436775793868   -4.26326e-12   7.01216e-10 DIIS
   @RHF iter  16:  -470.98436775793789    7.95808e-13   2.30944e-10 DIIS
   @RHF iter  17:  -470.98436775793937   -1.47793e-12   8.67259e-11 DIIS
  Energy and wave function converged.

  ==> Post-Iterations <==

    Orbital Energies [Eh]
    ---------------------

    Doubly Occupied:

       1A    -20.418159     2A    -20.393734     3A    -15.661719
       4A    -15.644961     5A    -15.615067     6A    -11.441159
       7A    -11.301697     8A    -11.256118     9A    -11.161651
      10A     -1.404633    11A     -1.296738    12A     -1.257057
      13A     -1.247807    14A     -1.178412    15A     -0.997505
      16A     -0.910813    17A     -0.894833    18A     -0.834001
      19A     -0.799909    20A     -0.721475    21A     -0.717812
      22A     -0.681115    23A     -0.654509    24A     -0.626980
      25A     -0.606194    26A     -0.575858    27A     -0.542607
      28A     -0.529419    29A     -0.528246    30A     -0.488387
      31A     -0.468707    32A     -0.439519    33A     -0.429758
      34A     -0.333358    35A     -0.308270    36A     -0.307722

    Virtual:

      37A      0.108468    38A      0.146604    39A      0.169460
      40A      0.186536    41A      0.213288    42A      0.234245
      43A      0.252374    44A      0.256121    45A      0.262870
      46A      0.289177    47A      0.302441    48A      0.319289
      49A      0.358976    50A      0.405405    51A      0.418617
      52A      0.464325    53A      0.473694    54A      0.475577
      55A      0.566688    56A      0.586411    57A      0.591792
      58A      0.612796    59A      0.651919    60A      0.664621
      61A      0.674650    62A      0.679099    63A      0.689300
      64A      0.710818    65A      0.722073    66A      0.766068
      67A      0.803678    68A      0.815244    69A      0.823401
      70A      0.828138    71A      0.842819    72A      0.857711
      73A      0.880703    74A      0.902273    75A      0.911114
      76A      0.922234    77A      0.929389    78A      0.930953
      79A      0.954304    80A      0.967750    81A      0.979890
      82A      1.002494    83A      1.012489    84A      1.043525
      85A      1.064543    86A      1.099620    87A      1.115672
      88A      1.161605    89A      1.192479    90A      1.227992
      91A      1.234711    92A      1.250557    93A      1.281969
      94A      1.288840    95A      1.313663    96A      1.346168
      97A      1.366745    98A      1.394186    99A      1.408135
     100A      1.440873   101A      1.455410   102A      1.462528
     103A      1.492445   104A      1.522715   105A      1.566848
     106A      1.597558   107A      1.600345   108A      1.629406
     109A      1.651747   110A      1.673938   111A      1.683829
     112A      1.721312   113A      1.739447   114A      1.746393
     115A      1.781251   116A      1.806930   117A      1.831010
     118A      1.846153   119A      1.862312   120A      1.881110
     121A      1.898864   122A      1.912022   123A      1.943097
     124A      1.952061   125A      1.962895   126A      1.970512
     127A      1.984520   128A      2.001561   129A      2.023906
     130A      2.051055   131A      2.101877   132A      2.139906
     133A      2.153703   134A      2.171415   135A      2.188051
     136A      2.218091   137A      2.267472   138A      2.291217
     139A      2.305344   140A      2.320029   141A      2.338581
     142A      2.371348   143A      2.407569   144A      2.446114
     145A      2.451300   146A      2.456337   147A      2.505602
     148A      2.538281   149A      2.545946   150A      2.575572
     151A      2.598682   152A      2.611070   153A      2.654342
     154A      2.718313   155A      2.730211   156A      2.736536
     157A      2.796103   158A      2.805915   159A      2.853977
     160A      2.857939   161A      2.902332   162A      2.911403
     163A      2.935171   164A      2.944357   165A      2.964653
     166A      3.054815   167A      3.096099   168A      3.129729
     169A      3.145973   170A      3.199272   171A      3.222540
     172A      3.264476   173A      3.327505   174A      3.483200
     175A      3.641118   176A      3.672856   177A      3.760554
     178A      3.800885   179A      3.924374   180A      3.967221
     181A      4.078854

    Final Occupation by Irrep:
              A
    DOCC [    36 ]

  @RHF Final Energy:  -470.98436775793937

   => Energetics <=

    Nuclear Repulsion Energy =            453.4830949584685982
    One-Electron Energy =               -1543.5831050016993231
    Two-Electron Energy =                 619.1156422852913011
    Total Energy =                       -470.9843677579393670

Computation Completed

Properties will be evaluated at   0.000000,   0.000000,   0.000000 [a0]

Properties computed using the SCF density matrix

  Nuclear Dipole Moment: [e a0]
     X:    -4.4202      Y:     0.0465      Z:    -0.1038

  Electronic Dipole Moment: [e a0]
     X:    -0.9501      Y:    -2.8839      Z:     0.0834

  Dipole Moment: [e a0]
     X:    -5.3703      Y:    -2.8374      Z:    -0.0204     Total:     6.0738

  Dipole Moment: [D]
     X:   -13.6501      Y:    -7.2119      Z:    -0.0519     Total:    15.4382

*** tstop() called on ds3 at Mon Apr 27 19:00:27 2020
Module time:
	user time   =      41.43 seconds =       0.69 minutes
	system time =      20.50 seconds =       0.34 minutes
	total time  =         60 seconds =       1.00 minutes
Total time:
	user time   =      41.43 seconds =       0.69 minutes
	system time =      20.50 seconds =       0.34 minutes
	total time  =         60 seconds =       1.00 minutes
                                     G D M A

                                 by Anthony Stone

                           version 2.2.06, 22 June 2011

               Distributed Multipoles from Gaussian wavefunctions

Starting at 19:0:27 on 27 Apr 2020

Using SCF density matrix from file ./SSI/SSI-004ASP-194ARG-1-dimer.test.995.fchk

                         Distributed Multipole Analysis

Standard DMA

Positions and radii in angstrom
Multipole moments in atomic units, ea_0^k for rank k

C          x =  2.889553  y =  1.816608  z = -1.631501 angstrom
           Maximum rank =  0   Radius =  0.650 angstrom
                   Q00  =  -0.269889

C          x =  2.149553  y =  1.118608  z = -0.492501 angstrom
           Maximum rank =  0   Radius =  0.650 angstrom
                   Q00  =   0.918517

O          x =  1.044553  y =  0.620608  z = -0.779501 angstrom
           Maximum rank =  0   Radius =  0.650 angstrom
                   Q00  =  -0.986615

O          x =  2.656553  y =  1.063608  z =  0.657499 angstrom
           Maximum rank =  0   Radius =  0.650 angstrom
                   Q00  =  -0.883196

H          x =  2.194553  y =  2.478608  z = -2.150501 angstrom
           Maximum rank =  0   Radius =  0.325 angstrom
                   Q00  =   0.076797

H          x =  3.207553  y =  1.054608  z = -2.345501 angstrom
           Maximum rank =  0   Radius =  0.325 angstrom
                   Q00  =   0.090525

H          x =  3.765343  y =  2.404598  z = -1.319651 angstrom
           Maximum rank =  0   Radius =  0.325 angstrom
                   Q00  =   0.082398

C          x = -1.452447  y =  0.381608  z =  1.939499 angstrom
           Maximum rank =  0   Radius =  0.650 angstrom
                   Q00  =  -0.105000

C          x = -1.800447  y = -1.239392  z =  0.088499 angstrom
           Maximum rank =  0   Radius =  0.650 angstrom
                   Q00  =   1.070600

N          x = -1.178447  y = -0.212392  z =  0.627499 angstrom
           Maximum rank =  0   Radius =  0.650 angstrom
                   Q00  =  -0.523704

N          x = -2.810447  y = -1.832392  z =  0.698499 angstrom
           Maximum rank =  0   Radius =  0.650 angstrom
                   Q00  =  -0.589242

N          x = -1.427447  y = -1.661392  z = -1.096501 angstrom
           Maximum rank =  0   Radius =  0.650 angstrom
                   Q00  =  -0.585172

H          x = -0.376447  y =  0.153608  z =  0.110499 angstrom
           Maximum rank =  0   Radius =  0.325 angstrom
                   Q00  =   0.342213

H          x = -0.528447  y =  0.841608  z =  2.296499 angstrom
           Maximum rank =  0   Radius =  0.325 angstrom
                   Q00  =   0.167385

H          x = -1.708447  y = -0.396392  z =  2.661499 angstrom
           Maximum rank =  0   Radius =  0.325 angstrom
                   Q00  =   0.077360

H          x = -3.127447  y = -1.497392  z =  1.592499 angstrom
           Maximum rank =  0   Radius =  0.325 angstrom
                   Q00  =   0.254967

H          x = -3.300447  y = -2.592392  z =  0.225499 angstrom
           Maximum rank =  0   Radius =  0.325 angstrom
                   Q00  =   0.240555

H          x = -0.655447  y = -1.198392  z = -1.550501 angstrom
           Maximum rank =  0   Radius =  0.325 angstrom
                   Q00  =   0.284544

H          x = -1.984447  y = -2.371392  z = -1.576501 angstrom
           Maximum rank =  0   Radius =  0.325 angstrom
                   Q00  =   0.236035

H          x = -2.237137  y =  1.152458  z =  1.946789 angstrom
           Maximum rank =  0   Radius =  0.325 angstrom
                   Q00  =   0.100924

Total multipoles referred to origin at
           x =   0.000000,  y =    0.000000,  z =    0.000000 angstrom
                   Q00  =  -0.000000

Finished at 19:0:27 on 27 Apr 2020

  DMA results are available in the Python driver through the
	  variable('DMA DISTRIBUTED MULTIPOLES')
  and
	  variable('DMA TOTAL MULTIPOLES')
  commands.

    Psi4 stopped on: Monday, 27 April 2020 07:00PM
    Psi4 wall time for execution: 0:01:00.14

*** Psi4 exiting successfully. Buy a developer a beer!
