                               Psi4 1.3.2 release

  ==> Input File <==

--------------------------------------------------------------------------
import numpy as np
set {scf_type pk
basis cc-pvdz
d_convergence 10
gdma_switch   0
gdma_limit    0
gdma_origin   [ 0.0,  0.0,  0.0 ]
}
molecule test {
    units Angstrom
    1 1
    --
    1 1
    C               -3.219891606153195     0.065396355374057     0.144635013670040
    O               -2.591891606153196    -0.007603644625943    -1.116364986329960
    H               -3.051891606153196     0.535396355374057    -1.777364986329960
    H               -2.731891606153196    -0.633603644625943     0.822635013670040
    H               -4.266891606153195    -0.223603644625943     0.030635013670040
    H               -3.158641606153195     1.079266355374057     0.566902013670040
    C                0.400108393846805    -1.191603644625943    -0.465364986329960
    C                0.351108393846805    -1.549603644625943    -1.941364986329960
    C                1.397108393846805     0.640396355374057     0.865635013670040
    N                1.371108393846805    -0.120603644625943    -0.216364986329960
    N                0.512108393846805     0.463396355374057     1.827635013670040
    N                2.299108393846804     1.593396355374056     0.978635013670040
    H               -0.591891606153195    -0.892603644625943    -0.141364986329960
    H                0.690108393846805    -2.081603644625943     0.097635013670040
    H               -0.439891606153195    -2.285603644625943    -2.087364986329960
    H                1.305108393846805    -1.989603644625943    -2.238364986329960
    H                2.122108393846805    -0.000603644625943    -0.883364986329960
    H               -0.130891606153195    -0.307603644625943     1.778635013670040
    H                0.556108393846805     1.010396355374057     2.672635013670040
    H                2.986108393846804     1.734396355374057     0.254635013670040
    H                2.340108393846805     2.161396355374057     1.810635013670040
    H                0.155808393846805    -0.652103644625943    -2.546638186329960

}
e, wfn = energy('scf', return_wfn=True)
gdma(wfn)
dmavals = variable('DMA DISTRIBUTED MULTIPOLES')
charges = np.array(dmavals)
print(charges)
np.save('SSI-019SER-023ARG-2-dimer.npy', np.array(charges))--------------------------------------------------------------------------

*** tstart() called on ds3
*** at Mon Apr 27 22:55:17 2020

   => Loading Basis Set <=

    Name: CC-PVDZ
    Role: ORBITAL
    Keyword: BASIS
    atoms 1, 7-9     entry C          line   138 file /theoryfs2/ds/metcalf/miniconda2/envs/tf2gpu/share/psi4/basis/cc-pvdz.gbs
    atoms 2          entry O          line   198 file /theoryfs2/ds/metcalf/miniconda2/envs/tf2gpu/share/psi4/basis/cc-pvdz.gbs
    atoms 3-6, 13-22 entry H          line    22 file /theoryfs2/ds/metcalf/miniconda2/envs/tf2gpu/share/psi4/basis/cc-pvdz.gbs
    atoms 10-12      entry N          line   168 file /theoryfs2/ds/metcalf/miniconda2/envs/tf2gpu/share/psi4/basis/cc-pvdz.gbs

         ---------------------------------------------------------
                                   SCF
               by Justin Turney, Rob Parrish, Andy Simmonett
                          and Daniel G. A. Smith
                              RHF Reference
                        1 Threads,    500 MiB Core
         ---------------------------------------------------------

  ==> Geometry <==

    Molecular point group: c1
    Full point group: C1

    Geometry (in Angstrom), charge = 1, multiplicity = 1:

       Center              X                  Y                   Z               Mass
    ------------   -----------------  -----------------  -----------------  -----------------
         C           -3.219891606153     0.065396355374     0.144635013670    12.000000000000
         O           -2.591891606153    -0.007603644626    -1.116364986330    15.994914619570
         H           -3.051891606153     0.535396355374    -1.777364986330     1.007825032230
         H           -2.731891606153    -0.633603644626     0.822635013670     1.007825032230
         H           -4.266891606153    -0.223603644626     0.030635013670     1.007825032230
         H           -3.158641606153     1.079266355374     0.566902013670     1.007825032230
         C            0.400108393847    -1.191603644626    -0.465364986330    12.000000000000
         C            0.351108393847    -1.549603644626    -1.941364986330    12.000000000000
         C            1.397108393847     0.640396355374     0.865635013670    12.000000000000
         N            1.371108393847    -0.120603644626    -0.216364986330    14.003074004430
         N            0.512108393847     0.463396355374     1.827635013670    14.003074004430
         N            2.299108393847     1.593396355374     0.978635013670    14.003074004430
         H           -0.591891606153    -0.892603644626    -0.141364986330     1.007825032230
         H            0.690108393847    -2.081603644626     0.097635013670     1.007825032230
         H           -0.439891606153    -2.285603644626    -2.087364986330     1.007825032230
         H            1.305108393847    -1.989603644626    -2.238364986330     1.007825032230
         H            2.122108393847    -0.000603644626    -0.883364986330     1.007825032230
         H           -0.130891606153    -0.307603644626     1.778635013670     1.007825032230
         H            0.556108393847     1.010396355374     2.672635013670     1.007825032230
         H            2.986108393847     1.734396355374     0.254635013670     1.007825032230
         H            2.340108393847     2.161396355374     1.810635013670     1.007825032230
         H            0.155808393847    -0.652103644626    -2.546638186330     1.007825032230

  Running in c1 symmetry.

  Rotational constants: A =      0.07003  B =      0.03263  C =      0.02484 [cm^-1]
  Rotational constants: A =   2099.45746  B =    978.36904  C =    744.66736 [MHz]
  Nuclear repulsion =  404.591817000847982

  Charge       = 1
  Multiplicity = 1
  Electrons    = 66
  Nalpha       = 33
  Nbeta        = 33

  ==> Algorithm <==

  SCF Algorithm Type is PK.
  DIIS enabled.
  MOM disabled.
  Fractional occupation disabled.
  Guess Type is SAD.
  Energy threshold   = 1.00e-06
  Density threshold  = 1.00e-10
  Integral threshold = 0.00e+00

  ==> Primary Basis <==

  Basis Set: CC-PVDZ
    Blend: CC-PVDZ
    Number of shells: 90
    Number of basis function: 182
    Number of Cartesian functions: 190
    Spherical Harmonics?: true
    Max angular momentum: 2

  ==> Pre-Iterations <==

   -------------------------------------------------------
    Irrep   Nso     Nmo     Nalpha   Nbeta   Ndocc  Nsocc
   -------------------------------------------------------
     A        182     182       0       0       0       0
   -------------------------------------------------------
    Total     182     182      33      33      33       0
   -------------------------------------------------------

  ==> Integral Setup <==

  Using integral reordering PK algorithm.
  Sizing the integral batches needed.
  Building batch lookup table.
   Calculation information:
      Number of atoms:                  22
      Number of AO shells:              90
      Number of primitives:            246
      Number of atomic orbitals:       190
      Number of basis functions:       182

      Integral cutoff                 1.00e-12
      Number of threads:                 1

	Batch   1 pq = [       0,    9405] index = [             0,44231715] size =     44231715
	Batch   2 pq = [    9405,   13301] index = [      44231715,88464951] size =     44233236
	Batch   3 pq = [   13301,   16290] index = [      88464951,132690195] size =     44225244
	Batch   4 pq = [   16290,   16653] index = [     132690195,138669531] size =      5979336
  Task number: 13
  Buffer size: 11059200
  Buffer per thread: 2
  We computed 7428487 shell quartets total.
  Whereas there are 8386560 unique shell quartets.

  ==> DiskJK: Disk-Based J/K Matrices <==

    J tasked:                  Yes
    K tasked:                  Yes
    wK tasked:                  No
    Memory [MiB]:              375
    Schwarz Cutoff:          1E-12

    OpenMP threads:              1

  Minimum eigenvalue in the overlap matrix is 3.6359181609E-03.
  Using Symmetric Orthogonalization.

  SCF Guess: Superposition of Atomic Densities via on-the-fly atomic UHF.

  ==> Iterations <==

                        Total Energy        Delta E     RMS |[F,P]|

   @RHF iter SAD:  -396.90827874317540   -3.96908e+02   0.00000e+00
   @RHF iter   1:  -397.46286337308914   -5.54585e-01   3.41607e-03 DIIS
   @RHF iter   2:  -397.64741546229527   -1.84552e-01   1.47523e-03 DIIS
   @RHF iter   3:  -397.67802159427151   -3.06061e-02   3.51066e-04 DIIS
   @RHF iter   4:  -397.68081686942907   -2.79528e-03   8.94200e-05 DIIS
   @RHF iter   5:  -397.68097047148149   -1.53602e-04   2.24629e-05 DIIS
   @RHF iter   6:  -397.68098516267446   -1.46912e-05   6.25062e-06 DIIS
   @RHF iter   7:  -397.68098632853071   -1.16586e-06   1.76907e-06 DIIS
   @RHF iter   8:  -397.68098643841103   -1.09880e-07   5.49637e-07 DIIS
   @RHF iter   9:  -397.68098644726257   -8.85154e-09   8.97430e-08 DIIS
   @RHF iter  10:  -397.68098644759937   -3.36797e-10   3.03574e-08 DIIS
   @RHF iter  11:  -397.68098644762819   -2.88196e-11   9.27112e-09 DIIS
   @RHF iter  12:  -397.68098644763222   -4.03588e-12   3.64587e-09 DIIS
   @RHF iter  13:  -397.68098644763188    3.41061e-13   1.09553e-09 DIIS
   @RHF iter  14:  -397.68098644762978    2.10321e-12   4.10911e-10 DIIS
   @RHF iter  15:  -397.68098644763188   -2.10321e-12   8.56808e-11 DIIS
  Energy and wave function converged.

  ==> Post-Iterations <==

    Orbital Energies [Eh]
    ---------------------

    Doubly Occupied:

       1A    -20.663429     2A    -15.780279     3A    -15.779994
       4A    -15.770681     5A    -11.579267     6A    -11.417428
       7A    -11.387001     8A    -11.354428     9A     -1.537291
      10A     -1.463581    11A     -1.392856    12A     -1.384928
      13A     -1.174698    14A     -1.045294    15A     -1.033420
      16A     -1.003927    17A     -0.966140    18A     -0.925106
      19A     -0.850595    20A     -0.848452    21A     -0.820182
      22A     -0.797550    23A     -0.779509    24A     -0.752829
      25A     -0.728368    26A     -0.707373    27A     -0.672036
      28A     -0.654241    29A     -0.642973    30A     -0.611021
      31A     -0.605302    32A     -0.567771    33A     -0.553188

    Virtual:

      34A     -0.001694    35A      0.029601    36A      0.036196
      37A      0.044388    38A      0.065194    39A      0.076884
      40A      0.093865    41A      0.119893    42A      0.127784
      43A      0.137519    44A      0.151172    45A      0.163090
      46A      0.170507    47A      0.183612    48A      0.204185
      49A      0.221110    50A      0.256143    51A      0.280658
      52A      0.304178    53A      0.349999    54A      0.359077
      55A      0.456773    56A      0.466470    57A      0.487449
      58A      0.506756    59A      0.523011    60A      0.527247
      61A      0.545354    62A      0.551426    63A      0.566990
      64A      0.574962    65A      0.582815    66A      0.612812
      67A      0.662004    68A      0.691805    69A      0.698542
      70A      0.729130    71A      0.741197    72A      0.749556
      73A      0.757396    74A      0.764926    75A      0.772173
      76A      0.780217    77A      0.783135    78A      0.791497
      79A      0.805597    80A      0.813905    81A      0.827991
      82A      0.853176    83A      0.884617    84A      0.902042
      85A      0.922232    86A      0.944051    87A      0.947144
      88A      0.997204    89A      1.042134    90A      1.044934
      91A      1.063879    92A      1.112181    93A      1.126889
      94A      1.146276    95A      1.164493    96A      1.182265
      97A      1.193057    98A      1.222474    99A      1.230931
     100A      1.248981   101A      1.271164   102A      1.316667
     103A      1.360947   104A      1.406674   105A      1.444352
     106A      1.491346   107A      1.510834   108A      1.523992
     109A      1.535691   110A      1.551921   111A      1.555004
     112A      1.564542   113A      1.578444   114A      1.616532
     115A      1.631145   116A      1.682554   117A      1.712512
     118A      1.729676   119A      1.736075   120A      1.755995
     121A      1.757442   122A      1.776888   123A      1.788010
     124A      1.800165   125A      1.808534   126A      1.815142
     127A      1.833820   128A      1.839968   129A      1.844880
     130A      1.861378   131A      1.871684   132A      1.913363
     133A      1.934901   134A      1.950960   135A      1.982927
     136A      2.013595   137A      2.042966   138A      2.045108
     139A      2.090444   140A      2.096554   141A      2.138975
     142A      2.181338   143A      2.192278   144A      2.218101
     145A      2.257601   146A      2.260095   147A      2.269053
     148A      2.284668   149A      2.303204   150A      2.350888
     151A      2.359748   152A      2.372064   153A      2.394376
     154A      2.410316   155A      2.422048   156A      2.479175
     157A      2.502302   158A      2.562933   159A      2.637053
     160A      2.644206   161A      2.645767   162A      2.652741
     163A      2.666497   164A      2.675543   165A      2.692744
     166A      2.717042   167A      2.779055   168A      2.819932
     169A      2.842593   170A      2.860249   171A      2.871579
     172A      2.962746   173A      3.073109   174A      3.107213
     175A      3.152097   176A      3.180316   177A      3.288365
     178A      3.331618   179A      3.505697   180A      3.592955
     181A      3.668768   182A      3.991448

    Final Occupation by Irrep:
              A
    DOCC [    33 ]

  @RHF Final Energy:  -397.68098644763188

   => Energetics <=

    Nuclear Repulsion Energy =            404.5918170008479819
    One-Electron Energy =               -1332.0433318802547547
    Two-Electron Energy =                 529.7705284317748919
    Total Energy =                       -397.6809864476318808

Computation Completed

Properties will be evaluated at   0.000000,   0.000000,   0.000000 [a0]

Properties computed using the SCF density matrix

  Nuclear Dipole Moment: [e a0]
     X:    -3.9775      Y:    -2.3925      Z:    -1.5504

  Electronic Dipole Moment: [e a0]
     X:     5.5969      Y:     3.5767      Z:     2.8972

  Dipole Moment: [e a0]
     X:     1.6195      Y:     1.1841      Z:     1.3468     Total:     2.4163

  Dipole Moment: [D]
     X:     4.1163      Y:     3.0097      Z:     3.4231     Total:     6.1417

*** tstop() called on ds3 at Mon Apr 27 22:56:34 2020
Module time:
	user time   =      49.83 seconds =       0.83 minutes
	system time =      20.30 seconds =       0.34 minutes
	total time  =         77 seconds =       1.28 minutes
Total time:
	user time   =      49.83 seconds =       0.83 minutes
	system time =      20.30 seconds =       0.34 minutes
	total time  =         77 seconds =       1.28 minutes
                                     G D M A

                                 by Anthony Stone

                           version 2.2.06, 22 June 2011

               Distributed Multipoles from Gaussian wavefunctions

Starting at 22:56:34 on 27 Apr 2020

Using SCF density matrix from file ./SSI/SSI-019SER-023ARG-2-dimer.test.2731.fchk

                         Distributed Multipole Analysis

Standard DMA

Positions and radii in angstrom
Multipole moments in atomic units, ea_0^k for rank k

C          x = -3.219892  y =  0.065396  z =  0.144635 angstrom
           Maximum rank =  0   Radius =  0.650 angstrom
                   Q00  =  -0.035737

O          x = -2.591892  y = -0.007604  z = -1.116365 angstrom
           Maximum rank =  0   Radius =  0.650 angstrom
                   Q00  =  -0.623042

H          x = -3.051892  y =  0.535396  z = -1.777365 angstrom
           Maximum rank =  0   Radius =  0.325 angstrom
                   Q00  =   0.414484

H          x = -2.731892  y = -0.633604  z =  0.822635 angstrom
           Maximum rank =  0   Radius =  0.325 angstrom
                   Q00  =   0.081603

H          x = -4.266892  y = -0.223604  z =  0.030635 angstrom
           Maximum rank =  0   Radius =  0.325 angstrom
                   Q00  =   0.104008

H          x = -3.158642  y =  1.079266  z =  0.566902 angstrom
           Maximum rank =  0   Radius =  0.325 angstrom
                   Q00  =   0.072474

C          x =  0.400108  y = -1.191604  z = -0.465365 angstrom
           Maximum rank =  0   Radius =  0.650 angstrom
                   Q00  =  -0.016932

C          x =  0.351108  y = -1.549604  z = -1.941365 angstrom
           Maximum rank =  0   Radius =  0.650 angstrom
                   Q00  =  -0.204238

C          x =  1.397108  y =  0.640396  z =  0.865635 angstrom
           Maximum rank =  0   Radius =  0.650 angstrom
                   Q00  =   1.088813

N          x =  1.371108  y = -0.120604  z = -0.216365 angstrom
           Maximum rank =  0   Radius =  0.650 angstrom
                   Q00  =  -0.495723

N          x =  0.512108  y =  0.463396  z =  1.827635 angstrom
           Maximum rank =  0   Radius =  0.650 angstrom
                   Q00  =  -0.583372

N          x =  2.299108  y =  1.593396  z =  0.978635 angstrom
           Maximum rank =  0   Radius =  0.650 angstrom
                   Q00  =  -0.597114

H          x = -0.591892  y = -0.892604  z = -0.141365 angstrom
           Maximum rank =  0   Radius =  0.325 angstrom
                   Q00  =   0.088669

H          x =  0.690108  y = -2.081604  z =  0.097635 angstrom
           Maximum rank =  0   Radius =  0.325 angstrom
                   Q00  =   0.088397

H          x = -0.439892  y = -2.285604  z = -2.087365 angstrom
           Maximum rank =  0   Radius =  0.325 angstrom
                   Q00  =   0.141053

H          x =  1.305108  y = -1.989604  z = -2.238365 angstrom
           Maximum rank =  0   Radius =  0.325 angstrom
                   Q00  =   0.090162

H          x =  2.122108  y = -0.000604  z = -0.883365 angstrom
           Maximum rank =  0   Radius =  0.325 angstrom
                   Q00  =   0.226809

H          x = -0.130892  y = -0.307604  z =  1.778635 angstrom
           Maximum rank =  0   Radius =  0.325 angstrom
                   Q00  =   0.270794

H          x =  0.556108  y =  1.010396  z =  2.672635 angstrom
           Maximum rank =  0   Radius =  0.325 angstrom
                   Q00  =   0.262039

H          x =  2.986108  y =  1.734396  z =  0.254635 angstrom
           Maximum rank =  0   Radius =  0.325 angstrom
                   Q00  =   0.264876

H          x =  2.340108  y =  2.161396  z =  1.810635 angstrom
           Maximum rank =  0   Radius =  0.325 angstrom
                   Q00  =   0.262533

H          x =  0.155808  y = -0.652104  z = -2.546638 angstrom
           Maximum rank =  0   Radius =  0.325 angstrom
                   Q00  =   0.099442

Total multipoles referred to origin at
           x =   0.000000,  y =    0.000000,  z =    0.000000 angstrom
                   Q00  =   1.000000

Finished at 22:56:34 on 27 Apr 2020

  DMA results are available in the Python driver through the
	  variable('DMA DISTRIBUTED MULTIPOLES')
  and
	  variable('DMA TOTAL MULTIPOLES')
  commands.

    Psi4 stopped on: Monday, 27 April 2020 10:56PM
    Psi4 wall time for execution: 0:01:17.22

*** Psi4 exiting successfully. Buy a developer a beer!
