                               Psi4 1.3.2 release

  ==> Input File <==

--------------------------------------------------------------------------
import numpy as np
set {scf_type pk
basis cc-pvdz
d_convergence 10
gdma_switch   0
gdma_limit    0
gdma_origin   [ 0.0,  0.0,  0.0 ]
}
molecule test {
    units Angstrom
    0 1
    --
    0 1
    C               -1.718915759120947     3.088691160229184    -1.599632659404031
    C               -2.240915759120947     1.701691160229184     0.436367340595969
    C               -1.293915759120947     2.316691160229184    -0.386632659404031
    C               -1.848915759120947     1.056691160229184     1.619367340595969
    C               -0.485915759120947     1.023691160229184     1.983367340595969
    C                0.071084240879053     2.268691160229184    -0.034632659404031
    C                0.471084240879053     1.628691160229184     1.147367340595969
    H               -3.287915759120947     1.742691160229184     0.176367340595969
    H               -2.586915759120946     0.606691160229184     2.265367340595969
    H               -2.805915759120947     3.073691160229183    -1.699632659404031
    H               -1.294915759120947     2.595691160229183    -2.468632659404031
    H               -0.176915759120947     0.529691160229184     2.894367340595969
    H                0.820084240879053     2.718691160229184    -0.668632659404031
    H                1.518084240879053     1.590691160229184     1.411367340595969
    H               -1.366235759120947     4.130161160229183    -1.568683659404031
    C               -0.353915759120947    -1.063308839770816    -1.386632659404031
    C               -0.141915759120947    -1.530308839770816    -2.857632659404031
    C                0.651084240879053    -1.618308839770816    -0.394632659404031
    C                0.448084240879053    -2.350308839770817     0.736367340595969
    C                2.618084240879054    -2.046308839770816     0.502367340595969
    N                2.021084240879053    -1.440308839770816    -0.529632659404031
    N                1.694084240879053    -2.606308839770817     1.279367340595969
    H               -0.281915759120947     0.017691160229184    -1.356632659404031
    H               -1.334915759120947    -1.350308839770816    -1.028632659404031
    H                0.879084240879053    -1.314308839770816    -3.170632659404031
    H               -0.506915759120947    -2.644308839770817     1.142367340595969
    H                3.676084240879053    -2.056308839770816     0.693367340595969
    H                1.862084240879053    -3.092308839770816     2.161367340595969
    H               -0.866415759120947    -1.007308839770816    -3.499164659404031
    H               -0.322805759120947    -2.614178839770817    -2.907757659404031

}
e, wfn = energy('scf', return_wfn=True)
gdma(wfn)
dmavals = variable('DMA DISTRIBUTED MULTIPOLES')
charges = np.array(dmavals)
print(charges)
np.save('SSI-119PHE-124HIE-1-dimer.npy', np.array(charges))--------------------------------------------------------------------------

*** tstart() called on ds3
*** at Tue Apr 28 03:27:29 2020

   => Loading Basis Set <=

    Name: CC-PVDZ
    Role: ORBITAL
    Keyword: BASIS
    atoms 1-7, 16-20  entry C          line   138 file /theoryfs2/ds/metcalf/miniconda2/envs/tf2gpu/share/psi4/basis/cc-pvdz.gbs
    atoms 8-15, 23-30 entry H          line    22 file /theoryfs2/ds/metcalf/miniconda2/envs/tf2gpu/share/psi4/basis/cc-pvdz.gbs
    atoms 21-22       entry N          line   168 file /theoryfs2/ds/metcalf/miniconda2/envs/tf2gpu/share/psi4/basis/cc-pvdz.gbs

         ---------------------------------------------------------
                                   SCF
               by Justin Turney, Rob Parrish, Andy Simmonett
                          and Daniel G. A. Smith
                              RHF Reference
                        1 Threads,    500 MiB Core
         ---------------------------------------------------------

  ==> Geometry <==

    Molecular point group: c1
    Full point group: C1

    Geometry (in Angstrom), charge = 0, multiplicity = 1:

       Center              X                  Y                   Z               Mass
    ------------   -----------------  -----------------  -----------------  -----------------
         C           -1.718915759121     3.088691160229    -1.599632659404    12.000000000000
         C           -2.240915759121     1.701691160229     0.436367340596    12.000000000000
         C           -1.293915759121     2.316691160229    -0.386632659404    12.000000000000
         C           -1.848915759121     1.056691160229     1.619367340596    12.000000000000
         C           -0.485915759121     1.023691160229     1.983367340596    12.000000000000
         C            0.071084240879     2.268691160229    -0.034632659404    12.000000000000
         C            0.471084240879     1.628691160229     1.147367340596    12.000000000000
         H           -3.287915759121     1.742691160229     0.176367340596     1.007825032230
         H           -2.586915759121     0.606691160229     2.265367340596     1.007825032230
         H           -2.805915759121     3.073691160229    -1.699632659404     1.007825032230
         H           -1.294915759121     2.595691160229    -2.468632659404     1.007825032230
         H           -0.176915759121     0.529691160229     2.894367340596     1.007825032230
         H            0.820084240879     2.718691160229    -0.668632659404     1.007825032230
         H            1.518084240879     1.590691160229     1.411367340596     1.007825032230
         H           -1.366235759121     4.130161160229    -1.568683659404     1.007825032230
         C           -0.353915759121    -1.063308839771    -1.386632659404    12.000000000000
         C           -0.141915759121    -1.530308839771    -2.857632659404    12.000000000000
         C            0.651084240879    -1.618308839771    -0.394632659404    12.000000000000
         C            0.448084240879    -2.350308839771     0.736367340596    12.000000000000
         C            2.618084240879    -2.046308839771     0.502367340596    12.000000000000
         N            2.021084240879    -1.440308839771    -0.529632659404    14.003074004430
         N            1.694084240879    -2.606308839771     1.279367340596    14.003074004430
         H           -0.281915759121     0.017691160229    -1.356632659404     1.007825032230
         H           -1.334915759121    -1.350308839771    -1.028632659404     1.007825032230
         H            0.879084240879    -1.314308839771    -3.170632659404     1.007825032230
         H           -0.506915759121    -2.644308839771     1.142367340596     1.007825032230
         H            3.676084240879    -2.056308839771     0.693367340596     1.007825032230
         H            1.862084240879    -3.092308839771     2.161367340596     1.007825032230
         H           -0.866415759121    -1.007308839771    -3.499164659404     1.007825032230
         H           -0.322805759121    -2.614178839771    -2.907757659404     1.007825032230

  Running in c1 symmetry.

  Rotational constants: A =      0.03307  B =      0.01499  C =      0.01257 [cm^-1]
  Rotational constants: A =    991.51410  B =    449.40305  C =    376.86277 [MHz]
  Nuclear repulsion =  846.098776623645222

  Charge       = 0
  Multiplicity = 1
  Electrons    = 102
  Nalpha       = 51
  Nbeta        = 51

  ==> Algorithm <==

  SCF Algorithm Type is PK.
  DIIS enabled.
  MOM disabled.
  Fractional occupation disabled.
  Guess Type is SAD.
  Energy threshold   = 1.00e-06
  Density threshold  = 1.00e-10
  Integral threshold = 0.00e+00

  ==> Primary Basis <==

  Basis Set: CC-PVDZ
    Blend: CC-PVDZ
    Number of shells: 132
    Number of basis function: 276
    Number of Cartesian functions: 290
    Spherical Harmonics?: true
    Max angular momentum: 2

  ==> Pre-Iterations <==

   -------------------------------------------------------
    Irrep   Nso     Nmo     Nalpha   Nbeta   Ndocc  Nsocc
   -------------------------------------------------------
     A        276     276       0       0       0       0
   -------------------------------------------------------
    Total     276     276      51      51      51       0
   -------------------------------------------------------

  ==> Integral Setup <==

  Using integral reordering PK algorithm.
  Sizing the integral batches needed.
  Building batch lookup table.
   Calculation information:
      Number of atoms:                  30
      Number of AO shells:             132
      Number of primitives:            388
      Number of atomic orbitals:       290
      Number of basis functions:       276

      Integral cutoff                 1.00e-12
      Number of threads:                 1

	Batch   1 pq = [       0,    9405] index = [             0,44231715] size =     44231715
	Batch   2 pq = [    9405,   13301] index = [      44231715,88464951] size =     44233236
	Batch   3 pq = [   13301,   16290] index = [      88464951,132690195] size =     44225244
	Batch   4 pq = [   16290,   18810] index = [     132690195,176917455] size =     44227260
	Batch   5 pq = [   18810,   21030] index = [     176917455,221140965] size =     44223510
	Batch   6 pq = [   21030,   23037] index = [     221140965,265363203] size =     44222238
	Batch   7 pq = [   23037,   24883] index = [     265363203,309594286] size =     44231083
	Batch   8 pq = [   24883,   26601] index = [     309594286,353819901] size =     44225615
	Batch   9 pq = [   26601,   28214] index = [     353819901,398029005] size =     44209104
	Batch  10 pq = [   28214,   29740] index = [     398029005,442248670] size =     44219665
	Batch  11 pq = [   29740,   31191] index = [     442248670,486454836] size =     44206166
	Batch  12 pq = [   31191,   32578] index = [     486454836,530679331] size =     44224495
	Batch  13 pq = [   32578,   33908] index = [     530679331,574893186] size =     44213855
	Batch  14 pq = [   33908,   35188] index = [     574893186,619115266] size =     44222080
	Batch  15 pq = [   35188,   36423] index = [     619115266,663335676] size =     44220410
	Batch  16 pq = [   36423,   37617] index = [     663335676,707538153] size =     44202477
	Batch  17 pq = [   37617,   38226] index = [     707538153,730632651] size =     23094498
  Task number: 67
  Buffer size: 11059200
  Buffer per thread: 2
  We computed 44066331 shell quartets total.
  Whereas there are 38531031 unique shell quartets.
    14.37 percent of shell quartets recomputed by reordering.

  ==> DiskJK: Disk-Based J/K Matrices <==

    J tasked:                  Yes
    K tasked:                  Yes
    wK tasked:                  No
    Memory [MiB]:              375
    Schwarz Cutoff:          1E-12

    OpenMP threads:              1

  Minimum eigenvalue in the overlap matrix is 3.3405600237E-04.
  Using Symmetric Orthogonalization.

  SCF Guess: Superposition of Atomic Densities via on-the-fly atomic UHF.

  ==> Iterations <==

                        Total Energy        Delta E     RMS |[F,P]|

   @RHF iter SAD:  -571.49952898444462   -5.71500e+02   0.00000e+00
   @RHF iter   1:  -572.35550197583643   -8.55973e-01   2.42891e-03 DIIS
   @RHF iter   2:  -572.60295108325488   -2.47449e-01   1.20984e-03 DIIS
   @RHF iter   3:  -572.65674922739800   -5.37981e-02   3.41989e-04 DIIS
   @RHF iter   4:  -572.66207131724605   -5.32209e-03   1.38110e-04 DIIS
   @RHF iter   5:  -572.66288179999663   -8.10483e-04   1.90928e-05 DIIS
   @RHF iter   6:  -572.66290800604156   -2.62060e-05   8.21889e-06 DIIS
   @RHF iter   7:  -572.66291226601300   -4.25997e-06   2.70209e-06 DIIS
   @RHF iter   8:  -572.66291305427990   -7.88267e-07   1.15279e-06 DIIS
   @RHF iter   9:  -572.66291322936570   -1.75086e-07   5.03747e-07 DIIS
   @RHF iter  10:  -572.66291326438420   -3.50185e-08   1.63202e-07 DIIS
   @RHF iter  11:  -572.66291326887756   -4.49336e-09   6.38300e-08 DIIS
   @RHF iter  12:  -572.66291326953899   -6.61430e-10   3.10673e-08 DIIS
   @RHF iter  13:  -572.66291326967450   -1.35515e-10   9.85234e-09 DIIS
   @RHF iter  14:  -572.66291326968962   -1.51203e-11   4.32015e-09 DIIS
   @RHF iter  15:  -572.66291326969133   -1.70530e-12   1.73102e-09 DIIS
   @RHF iter  16:  -572.66291326969008    1.25056e-12   7.30388e-10 DIIS
   @RHF iter  17:  -572.66291326969053   -4.54747e-13   3.21339e-10 DIIS
   @RHF iter  18:  -572.66291326969531   -4.77485e-12   1.00732e-10 DIIS
   @RHF iter  19:  -572.66291326969269    2.61480e-12   4.72355e-11 DIIS
  Energy and wave function converged.

  ==> Post-Iterations <==

    Orbital Energies [Eh]
    ---------------------

    Doubly Occupied:

       1A    -15.617716     2A    -15.525728     3A    -11.289699
       4A    -11.243768     5A    -11.238392     6A    -11.235901
       7A    -11.233583     8A    -11.233444     9A    -11.231105
      10A    -11.228645    11A    -11.227706    12A    -11.225454
      13A    -11.212987    14A    -11.208295    15A     -1.331382
      16A     -1.145288    17A     -1.141277    18A     -1.037540
      19A     -1.034902    20A     -1.003633    21A     -0.974269
      22A     -0.925406    23A     -0.848827    24A     -0.818212
      25A     -0.812863    26A     -0.789130    27A     -0.753688
      28A     -0.725103    29A     -0.683276    30A     -0.628746
      31A     -0.622988    32A     -0.612339    33A     -0.597973
      34A     -0.592262    35A     -0.577429    36A     -0.576747
      37A     -0.568717    38A     -0.557216    39A     -0.552550
      40A     -0.532123    41A     -0.496847    42A     -0.487401
      43A     -0.480460    44A     -0.478045    45A     -0.477554
      46A     -0.465405    47A     -0.405818    48A     -0.371048
      49A     -0.325300    50A     -0.319493    51A     -0.295291

    Virtual:

      52A      0.134095    53A      0.144085    54A      0.170631
      55A      0.179327    56A      0.192175    57A      0.199093
      58A      0.211228    59A      0.218918    60A      0.227336
      61A      0.233725    62A      0.245372    63A      0.255126
      64A      0.257268    65A      0.265115    66A      0.274255
      67A      0.283619    68A      0.291368    69A      0.299483
      70A      0.301819    71A      0.342472    72A      0.366955
      73A      0.379731    74A      0.390321    75A      0.395424
      76A      0.404517    77A      0.442076    78A      0.451300
      79A      0.459284    80A      0.472544    81A      0.486624
      82A      0.493397    83A      0.505552    84A      0.569427
      85A      0.583214    86A      0.592658    87A      0.611963
      88A      0.614001    89A      0.631704    90A      0.639237
      91A      0.658524    92A      0.671355    93A      0.677880
      94A      0.699942    95A      0.707357    96A      0.710668
      97A      0.724845    98A      0.731996    99A      0.743360
     100A      0.749368   101A      0.754922   102A      0.758752
     103A      0.765988   104A      0.777050   105A      0.791342
     106A      0.801463   107A      0.827610   108A      0.837188
     109A      0.844694   110A      0.860000   111A      0.867524
     112A      0.872665   113A      0.881379   114A      0.891383
     115A      0.896114   116A      0.901487   117A      0.907670
     118A      0.912723   119A      0.914584   120A      0.926524
     121A      0.931839   122A      0.935302   123A      0.948238
     124A      0.950664   125A      0.956129   126A      0.970186
     127A      0.976088   128A      0.987245   129A      0.990999
     130A      0.996447   131A      1.013918   132A      1.043528
     133A      1.050425   134A      1.065826   135A      1.093222
     136A      1.105876   137A      1.113515   138A      1.118296
     139A      1.134064   140A      1.140478   141A      1.155958
     142A      1.171917   143A      1.182662   144A      1.206470
     145A      1.218394   146A      1.231272   147A      1.238529
     148A      1.256725   149A      1.267521   150A      1.270433
     151A      1.282984   152A      1.302055   153A      1.306225
     154A      1.308466   155A      1.321326   156A      1.328241
     157A      1.344947   158A      1.357336   159A      1.407417
     160A      1.434515   161A      1.440927   162A      1.454017
     163A      1.469406   164A      1.499802   165A      1.524406
     166A      1.530623   167A      1.545034   168A      1.560579
     169A      1.572540   170A      1.606448   171A      1.616220
     172A      1.680955   173A      1.689755   174A      1.693222
     175A      1.699342   176A      1.711583   177A      1.748552
     178A      1.755491   179A      1.762551   180A      1.769521
     181A      1.776544   182A      1.799555   183A      1.821276
     184A      1.840598   185A      1.860047   186A      1.865320
     187A      1.883150   188A      1.889001   189A      1.897212
     190A      1.906657   191A      1.907477   192A      1.920645
     193A      1.926273   194A      1.935650   195A      1.941766
     196A      1.950798   197A      1.953770   198A      1.962272
     199A      1.969078   200A      1.970177   201A      1.987784
     202A      1.992484   203A      1.997850   204A      2.011213
     205A      2.022688   206A      2.030989   207A      2.038953
     208A      2.048910   209A      2.056487   210A      2.067188
     211A      2.089493   212A      2.116597   213A      2.118925
     214A      2.132641   215A      2.142731   216A      2.149814
     217A      2.158958   218A      2.162741   219A      2.174946
     220A      2.182229   221A      2.202783   222A      2.228607
     223A      2.252002   224A      2.256395   225A      2.268063
     226A      2.281061   227A      2.289585   228A      2.306151
     229A      2.321744   230A      2.328649   231A      2.354011
     232A      2.372638   233A      2.410211   234A      2.439803
     235A      2.450076   236A      2.455542   237A      2.484314
     238A      2.501460   239A      2.511122   240A      2.524977
     241A      2.538680   242A      2.567974   243A      2.598356
     244A      2.617477   245A      2.634843   246A      2.685580
     247A      2.721452   248A      2.746687   249A      2.765119
     250A      2.774401   251A      2.778943   252A      2.786114
     253A      2.794408   254A      2.806513   255A      2.812175
     256A      2.839189   257A      2.847850   258A      2.866928
     259A      2.879266   260A      2.889079   261A      2.915345
     262A      2.942595   263A      2.960403   264A      2.975394
     265A      3.003632   266A      3.028115   267A      3.049556
     268A      3.084114   269A      3.152479   270A      3.169462
     271A      3.185553   272A      3.254635   273A      3.287692
     274A      3.465857   275A      3.789264   276A      3.938034

    Final Occupation by Irrep:
              A
    DOCC [    51 ]

  @RHF Final Energy:  -572.66291326969269

   => Energetics <=

    Nuclear Repulsion Energy =            846.0987766236452217
    One-Electron Energy =               -2455.5254344756140199
    Two-Electron Energy =                1036.7637445822761038
    Total Energy =                       -572.6629132696925808

Computation Completed

Properties will be evaluated at   0.000000,   0.000000,   0.000000 [a0]

Properties computed using the SCF density matrix

  Nuclear Dipole Moment: [e a0]
     X:    -5.7072      Y:     2.7554      Z:    -7.1493

  Electronic Dipole Moment: [e a0]
     X:     5.5871      Y:    -3.2899      Z:     8.2495

  Dipole Moment: [e a0]
     X:    -0.1201      Y:    -0.5345      Z:     1.1002     Total:     1.2290

  Dipole Moment: [D]
     X:    -0.3053      Y:    -1.3585      Z:     2.7963     Total:     3.1238

*** tstop() called on ds3 at Tue Apr 28 03:36:38 2020
Module time:
	user time   =     356.24 seconds =       5.94 minutes
	system time =     120.90 seconds =       2.02 minutes
	total time  =        549 seconds =       9.15 minutes
Total time:
	user time   =     356.24 seconds =       5.94 minutes
	system time =     120.90 seconds =       2.02 minutes
	total time  =        549 seconds =       9.15 minutes
                                     G D M A

                                 by Anthony Stone

                           version 2.2.06, 22 June 2011

               Distributed Multipoles from Gaussian wavefunctions

Starting at 3:36:38 on 28 Apr 2020

Using SCF density matrix from file ./SSI/SSI-119PHE-124HIE-1-dimer.test.10548.fchk

                         Distributed Multipole Analysis

Standard DMA

Positions and radii in angstrom
Multipole moments in atomic units, ea_0^k for rank k

C          x = -1.718916  y =  3.088691  z = -1.599633 angstrom
           Maximum rank =  0   Radius =  0.650 angstrom
                   Q00  =  -0.200289

C          x = -2.240916  y =  1.701691  z =  0.436367 angstrom
           Maximum rank =  0   Radius =  0.650 angstrom
                   Q00  =  -0.017973

C          x = -1.293916  y =  2.316691  z = -0.386633 angstrom
           Maximum rank =  0   Radius =  0.650 angstrom
                   Q00  =  -0.094971

C          x = -1.848916  y =  1.056691  z =  1.619367 angstrom
           Maximum rank =  0   Radius =  0.650 angstrom
                   Q00  =  -0.085463

C          x = -0.485916  y =  1.023691  z =  1.983367 angstrom
           Maximum rank =  0   Radius =  0.650 angstrom
                   Q00  =  -0.078855

C          x =  0.071084  y =  2.268691  z = -0.034633 angstrom
           Maximum rank =  0   Radius =  0.650 angstrom
                   Q00  =  -0.065957

C          x =  0.471084  y =  1.628691  z =  1.147367 angstrom
           Maximum rank =  0   Radius =  0.650 angstrom
                   Q00  =  -0.065650

H          x = -3.287916  y =  1.742691  z =  0.176367 angstrom
           Maximum rank =  0   Radius =  0.325 angstrom
                   Q00  =   0.058213

H          x = -2.586916  y =  0.606691  z =  2.265367 angstrom
           Maximum rank =  0   Radius =  0.325 angstrom
                   Q00  =   0.064143

H          x = -2.805916  y =  3.073691  z = -1.699633 angstrom
           Maximum rank =  0   Radius =  0.325 angstrom
                   Q00  =   0.096096

H          x = -1.294916  y =  2.595691  z = -2.468633 angstrom
           Maximum rank =  0   Radius =  0.325 angstrom
                   Q00  =   0.100068

H          x = -0.176916  y =  0.529691  z =  2.894367 angstrom
           Maximum rank =  0   Radius =  0.325 angstrom
                   Q00  =   0.059569

H          x =  0.820084  y =  2.718691  z = -0.668633 angstrom
           Maximum rank =  0   Radius =  0.325 angstrom
                   Q00  =   0.060915

H          x =  1.518084  y =  1.590691  z =  1.411367 angstrom
           Maximum rank =  0   Radius =  0.325 angstrom
                   Q00  =   0.070211

H          x = -1.366236  y =  4.130161  z = -1.568684 angstrom
           Maximum rank =  0   Radius =  0.325 angstrom
                   Q00  =   0.101850

C          x = -0.353916  y = -1.063309  z = -1.386633 angstrom
           Maximum rank =  0   Radius =  0.650 angstrom
                   Q00  =  -0.028567

C          x = -0.141916  y = -1.530309  z = -2.857633 angstrom
           Maximum rank =  0   Radius =  0.650 angstrom
                   Q00  =  -0.245224

C          x =  0.651084  y = -1.618309  z = -0.394633 angstrom
           Maximum rank =  0   Radius =  0.650 angstrom
                   Q00  =   0.224327

C          x =  0.448084  y = -2.350309  z =  0.736367 angstrom
           Maximum rank =  0   Radius =  0.650 angstrom
                   Q00  =  -0.005619

C          x =  2.618084  y = -2.046309  z =  0.502367 angstrom
           Maximum rank =  0   Radius =  0.650 angstrom
                   Q00  =   0.454761

N          x =  2.021084  y = -1.440309  z = -0.529633 angstrom
           Maximum rank =  0   Radius =  0.650 angstrom
                   Q00  =  -0.779860

N          x =  1.694084  y = -2.606309  z =  1.279367 angstrom
           Maximum rank =  0   Radius =  0.650 angstrom
                   Q00  =  -0.477997

H          x = -0.281916  y =  0.017691  z = -1.356633 angstrom
           Maximum rank =  0   Radius =  0.325 angstrom
                   Q00  =   0.097328

H          x = -1.334916  y = -1.350309  z = -1.028633 angstrom
           Maximum rank =  0   Radius =  0.325 angstrom
                   Q00  =   0.062502

H          x =  0.879084  y = -1.314309  z = -3.170633 angstrom
           Maximum rank =  0   Radius =  0.325 angstrom
                   Q00  =   0.103338

H          x = -0.506916  y = -2.644309  z =  1.142367 angstrom
           Maximum rank =  0   Radius =  0.325 angstrom
                   Q00  =   0.102751

H          x =  3.676084  y = -2.056309  z =  0.693367 angstrom
           Maximum rank =  0   Radius =  0.325 angstrom
                   Q00  =   0.119866

H          x =  1.862084  y = -3.092309  z =  2.161367 angstrom
           Maximum rank =  0   Radius =  0.325 angstrom
                   Q00  =   0.219909

H          x = -0.866416  y = -1.007309  z = -3.499165 angstrom
           Maximum rank =  0   Radius =  0.325 angstrom
                   Q00  =   0.076323

H          x = -0.322806  y = -2.614179  z = -2.907758 angstrom
           Maximum rank =  0   Radius =  0.325 angstrom
                   Q00  =   0.074257

Total multipoles referred to origin at
           x =   0.000000,  y =    0.000000,  z =    0.000000 angstrom
                   Q00  =  -0.000000

Finished at 3:36:38 on 28 Apr 2020

  DMA results are available in the Python driver through the
	  variable('DMA DISTRIBUTED MULTIPOLES')
  and
	  variable('DMA TOTAL MULTIPOLES')
  commands.

    Psi4 stopped on: Tuesday, 28 April 2020 03:36AM
    Psi4 wall time for execution: 0:09:09.26

*** Psi4 exiting successfully. Buy a developer a beer!
