                               Psi4 1.3.2 release

  ==> Input File <==

--------------------------------------------------------------------------
import numpy as np
set {scf_type pk
basis cc-pvdz
d_convergence 10
gdma_switch   0
gdma_limit    0
gdma_origin   [ 0.0,  0.0,  0.0 ]
}
molecule test {
    units Angstrom
    0 1
    --
    0 1
    C               -1.654874448508903     1.651891004733238     2.161419561213231
    C                0.531125551491097    -0.307108995266762    -0.261580438786769
    C               -0.581874448508903     0.330891004733238     0.328419561213231
    C                1.775125551491097    -0.262108995266762     0.362419561213231
    C               -0.451874448508903     0.995891004733238     1.526419561213231
    C                1.909125551491097     0.394891004733238     1.570419561213231
    C                0.792125551491097     1.025891004733238     2.154419561213232
    H                0.416125551491097    -0.867108995266762    -1.171580438786768
    H               -1.548874448508903     0.278891004733238    -0.149580438786769
    H                2.625125551491097    -0.764108995266762    -0.081580438786769
    H                2.855125551491096     0.374891004733238     2.080419561213231
    H               -2.179874448508903     2.229891004733239     1.400419561213232
    H               -1.311874448508903     2.352891004733238     2.922419561213231
    H                0.905125551491097     1.530891004733238     3.102419561213231
    H               -2.354324448508903     0.933049004733238     2.613119561213232
    C               -0.216874448508903    -1.580108995266762    -3.768580438786768
    C               -1.598874448508903    -1.891108995266762    -3.213580438786769
    H               -0.288874448508903    -1.300108995266761    -4.819580438786768
    H                0.239125551491097    -0.742108995266762    -3.248580438786768
    H                0.439125551491097    -2.444108995266761    -3.664580438786768
    H               -1.485874448508903    -2.406108995266762    -2.259580438786768
    H               -2.176374448508903    -2.512425295266762    -3.913910438786768
    H               -2.124364448508903    -0.939202995266762    -3.047030438786769

}
e, wfn = energy('scf', return_wfn=True)
gdma(wfn)
dmavals = variable('DMA DISTRIBUTED MULTIPOLES')
charges = np.array(dmavals)
print(charges)
np.save('SSI-061PHE-086VAL-2-dimer.npy', np.array(charges))--------------------------------------------------------------------------

*** tstart() called on ds3
*** at Tue Apr 28 09:39:22 2020

   => Loading Basis Set <=

    Name: CC-PVDZ
    Role: ORBITAL
    Keyword: BASIS
    atoms 1-7, 16-17  entry C          line   138 file /theoryfs2/ds/metcalf/miniconda2/envs/tf2gpu/share/psi4/basis/cc-pvdz.gbs
    atoms 8-15, 18-23 entry H          line    22 file /theoryfs2/ds/metcalf/miniconda2/envs/tf2gpu/share/psi4/basis/cc-pvdz.gbs

         ---------------------------------------------------------
                                   SCF
               by Justin Turney, Rob Parrish, Andy Simmonett
                          and Daniel G. A. Smith
                              RHF Reference
                        1 Threads,    500 MiB Core
         ---------------------------------------------------------

  ==> Geometry <==

    Molecular point group: c1
    Full point group: C1

    Geometry (in Angstrom), charge = 0, multiplicity = 1:

       Center              X                  Y                   Z               Mass
    ------------   -----------------  -----------------  -----------------  -----------------
         C           -1.654874448509     1.651891004733     2.161419561213    12.000000000000
         C            0.531125551491    -0.307108995267    -0.261580438787    12.000000000000
         C           -0.581874448509     0.330891004733     0.328419561213    12.000000000000
         C            1.775125551491    -0.262108995267     0.362419561213    12.000000000000
         C           -0.451874448509     0.995891004733     1.526419561213    12.000000000000
         C            1.909125551491     0.394891004733     1.570419561213    12.000000000000
         C            0.792125551491     1.025891004733     2.154419561213    12.000000000000
         H            0.416125551491    -0.867108995267    -1.171580438787     1.007825032230
         H           -1.548874448509     0.278891004733    -0.149580438787     1.007825032230
         H            2.625125551491    -0.764108995267    -0.081580438787     1.007825032230
         H            2.855125551491     0.374891004733     2.080419561213     1.007825032230
         H           -2.179874448509     2.229891004733     1.400419561213     1.007825032230
         H           -1.311874448509     2.352891004733     2.922419561213     1.007825032230
         H            0.905125551491     1.530891004733     3.102419561213     1.007825032230
         H           -2.354324448509     0.933049004733     2.613119561213     1.007825032230
         C           -0.216874448509    -1.580108995267    -3.768580438787    12.000000000000
         C           -1.598874448509    -1.891108995267    -3.213580438787    12.000000000000
         H           -0.288874448509    -1.300108995267    -4.819580438787     1.007825032230
         H            0.239125551491    -0.742108995267    -3.248580438787     1.007825032230
         H            0.439125551491    -2.444108995267    -3.664580438787     1.007825032230
         H           -1.485874448509    -2.406108995267    -2.259580438787     1.007825032230
         H           -2.176374448509    -2.512425295267    -3.913910438787     1.007825032230
         H           -2.124364448509    -0.939202995267    -3.047030438787     1.007825032230

  Running in c1 symmetry.

  Rotational constants: A =      0.08113  B =      0.02224  C =      0.01783 [cm^-1]
  Rotational constants: A =   2432.32833  B =    666.87225  C =    534.54212 [MHz]
  Nuclear repulsion =  401.616630850100137

  Charge       = 0
  Multiplicity = 1
  Electrons    = 68
  Nalpha       = 34
  Nbeta        = 34

  ==> Algorithm <==

  SCF Algorithm Type is PK.
  DIIS enabled.
  MOM disabled.
  Fractional occupation disabled.
  Guess Type is SAD.
  Energy threshold   = 1.00e-06
  Density threshold  = 1.00e-10
  Integral threshold = 0.00e+00

  ==> Primary Basis <==

  Basis Set: CC-PVDZ
    Blend: CC-PVDZ
    Number of shells: 96
    Number of basis function: 196
    Number of Cartesian functions: 205
    Spherical Harmonics?: true
    Max angular momentum: 2

  ==> Pre-Iterations <==

   -------------------------------------------------------
    Irrep   Nso     Nmo     Nalpha   Nbeta   Ndocc  Nsocc
   -------------------------------------------------------
     A        196     196       0       0       0       0
   -------------------------------------------------------
    Total     196     196      34      34      34       0
   -------------------------------------------------------

  ==> Integral Setup <==

  Using integral reordering PK algorithm.
  Sizing the integral batches needed.
  Building batch lookup table.
   Calculation information:
      Number of atoms:                  23
      Number of AO shells:              96
      Number of primitives:            268
      Number of atomic orbitals:       205
      Number of basis functions:       196

      Integral cutoff                 1.00e-12
      Number of threads:                 1

	Batch   1 pq = [       0,    9405] index = [             0,44231715] size =     44231715
	Batch   2 pq = [    9405,   13301] index = [      44231715,88464951] size =     44233236
	Batch   3 pq = [   13301,   16290] index = [      88464951,132690195] size =     44225244
	Batch   4 pq = [   16290,   18810] index = [     132690195,176917455] size =     44227260
	Batch   5 pq = [   18810,   19306] index = [     176917455,186370471] size =      9453016
  Task number: 17
  Buffer size: 11059200
  Buffer per thread: 2
  We computed 8887141 shell quartets total.
  Whereas there are 10841496 unique shell quartets.

  ==> DiskJK: Disk-Based J/K Matrices <==

    J tasked:                  Yes
    K tasked:                  Yes
    wK tasked:                  No
    Memory [MiB]:              375
    Schwarz Cutoff:          1E-12

    OpenMP threads:              1

  Minimum eigenvalue in the overlap matrix is 3.0283491907E-04.
  Using Symmetric Orthogonalization.

  SCF Guess: Superposition of Atomic Densities via on-the-fly atomic UHF.

  ==> Iterations <==

                        Total Energy        Delta E     RMS |[F,P]|

   @RHF iter SAD:  -347.88180837241794   -3.47882e+02   0.00000e+00
   @RHF iter   1:  -348.76589565114398   -8.84087e-01   2.88466e-03 DIIS
   @RHF iter   2:  -348.95784329868980   -1.91948e-01   1.18929e-03 DIIS
   @RHF iter   3:  -348.98752960208640   -2.96863e-02   2.59072e-04 DIIS
   @RHF iter   4:  -348.98999946204111   -2.46986e-03   5.62326e-05 DIIS
   @RHF iter   5:  -348.99007911305551   -7.96510e-05   1.94038e-05 DIIS
   @RHF iter   6:  -348.99008822853870   -9.11548e-06   4.87479e-06 DIIS
   @RHF iter   7:  -348.99008891222923   -6.83691e-07   1.18791e-06 DIIS
   @RHF iter   8:  -348.99008895816490   -4.59357e-08   2.86635e-07 DIIS
   @RHF iter   9:  -348.99008896259431   -4.42941e-09   1.09566e-07 DIIS
   @RHF iter  10:  -348.99008896344674   -8.52424e-10   5.29084e-08 DIIS
   @RHF iter  11:  -348.99008896373562   -2.88878e-10   2.04516e-08 DIIS
   @RHF iter  12:  -348.99008896378893   -5.33191e-11   8.14279e-09 DIIS
   @RHF iter  13:  -348.99008896379542   -6.48015e-12   3.51143e-09 DIIS
   @RHF iter  14:  -348.99008896379632   -9.09495e-13   6.62392e-10 DIIS
   @RHF iter  15:  -348.99008896379655   -2.27374e-13   2.36515e-10 DIIS
   @RHF iter  16:  -348.99008896379740   -8.52651e-13   1.37715e-10 DIIS
   @RHF iter  17:  -348.99008896379746   -5.68434e-14   5.85798e-11 DIIS
  Energy and wave function converged.

  ==> Post-Iterations <==

    Orbital Energies [Eh]
    ---------------------

    Doubly Occupied:

       1A    -11.238249     2A    -11.235334     3A    -11.234949
       4A    -11.231750     5A    -11.229960     6A    -11.229721
       7A    -11.229243     8A    -11.221535     9A    -11.217574
      10A     -1.151193    11A     -1.045798    12A     -1.023314
      13A     -1.005651    14A     -0.931224    15A     -0.839427
      16A     -0.828284    17A     -0.791816    18A     -0.690432
      19A     -0.633423    20A     -0.629391    21A     -0.603520
      22A     -0.601750    23A     -0.576775    24A     -0.576138
      25A     -0.563505    26A     -0.534552    27A     -0.505831
      28A     -0.491339    29A     -0.488233    30A     -0.485242
      31A     -0.481048    32A     -0.477847    33A     -0.327909
      34A     -0.324305

    Virtual:

      35A      0.132189    36A      0.143291    37A      0.170250
      38A      0.194516    39A      0.204346    40A      0.221938
      41A      0.231464    42A      0.244154    43A      0.249254
      44A      0.260554    45A      0.266048    46A      0.280621
      47A      0.289834    48A      0.296525    49A      0.302152
      50A      0.341178    51A      0.370886    52A      0.376843
      53A      0.397999    54A      0.453416    55A      0.458878
      56A      0.473246    57A      0.495855    58A      0.563729
      59A      0.591487    60A      0.597079    61A      0.604014
      62A      0.632393    63A      0.646777    64A      0.679244
      65A      0.685400    66A      0.695585    67A      0.707721
      68A      0.715410    69A      0.736252    70A      0.742103
      71A      0.747399    72A      0.752397    73A      0.758023
      74A      0.777291    75A      0.781386    76A      0.789213
      77A      0.827386    78A      0.846218    79A      0.850117
      80A      0.862176    81A      0.874488    82A      0.882434
      83A      0.890484    84A      0.900246    85A      0.903998
      86A      0.910761    87A      0.917295    88A      0.925485
      89A      0.934906    90A      0.938529    91A      0.956110
      92A      0.959945    93A      0.980570    94A      0.998968
      95A      1.054026    96A      1.075960    97A      1.113270
      98A      1.125486    99A      1.138786   100A      1.148688
     101A      1.154930   102A      1.175174   103A      1.202456
     104A      1.222054   105A      1.235527   106A      1.250351
     107A      1.258625   108A      1.289282   109A      1.300950
     110A      1.319470   111A      1.326810   112A      1.354797
     113A      1.416669   114A      1.480817   115A      1.486793
     116A      1.505369   117A      1.522087   118A      1.554702
     119A      1.598832   120A      1.616781   121A      1.673772
     122A      1.683091   123A      1.694171   124A      1.704871
     125A      1.732003   126A      1.743187   127A      1.761534
     128A      1.792167   129A      1.809061   130A      1.857188
     131A      1.867651   132A      1.874624   133A      1.890101
     134A      1.892668   135A      1.899382   136A      1.910414
     137A      1.917629   138A      1.920215   139A      1.931743
     140A      1.941640   141A      1.946422   142A      1.949363
     143A      1.962869   144A      1.965683   145A      1.973348
     146A      1.987508   147A      1.997244   148A      2.004301
     149A      2.043098   150A      2.057496   151A      2.079122
     152A      2.104065   153A      2.126128   154A      2.134791
     155A      2.138802   156A      2.155937   157A      2.178862
     158A      2.190374   159A      2.204550   160A      2.250876
     161A      2.276104   162A      2.288928   163A      2.291210
     164A      2.308880   165A      2.320638   166A      2.337472
     167A      2.341955   168A      2.431297   169A      2.444291
     170A      2.461919   171A      2.476706   172A      2.513426
     173A      2.535222   174A      2.575813   175A      2.604972
     176A      2.630947   177A      2.743737   178A      2.764346
     179A      2.765820   180A      2.774462   181A      2.786750
     182A      2.788370   183A      2.827077   184A      2.844843
     185A      2.848569   186A      2.857102   187A      2.874682
     188A      2.951750   189A      2.955558   190A      2.985914
     191A      3.007812   192A      3.035218   193A      3.156071
     194A      3.199406   195A      3.305352   196A      3.962992

    Final Occupation by Irrep:
              A
    DOCC [    34 ]

  @RHF Final Energy:  -348.99008896379746

   => Energetics <=

    Nuclear Repulsion Energy =            401.6166308501001367
    One-Electron Energy =               -1265.8609163982266637
    Two-Electron Energy =                 515.2541965843290654
    Total Energy =                       -348.9900889637974615

Computation Completed

Properties will be evaluated at   0.000000,   0.000000,   0.000000 [a0]

Properties computed using the SCF density matrix

  Nuclear Dipole Moment: [e a0]
     X:    -5.6161      Y:    -4.0075      Z:    -9.5971

  Electronic Dipole Moment: [e a0]
     X:     5.5114      Y:     4.0215      Z:     9.6419

  Dipole Moment: [e a0]
     X:    -0.1047      Y:     0.0140      Z:     0.0448     Total:     0.1147

  Dipole Moment: [D]
     X:    -0.2660      Y:     0.0356      Z:     0.1138     Total:     0.2915

*** tstop() called on ds3 at Tue Apr 28 09:41:12 2020
Module time:
	user time   =      62.37 seconds =       1.04 minutes
	system time =      29.66 seconds =       0.49 minutes
	total time  =        110 seconds =       1.83 minutes
Total time:
	user time   =      62.37 seconds =       1.04 minutes
	system time =      29.66 seconds =       0.49 minutes
	total time  =        110 seconds =       1.83 minutes
                                     G D M A

                                 by Anthony Stone

                           version 2.2.06, 22 June 2011

               Distributed Multipoles from Gaussian wavefunctions

Starting at 9:41:12 on 28 Apr 2020

Using SCF density matrix from file ./SSI/SSI-061PHE-086VAL-2-dimer.test.10997.fchk

                         Distributed Multipole Analysis

Standard DMA

Positions and radii in angstrom
Multipole moments in atomic units, ea_0^k for rank k

C          x = -1.654874  y =  1.651891  z =  2.161420 angstrom
           Maximum rank =  0   Radius =  0.650 angstrom
                   Q00  =  -0.208821

C          x =  0.531126  y = -0.307109  z = -0.261580 angstrom
           Maximum rank =  0   Radius =  0.650 angstrom
                   Q00  =  -0.058658

C          x = -0.581874  y =  0.330891  z =  0.328420 angstrom
           Maximum rank =  0   Radius =  0.650 angstrom
                   Q00  =  -0.093663

C          x =  1.775126  y = -0.262109  z =  0.362420 angstrom
           Maximum rank =  0   Radius =  0.650 angstrom
                   Q00  =  -0.077014

C          x = -0.451874  y =  0.995891  z =  1.526420 angstrom
           Maximum rank =  0   Radius =  0.650 angstrom
                   Q00  =  -0.097358

C          x =  1.909126  y =  0.394891  z =  1.570420 angstrom
           Maximum rank =  0   Radius =  0.650 angstrom
                   Q00  =  -0.078538

C          x =  0.792126  y =  1.025891  z =  2.154420 angstrom
           Maximum rank =  0   Radius =  0.650 angstrom
                   Q00  =   0.006623

H          x =  0.416126  y = -0.867109  z = -1.171580 angstrom
           Maximum rank =  0   Radius =  0.325 angstrom
                   Q00  =   0.068433

H          x = -1.548874  y =  0.278891  z = -0.149580 angstrom
           Maximum rank =  0   Radius =  0.325 angstrom
                   Q00  =   0.053882

H          x =  2.625126  y = -0.764109  z = -0.081580 angstrom
           Maximum rank =  0   Radius =  0.325 angstrom
                   Q00  =   0.058748

H          x =  2.855126  y =  0.374891  z =  2.080420 angstrom
           Maximum rank =  0   Radius =  0.325 angstrom
                   Q00  =   0.065449

H          x = -2.179874  y =  2.229891  z =  1.400420 angstrom
           Maximum rank =  0   Radius =  0.325 angstrom
                   Q00  =   0.099341

H          x = -1.311874  y =  2.352891  z =  2.922420 angstrom
           Maximum rank =  0   Radius =  0.325 angstrom
                   Q00  =   0.097525

H          x =  0.905126  y =  1.530891  z =  3.102420 angstrom
           Maximum rank =  0   Radius =  0.325 angstrom
                   Q00  =   0.059404

H          x = -2.354324  y =  0.933049  z =  2.613120 angstrom
           Maximum rank =  0   Radius =  0.325 angstrom
                   Q00  =   0.105037

C          x = -0.216874  y = -1.580109  z = -3.768580 angstrom
           Maximum rank =  0   Radius =  0.650 angstrom
                   Q00  =  -0.242996

C          x = -1.598874  y = -1.891109  z = -3.213580 angstrom
           Maximum rank =  0   Radius =  0.650 angstrom
                   Q00  =  -0.231734

H          x = -0.288874  y = -1.300109  z = -4.819580 angstrom
           Maximum rank =  0   Radius =  0.325 angstrom
                   Q00  =   0.080778

H          x =  0.239126  y = -0.742109  z = -3.248580 angstrom
           Maximum rank =  0   Radius =  0.325 angstrom
                   Q00  =   0.078342

H          x =  0.439126  y = -2.444109  z = -3.664580 angstrom
           Maximum rank =  0   Radius =  0.325 angstrom
                   Q00  =   0.076892

H          x = -1.485874  y = -2.406109  z = -2.259580 angstrom
           Maximum rank =  0   Radius =  0.325 angstrom
                   Q00  =   0.078780

H          x = -2.176374  y = -2.512425  z = -3.913910 angstrom
           Maximum rank =  0   Radius =  0.325 angstrom
                   Q00  =   0.083660

H          x = -2.124364  y = -0.939203  z = -3.047030 angstrom
           Maximum rank =  0   Radius =  0.325 angstrom
                   Q00  =   0.075890

Total multipoles referred to origin at
           x =   0.000000,  y =    0.000000,  z =    0.000000 angstrom
                   Q00  =  -0.000000

Finished at 9:41:12 on 28 Apr 2020

  DMA results are available in the Python driver through the
	  variable('DMA DISTRIBUTED MULTIPOLES')
  and
	  variable('DMA TOTAL MULTIPOLES')
  commands.

    Psi4 stopped on: Tuesday, 28 April 2020 09:41AM
    Psi4 wall time for execution: 0:01:50.05

*** Psi4 exiting successfully. Buy a developer a beer!
