                               Psi4 1.3.2 release

  ==> Input File <==

--------------------------------------------------------------------------
import numpy as np
set {scf_type pk
basis cc-pvdz
d_convergence 10
gdma_switch   0
gdma_limit    0
gdma_origin   [ 0.0,  0.0,  0.0 ]
}
molecule test {
    units Angstrom
    -1 1
    --
    -1 1
    C                1.966972315876547    -2.965589394188927     0.064050946775391
    C                2.594972315876547    -1.781589394188927     0.788050946775391
    O                3.415972315876547    -1.077589394188927     0.160050946775391
    O                2.292972315876547    -1.580589394188927     1.984050946775391
    H                1.438972315876547    -2.622589394188927    -0.824949053224609
    H                1.234972315876547    -3.462589394188927     0.704050946775391
    H                2.740575315876547    -3.689352394188927    -0.232099053224609
    C                1.053972315876547     1.950410605811073     0.898050946775391
    C               -0.181027684123453     0.431410605811073    -0.738949053224609
    C               -0.204027684123453     1.441410605811073     0.230050946775391
    C               -1.337027684123453     0.009410605811073    -1.368949053224609
    C               -2.548027684123453     0.598410605811073    -1.031949053224609
    C               -1.432027684123453     1.978410605811073     0.598050946775391
    C               -2.597027684123453     1.560410605811073    -0.035949053224609
    O               -3.721027684123453     0.239410605811073    -1.636949053224609
    H                0.752972315876547    -0.044589394188927    -0.992949053224609
    H               -1.296027684123453    -0.773589394188927    -2.109949053224609
    H                1.522972315876547     1.124410605811073     1.433050946775391
    H                0.770972315876547     2.695410605811073     1.643050946775391
    H               -1.490027684123453     2.713410605811073     1.387050946775391
    H               -3.512027684123453    -0.284589394188927    -2.431949053224610
    H               -3.552027684123453     1.951410605811073     0.272050946775391
    H                1.787977315876547     2.408180605811073     0.218580946775391

}
e, wfn = energy('scf', return_wfn=True)
gdma(wfn)
dmavals = variable('DMA DISTRIBUTED MULTIPOLES')
charges = np.array(dmavals)
print(charges)
np.save('SSI-083GLU-094TYR-1-dimer.npy', np.array(charges))--------------------------------------------------------------------------

*** tstart() called on ds3
*** at Tue Apr 28 04:57:22 2020

   => Loading Basis Set <=

    Name: CC-PVDZ
    Role: ORBITAL
    Keyword: BASIS
    atoms 1-2, 8-14  entry C          line   138 file /theoryfs2/ds/metcalf/miniconda2/envs/tf2gpu/share/psi4/basis/cc-pvdz.gbs
    atoms 3-4, 15    entry O          line   198 file /theoryfs2/ds/metcalf/miniconda2/envs/tf2gpu/share/psi4/basis/cc-pvdz.gbs
    atoms 5-7, 16-23 entry H          line    22 file /theoryfs2/ds/metcalf/miniconda2/envs/tf2gpu/share/psi4/basis/cc-pvdz.gbs

         ---------------------------------------------------------
                                   SCF
               by Justin Turney, Rob Parrish, Andy Simmonett
                          and Daniel G. A. Smith
                              RHF Reference
                        1 Threads,    500 MiB Core
         ---------------------------------------------------------

  ==> Geometry <==

    Molecular point group: c1
    Full point group: C1

    Geometry (in Angstrom), charge = -1, multiplicity = 1:

       Center              X                  Y                   Z               Mass
    ------------   -----------------  -----------------  -----------------  -----------------
         C            1.966972315877    -2.965589394189     0.064050946775    12.000000000000
         C            2.594972315877    -1.781589394189     0.788050946775    12.000000000000
         O            3.415972315877    -1.077589394189     0.160050946775    15.994914619570
         O            2.292972315877    -1.580589394189     1.984050946775    15.994914619570
         H            1.438972315877    -2.622589394189    -0.824949053225     1.007825032230
         H            1.234972315877    -3.462589394189     0.704050946775     1.007825032230
         H            2.740575315877    -3.689352394189    -0.232099053225     1.007825032230
         C            1.053972315877     1.950410605811     0.898050946775    12.000000000000
         C           -0.181027684123     0.431410605811    -0.738949053225    12.000000000000
         C           -0.204027684123     1.441410605811     0.230050946775    12.000000000000
         C           -1.337027684123     0.009410605811    -1.368949053225    12.000000000000
         C           -2.548027684123     0.598410605811    -1.031949053225    12.000000000000
         C           -1.432027684123     1.978410605811     0.598050946775    12.000000000000
         C           -2.597027684123     1.560410605811    -0.035949053225    12.000000000000
         O           -3.721027684123     0.239410605811    -1.636949053225    15.994914619570
         H            0.752972315877    -0.044589394189    -0.992949053225     1.007825032230
         H           -1.296027684123    -0.773589394189    -2.109949053225     1.007825032230
         H            1.522972315877     1.124410605811     1.433050946775     1.007825032230
         H            0.770972315877     2.695410605811     1.643050946775     1.007825032230
         H           -1.490027684123     2.713410605811     1.387050946775     1.007825032230
         H           -3.512027684123    -0.284589394189    -2.431949053225     1.007825032230
         H           -3.552027684123     1.951410605811     0.272050946775     1.007825032230
         H            1.787977315877     2.408180605811     0.218580946775     1.007825032230

  Running in c1 symmetry.

  Rotational constants: A =      0.04911  B =      0.01390  C =      0.01183 [cm^-1]
  Rotational constants: A =   1472.42802  B =    416.60408  C =    354.59741 [MHz]
  Nuclear repulsion =  640.124059487532691

  Charge       = -1
  Multiplicity = 1
  Electrons    = 90
  Nalpha       = 45
  Nbeta        = 45

  ==> Algorithm <==

  SCF Algorithm Type is PK.
  DIIS enabled.
  MOM disabled.
  Fractional occupation disabled.
  Guess Type is SAD.
  Energy threshold   = 1.00e-06
  Density threshold  = 1.00e-10
  Integral threshold = 0.00e+00

  ==> Primary Basis <==

  Basis Set: CC-PVDZ
    Blend: CC-PVDZ
    Number of shells: 105
    Number of basis function: 223
    Number of Cartesian functions: 235
    Spherical Harmonics?: true
    Max angular momentum: 2

  ==> Pre-Iterations <==

   -------------------------------------------------------
    Irrep   Nso     Nmo     Nalpha   Nbeta   Ndocc  Nsocc
   -------------------------------------------------------
     A        223     223       0       0       0       0
   -------------------------------------------------------
    Total     223     223      45      45      45       0
   -------------------------------------------------------

  ==> Integral Setup <==

  Using integral reordering PK algorithm.
  Sizing the integral batches needed.
  Building batch lookup table.
   Calculation information:
      Number of atoms:                  23
      Number of AO shells:             105
      Number of primitives:            319
      Number of atomic orbitals:       235
      Number of basis functions:       223

      Integral cutoff                 1.00e-12
      Number of threads:                 1

	Batch   1 pq = [       0,    9405] index = [             0,44231715] size =     44231715
	Batch   2 pq = [    9405,   13301] index = [      44231715,88464951] size =     44233236
	Batch   3 pq = [   13301,   16290] index = [      88464951,132690195] size =     44225244
	Batch   4 pq = [   16290,   18810] index = [     132690195,176917455] size =     44227260
	Batch   5 pq = [   18810,   21030] index = [     176917455,221140965] size =     44223510
	Batch   6 pq = [   21030,   23037] index = [     221140965,265363203] size =     44222238
	Batch   7 pq = [   23037,   24976] index = [     265363203,311912776] size =     46549573
  Task number: 29
  Buffer size: 11059200
  Buffer per thread: 2
  We computed 13810845 shell quartets total.
  Whereas there are 15487395 unique shell quartets.

  ==> DiskJK: Disk-Based J/K Matrices <==

    J tasked:                  Yes
    K tasked:                  Yes
    wK tasked:                  No
    Memory [MiB]:              375
    Schwarz Cutoff:          1E-12

    OpenMP threads:              1

  Minimum eigenvalue in the overlap matrix is 3.1251777770E-04.
  Using Symmetric Orthogonalization.

  SCF Guess: Superposition of Atomic Densities via on-the-fly atomic UHF.

  ==> Iterations <==

                        Total Energy        Delta E     RMS |[F,P]|

   @RHF iter SAD:  -570.20242632550935   -5.70202e+02   0.00000e+00
   @RHF iter   1:  -571.50808476290445   -1.30566e+00   3.71804e-03 DIIS
   @RHF iter   2:  -571.79343757589265   -2.85353e-01   1.98870e-03 DIIS
   @RHF iter   3:  -571.86795954648187   -7.45220e-02   3.44287e-04 DIIS
   @RHF iter   4:  -571.87189340925318   -3.93386e-03   1.30099e-04 DIIS
   @RHF iter   5:  -571.87245391210263   -5.60503e-04   2.09652e-05 DIIS
   @RHF iter   6:  -571.87247508588359   -2.11738e-05   9.04105e-06 DIIS
   @RHF iter   7:  -571.87247807504230   -2.98916e-06   2.72023e-06 DIIS
   @RHF iter   8:  -571.87247849464484   -4.19603e-07   9.26854e-07 DIIS
   @RHF iter   9:  -571.87247855555700   -6.09122e-08   3.59117e-07 DIIS
   @RHF iter  10:  -571.87247856890599   -1.33490e-08   1.66537e-07 DIIS
   @RHF iter  11:  -571.87247857261445   -3.70846e-09   7.52480e-08 DIIS
   @RHF iter  12:  -571.87247857333136   -7.16909e-10   3.49814e-08 DIIS
   @RHF iter  13:  -571.87247857347586   -1.44496e-10   1.05959e-08 DIIS
   @RHF iter  14:  -571.87247857349610   -2.02363e-11   3.99664e-09 DIIS
   @RHF iter  15:  -571.87247857348996    6.13909e-12   1.37579e-09 DIIS
   @RHF iter  16:  -571.87247857349178   -1.81899e-12   6.82235e-10 DIIS
   @RHF iter  17:  -571.87247857349450   -2.72848e-12   2.96943e-10 DIIS
   @RHF iter  18:  -571.87247857349041    4.09273e-12   1.20899e-10 DIIS
   @RHF iter  19:  -571.87247857349314   -2.72848e-12   5.15393e-11 DIIS
  Energy and wave function converged.

  ==> Post-Iterations <==

    Orbital Energies [Eh]
    ---------------------

    Doubly Occupied:

       1A    -20.496707     2A    -20.264997     3A    -20.262399
       4A    -11.198375     5A    -11.134537     6A    -11.132150
       7A    -11.129262     8A    -11.127930     9A    -11.126147
      10A    -11.120141    11A    -11.101532    12A    -11.054937
      13A     -1.308571    14A     -1.153871    15A     -1.048818
      16A     -1.040405    17A     -0.928824    18A     -0.917526
      19A     -0.812123    20A     -0.800459    21A     -0.742587
      22A     -0.697754    23A     -0.632112    24A     -0.567132
      25A     -0.538017    26A     -0.507158    27A     -0.504980
      28A     -0.493111    29A     -0.484663    30A     -0.467251
      31A     -0.446437    32A     -0.416882    33A     -0.411139
      34A     -0.410593    35A     -0.407118    36A     -0.390734
      37A     -0.377191    38A     -0.363714    39A     -0.345625
      40A     -0.308963    41A     -0.238738    42A     -0.199155
      43A     -0.187156    44A     -0.176158    45A     -0.165114

    Virtual:

      46A      0.234589    47A      0.258826    48A      0.263185
      49A      0.290702    50A      0.311770    51A      0.324269
      52A      0.358968    53A      0.362244    54A      0.395119
      55A      0.397828    56A      0.412764    57A      0.428699
      58A      0.440205    59A      0.476425    60A      0.488529
      61A      0.503042    62A      0.523598    63A      0.563788
      64A      0.571306    65A      0.595547    66A      0.602769
      67A      0.621349    68A      0.703716    69A      0.715140
      70A      0.740485    71A      0.752018    72A      0.756329
      73A      0.764214    74A      0.786213    75A      0.800989
      76A      0.810454    77A      0.820756    78A      0.828681
      79A      0.843895    80A      0.847578    81A      0.864017
      82A      0.867505    83A      0.881525    84A      0.893342
      85A      0.901197    86A      0.919195    87A      0.938808
      88A      0.956160    89A      0.970234    90A      0.987699
      91A      0.997367    92A      1.000769    93A      1.005794
      94A      1.019276    95A      1.023182    96A      1.030897
      97A      1.044672    98A      1.048909    99A      1.067513
     100A      1.068785   101A      1.095350   102A      1.112751
     103A      1.129075   104A      1.136293   105A      1.157708
     106A      1.174258   107A      1.220831   108A      1.226706
     109A      1.246140   110A      1.251319   111A      1.280466
     112A      1.315539   113A      1.324744   114A      1.335141
     115A      1.344311   116A      1.363561   117A      1.364456
     118A      1.375486   119A      1.391509   120A      1.403316
     121A      1.413077   122A      1.425310   123A      1.456223
     124A      1.471763   125A      1.487993   126A      1.535528
     127A      1.567079   128A      1.575509   129A      1.581901
     130A      1.595507   131A      1.613196   132A      1.633997
     133A      1.665564   134A      1.684103   135A      1.693756
     136A      1.698153   137A      1.733125   138A      1.747945
     139A      1.805000   140A      1.817587   141A      1.834924
     142A      1.839970   143A      1.843502   144A      1.863542
     145A      1.887740   146A      1.904963   147A      1.923999
     148A      1.977883   149A      1.991622   150A      2.005116
     151A      2.018744   152A      2.026745   153A      2.032945
     154A      2.046696   155A      2.061159   156A      2.077144
     157A      2.080230   158A      2.086183   159A      2.101064
     160A      2.112433   161A      2.114719   162A      2.136422
     163A      2.159771   164A      2.171814   165A      2.183401
     166A      2.189112   167A      2.218106   168A      2.229428
     169A      2.253147   170A      2.293944   171A      2.308644
     172A      2.312311   173A      2.318126   174A      2.328805
     175A      2.370076   176A      2.379897   177A      2.422015
     178A      2.436068   179A      2.443028   180A      2.452914
     181A      2.486328   182A      2.516153   183A      2.529603
     184A      2.591708   185A      2.600954   186A      2.621743
     187A      2.632855   188A      2.646930   189A      2.653723
     190A      2.723985   191A      2.733825   192A      2.743697
     193A      2.780815   194A      2.853516   195A      2.899142
     196A      2.905039   197A      2.916128   198A      2.927527
     199A      2.956402   200A      2.995017   201A      2.998702
     202A      3.012262   203A      3.076222   204A      3.109553
     205A      3.195477   206A      3.237576   207A      3.243348
     208A      3.271326   209A      3.296763   210A      3.354970
     211A      3.358556   212A      3.394789   213A      3.424744
     214A      3.633013   215A      3.667053   216A      3.782265
     217A      3.783158   218A      3.831227   219A      4.037917
     220A      4.063383   221A      4.074860   222A      4.192217
     223A      4.265629

    Final Occupation by Irrep:
              A
    DOCC [    45 ]

  @RHF Final Energy:  -571.87247857349314

   => Energetics <=

    Nuclear Repulsion Energy =            640.1240594875326906
    One-Electron Energy =               -2064.7146932352811746
    Two-Electron Energy =                 852.7181551742554575
    Total Energy =                       -571.8724785734931402

Computation Completed

Properties will be evaluated at   0.000000,   0.000000,   0.000000 [a0]

Properties computed using the SCF density matrix

  Nuclear Dipole Moment: [e a0]
     X:     0.3839      Y:     0.0029      Z:    -0.8732

  Electronic Dipole Moment: [e a0]
     X:    -4.6148      Y:     1.7119      Z:    -1.3203

  Dipole Moment: [e a0]
     X:    -4.2310      Y:     1.7149      Z:    -2.1936     Total:     5.0649

  Dipole Moment: [D]
     X:   -10.7540      Y:     4.3587      Z:    -5.5755     Total:    12.8738

*** tstop() called on ds3 at Tue Apr 28 05:07:19 2020
Module time:
	user time   =     110.97 seconds =       1.85 minutes
	system time =      54.81 seconds =       0.91 minutes
	total time  =        597 seconds =       9.95 minutes
Total time:
	user time   =     110.97 seconds =       1.85 minutes
	system time =      54.81 seconds =       0.91 minutes
	total time  =        597 seconds =       9.95 minutes
                                     G D M A

                                 by Anthony Stone

                           version 2.2.06, 22 June 2011

               Distributed Multipoles from Gaussian wavefunctions

Starting at 5:7:19 on 28 Apr 2020

Using SCF density matrix from file ./SSI/SSI-083GLU-094TYR-1-dimer.test.27905.fchk

                         Distributed Multipole Analysis

Standard DMA

Positions and radii in angstrom
Multipole moments in atomic units, ea_0^k for rank k

C          x =  1.966972  y = -2.965589  z =  0.064051 angstrom
           Maximum rank =  0   Radius =  0.650 angstrom
                   Q00  =  -0.276418

C          x =  2.594972  y = -1.781589  z =  0.788051 angstrom
           Maximum rank =  0   Radius =  0.650 angstrom
                   Q00  =   0.950872

O          x =  3.415972  y = -1.077589  z =  0.160051 angstrom
           Maximum rank =  0   Radius =  0.650 angstrom
                   Q00  =  -0.925158

O          x =  2.292972  y = -1.580589  z =  1.984051 angstrom
           Maximum rank =  0   Radius =  0.650 angstrom
                   Q00  =  -0.925104

H          x =  1.438972  y = -2.622589  z = -0.824949 angstrom
           Maximum rank =  0   Radius =  0.325 angstrom
                   Q00  =   0.059984

H          x =  1.234972  y = -3.462589  z =  0.704051 angstrom
           Maximum rank =  0   Radius =  0.325 angstrom
                   Q00  =   0.053209

H          x =  2.740575  y = -3.689352  z = -0.232099 angstrom
           Maximum rank =  0   Radius =  0.325 angstrom
                   Q00  =   0.071515

C          x =  1.053972  y =  1.950411  z =  0.898051 angstrom
           Maximum rank =  0   Radius =  0.650 angstrom
                   Q00  =  -0.178937

C          x = -0.181028  y =  0.431411  z = -0.738949 angstrom
           Maximum rank =  0   Radius =  0.650 angstrom
                   Q00  =   0.103987

C          x = -0.204028  y =  1.441411  z =  0.230051 angstrom
           Maximum rank =  0   Radius =  0.650 angstrom
                   Q00  =  -0.130206

C          x = -1.337028  y =  0.009411  z = -1.368949 angstrom
           Maximum rank =  0   Radius =  0.650 angstrom
                   Q00  =  -0.193455

C          x = -2.548028  y =  0.598411  z = -1.031949 angstrom
           Maximum rank =  0   Radius =  0.650 angstrom
                   Q00  =   0.281341

C          x = -1.432028  y =  1.978411  z =  0.598051 angstrom
           Maximum rank =  0   Radius =  0.650 angstrom
                   Q00  =  -0.054053

C          x = -2.597028  y =  1.560411  z = -0.035949 angstrom
           Maximum rank =  0   Radius =  0.650 angstrom
                   Q00  =  -0.097131

O          x = -3.721028  y =  0.239411  z = -1.636949 angstrom
           Maximum rank =  0   Radius =  0.650 angstrom
                   Q00  =  -0.663059

H          x =  0.752972  y = -0.044589  z = -0.992949 angstrom
           Maximum rank =  0   Radius =  0.325 angstrom
                   Q00  =   0.071878

H          x = -1.296028  y = -0.773589  z = -2.109949 angstrom
           Maximum rank =  0   Radius =  0.325 angstrom
                   Q00  =   0.058847

H          x =  1.522972  y =  1.124411  z =  1.433051 angstrom
           Maximum rank =  0   Radius =  0.325 angstrom
                   Q00  =   0.145947

H          x =  0.770972  y =  2.695411  z =  1.643051 angstrom
           Maximum rank =  0   Radius =  0.325 angstrom
                   Q00  =   0.055615

H          x = -1.490028  y =  2.713411  z =  1.387051 angstrom
           Maximum rank =  0   Radius =  0.325 angstrom
                   Q00  =   0.047595

H          x = -3.512028  y = -0.284589  z = -2.431949 angstrom
           Maximum rank =  0   Radius =  0.325 angstrom
                   Q00  =   0.393746

H          x = -3.552028  y =  1.951411  z =  0.272051 angstrom
           Maximum rank =  0   Radius =  0.325 angstrom
                   Q00  =   0.054994

H          x =  1.787977  y =  2.408181  z =  0.218581 angstrom
           Maximum rank =  0   Radius =  0.325 angstrom
                   Q00  =   0.093993

Total multipoles referred to origin at
           x =   0.000000,  y =    0.000000,  z =    0.000000 angstrom
                   Q00  =  -1.000000

Finished at 5:7:19 on 28 Apr 2020

  DMA results are available in the Python driver through the
	  variable('DMA DISTRIBUTED MULTIPOLES')
  and
	  variable('DMA TOTAL MULTIPOLES')
  commands.

    Psi4 stopped on: Tuesday, 28 April 2020 05:07AM
    Psi4 wall time for execution: 0:09:56.29

*** Psi4 exiting successfully. Buy a developer a beer!
