                               Psi4 1.3.2 release

  ==> Input File <==

--------------------------------------------------------------------------
import numpy as np
set {scf_type pk
basis cc-pvdz
d_convergence 10
gdma_switch   0
gdma_limit    0
gdma_origin   [ 0.0,  0.0,  0.0 ]
}
molecule test {
    units Angstrom
    0 1
    --
    0 1
    C                3.900354157250180    -1.217853166701867     0.318170288658708
    O                2.696354157250180    -1.156853166701868    -0.426829711341292
    H                2.822354157250180    -1.655853166701868    -1.248829711341292
    H                4.261354157250179    -2.246853166701867     0.327170288658708
    H                3.617354157250180    -0.976853166701867     1.343170288658708
    H                4.733714157250180    -0.556964166701867     0.037560288658708
    C               -3.260645842749820     1.086146833298133     0.754170288658708
    C               -0.146645842749820     0.519146833298133    -0.980829711341292
    C               -1.065645842749820    -0.219853166701867     0.862170288658708
    C               -1.913645842749820     0.665146833298133     0.297170288658708
    N                0.037354157250180    -0.299853166701867     0.046170288658708
    N               -1.335645842749820     1.101146833298133    -0.866829711341292
    H                0.885354157250180    -0.840853166701867     0.199170288658708
    H                0.559354157250180     0.681146833298133    -1.786829711341292
    H               -1.239645842749820    -0.760853166701867     1.780170288658708
    H               -3.703645842749820     1.742146833298133     0.005170288658708
    H               -3.134645842749820     1.670146833298133     1.666170288658708
    H               -3.952619842749820     0.256210833298133     0.960030288658708

}
e, wfn = energy('scf', return_wfn=True)
gdma(wfn)
dmavals = variable('DMA DISTRIBUTED MULTIPOLES')
charges = np.array(dmavals)
print(charges)
np.save('SSI-071SER-082HIE-1-dimer.npy', np.array(charges))--------------------------------------------------------------------------

*** tstart() called on ds3
*** at Mon Apr 27 14:13:20 2020

   => Loading Basis Set <=

    Name: CC-PVDZ
    Role: ORBITAL
    Keyword: BASIS
    atoms 1, 7-10    entry C          line   138 file /theoryfs2/ds/metcalf/miniconda2/envs/tf2gpu/share/psi4/basis/cc-pvdz.gbs
    atoms 2          entry O          line   198 file /theoryfs2/ds/metcalf/miniconda2/envs/tf2gpu/share/psi4/basis/cc-pvdz.gbs
    atoms 3-6, 13-18 entry H          line    22 file /theoryfs2/ds/metcalf/miniconda2/envs/tf2gpu/share/psi4/basis/cc-pvdz.gbs
    atoms 11-12      entry N          line   168 file /theoryfs2/ds/metcalf/miniconda2/envs/tf2gpu/share/psi4/basis/cc-pvdz.gbs

         ---------------------------------------------------------
                                   SCF
               by Justin Turney, Rob Parrish, Andy Simmonett
                          and Daniel G. A. Smith
                              RHF Reference
                        1 Threads,    500 MiB Core
         ---------------------------------------------------------

  ==> Geometry <==

    Molecular point group: c1
    Full point group: C1

    Geometry (in Angstrom), charge = 0, multiplicity = 1:

       Center              X                  Y                   Z               Mass
    ------------   -----------------  -----------------  -----------------  -----------------
         C            3.900354157250    -1.217853166702     0.318170288659    12.000000000000
         O            2.696354157250    -1.156853166702    -0.426829711341    15.994914619570
         H            2.822354157250    -1.655853166702    -1.248829711341     1.007825032230
         H            4.261354157250    -2.246853166702     0.327170288659     1.007825032230
         H            3.617354157250    -0.976853166702     1.343170288659     1.007825032230
         H            4.733714157250    -0.556964166702     0.037560288659     1.007825032230
         C           -3.260645842750     1.086146833298     0.754170288659    12.000000000000
         C           -0.146645842750     0.519146833298    -0.980829711341    12.000000000000
         C           -1.065645842750    -0.219853166702     0.862170288659    12.000000000000
         C           -1.913645842750     0.665146833298     0.297170288659    12.000000000000
         N            0.037354157250    -0.299853166702     0.046170288659    14.003074004430
         N           -1.335645842750     1.101146833298    -0.866829711341    14.003074004430
         H            0.885354157250    -0.840853166702     0.199170288659     1.007825032230
         H            0.559354157250     0.681146833298    -1.786829711341     1.007825032230
         H           -1.239645842750    -0.760853166702     1.780170288659     1.007825032230
         H           -3.703645842750     1.742146833298     0.005170288659     1.007825032230
         H           -3.134645842750     1.670146833298     1.666170288659     1.007825032230
         H           -3.952619842750     0.256210833298     0.960030288659     1.007825032230

  Running in c1 symmetry.

  Rotational constants: A =      0.22980  B =      0.02394  C =      0.02224 [cm^-1]
  Rotational constants: A =   6889.22458  B =    717.74476  C =    666.73459 [MHz]
  Nuclear repulsion =  355.693148776630949

  Charge       = 0
  Multiplicity = 1
  Electrons    = 62
  Nalpha       = 31
  Nbeta        = 31

  ==> Algorithm <==

  SCF Algorithm Type is PK.
  DIIS enabled.
  MOM disabled.
  Fractional occupation disabled.
  Guess Type is SAD.
  Energy threshold   = 1.00e-06
  Density threshold  = 1.00e-10
  Integral threshold = 0.00e+00

  ==> Primary Basis <==

  Basis Set: CC-PVDZ
    Blend: CC-PVDZ
    Number of shells: 78
    Number of basis function: 162
    Number of Cartesian functions: 170
    Spherical Harmonics?: true
    Max angular momentum: 2

  ==> Pre-Iterations <==

   -------------------------------------------------------
    Irrep   Nso     Nmo     Nalpha   Nbeta   Ndocc  Nsocc
   -------------------------------------------------------
     A        162     162       0       0       0       0
   -------------------------------------------------------
    Total     162     162      31      31      31       0
   -------------------------------------------------------

  ==> Integral Setup <==

  Using integral reordering PK algorithm.
  Sizing the integral batches needed.
  Building batch lookup table.
   Calculation information:
      Number of atoms:                  18
      Number of AO shells:              78
      Number of primitives:            226
      Number of atomic orbitals:       170
      Number of basis functions:       162

      Integral cutoff                 1.00e-12
      Number of threads:                 1

	Batch   1 pq = [       0,    9405] index = [             0,44231715] size =     44231715
	Batch   2 pq = [    9405,   13203] index = [      44231715,87166206] size =     42934491
  Task number: 8
  Buffer size: 11059200
  Buffer per thread: 2
  We computed 3615180 shell quartets total.
  Whereas there are 4747821 unique shell quartets.

  ==> DiskJK: Disk-Based J/K Matrices <==

    J tasked:                  Yes
    K tasked:                  Yes
    wK tasked:                  No
    Memory [MiB]:              375
    Schwarz Cutoff:          1E-12

    OpenMP threads:              1

  Minimum eigenvalue in the overlap matrix is 1.2044695545E-03.
  Using Symmetric Orthogonalization.

  SCF Guess: Superposition of Atomic Densities via on-the-fly atomic UHF.

  ==> Iterations <==

                        Total Energy        Delta E     RMS |[F,P]|

   @RHF iter SAD:  -378.05220546460453   -3.78052e+02   0.00000e+00
   @RHF iter   1:  -378.73481326505242   -6.82608e-01   3.48156e-03 DIIS
   @RHF iter   2:  -378.88643157193803   -1.51618e-01   1.79482e-03 DIIS
   @RHF iter   3:  -378.92264519611354   -3.62136e-02   4.30438e-04 DIIS
   @RHF iter   4:  -378.92563677391655   -2.99158e-03   1.66760e-04 DIIS
   @RHF iter   5:  -378.92604122215624   -4.04448e-04   3.41514e-05 DIIS
   @RHF iter   6:  -378.92606421027739   -2.29881e-05   1.29389e-05 DIIS
   @RHF iter   7:  -378.92606809263793   -3.88236e-06   4.20884e-06 DIIS
   @RHF iter   8:  -378.92606879303099   -7.00393e-07   1.66097e-06 DIIS
   @RHF iter   9:  -378.92606893336199   -1.40331e-07   6.23733e-07 DIIS
   @RHF iter  10:  -378.92606894914923   -1.57872e-08   2.21852e-07 DIIS
   @RHF iter  11:  -378.92606895183746   -2.68824e-09   6.49288e-08 DIIS
   @RHF iter  12:  -378.92606895203357   -1.96110e-10   2.87844e-08 DIIS
   @RHF iter  13:  -378.92606895205711   -2.35332e-11   9.07033e-09 DIIS
   @RHF iter  14:  -378.92606895206126   -4.14957e-12   3.05879e-09 DIIS
   @RHF iter  15:  -378.92606895206040    8.52651e-13   1.44671e-09 DIIS
   @RHF iter  16:  -378.92606895206251   -2.10321e-12   4.23756e-10 DIIS
   @RHF iter  17:  -378.92606895206120    1.30740e-12   1.96351e-10 DIIS
   @RHF iter  18:  -378.92606895206018    1.02318e-12   5.52973e-11 DIIS
  Energy and wave function converged.

  ==> Post-Iterations <==

    Orbital Energies [Eh]
    ---------------------

    Doubly Occupied:

       1A    -20.593075     2A    -15.592600     3A    -15.509710
       4A    -11.301108     5A    -11.270781     6A    -11.227547
       7A    -11.220448     8A    -11.208986     9A     -1.389821
      10A     -1.321558    11A     -1.135019    12A     -1.016566
      13A     -0.950260    14A     -0.925534    15A     -0.798137
      16A     -0.742283    17A     -0.729447    18A     -0.714572
      19A     -0.643941    20A     -0.622968    21A     -0.590084
      22A     -0.586358    23A     -0.576665    24A     -0.539910
      25A     -0.530782    26A     -0.519737    27A     -0.504923
      28A     -0.478823    29A     -0.394550    30A     -0.359670
      31A     -0.290464

    Virtual:

      32A      0.155689    33A      0.193638    34A      0.203189
      35A      0.210118    36A      0.228698    37A      0.238752
      38A      0.249343    39A      0.252399    40A      0.260324
      41A      0.283754    42A      0.309034    43A      0.313760
      44A      0.346452    45A      0.399094    46A      0.415519
      47A      0.436859    48A      0.489695    49A      0.506785
      50A      0.596070    51A      0.619432    52A      0.624255
      53A      0.664146    54A      0.666248    55A      0.685278
      56A      0.695123    57A      0.716386    58A      0.731721
      59A      0.758009    60A      0.768093    61A      0.785828
      62A      0.796517    63A      0.824968    64A      0.839990
      65A      0.865004    66A      0.869951    67A      0.871693
      68A      0.888216    69A      0.891623    70A      0.918505
      71A      0.931889    72A      0.951855    73A      0.987504
      74A      0.996269    75A      1.037559    76A      1.064575
      77A      1.102428    78A      1.113482    79A      1.119677
      80A      1.121018    81A      1.155966    82A      1.163418
      83A      1.178494    84A      1.186519    85A      1.262797
      86A      1.287764    87A      1.294154    88A      1.315070
      89A      1.321305    90A      1.350534    91A      1.369739
      92A      1.449034    93A      1.467290    94A      1.487513
      95A      1.529937    96A      1.548318    97A      1.578115
      98A      1.636691    99A      1.647300   100A      1.659508
     101A      1.668359   102A      1.690386   103A      1.702762
     104A      1.730387   105A      1.807106   106A      1.834178
     107A      1.841051   108A      1.856251   109A      1.870568
     110A      1.898653   111A      1.921753   112A      1.924525
     113A      1.939407   114A      1.943825   115A      1.947170
     116A      1.957575   117A      1.971708   118A      1.989872
     119A      2.025873   120A      2.055663   121A      2.079606
     122A      2.098298   123A      2.106895   124A      2.229743
     125A      2.235382   126A      2.254511   127A      2.264222
     128A      2.275081   129A      2.325813   130A      2.344395
     131A      2.393623   132A      2.400213   133A      2.405159
     134A      2.414400   135A      2.474112   136A      2.500242
     137A      2.532683   138A      2.605321   139A      2.638231
     140A      2.690982   141A      2.722319   142A      2.739415
     143A      2.747289   144A      2.757847   145A      2.800688
     146A      2.802814   147A      2.827286   148A      2.852695
     149A      2.892232   150A      2.928507   151A      2.951684
     152A      3.002626   153A      3.096491   154A      3.214815
     155A      3.260072   156A      3.274235   157A      3.362560
     158A      3.411622   159A      3.503693   160A      3.560239
     161A      3.827300   162A      4.053281

    Final Occupation by Irrep:
              A
    DOCC [    31 ]

  @RHF Final Energy:  -378.92606895206018

   => Energetics <=

    Nuclear Repulsion Energy =            355.6931487766309488
    One-Electron Energy =               -1220.6657801868525439
    Two-Electron Energy =                 486.0465624581613611
    Total Energy =                       -378.9260689520601773

Computation Completed

Properties will be evaluated at   0.000000,   0.000000,   0.000000 [a0]

Properties computed using the SCF density matrix

  Nuclear Dipole Moment: [e a0]
     X:     4.5624      Y:    -2.5283      Z:     3.0780

  Electronic Dipole Moment: [e a0]
     X:    -2.6244      Y:     1.1715      Z:    -2.7268

  Dipole Moment: [e a0]
     X:     1.9380      Y:    -1.3569      Z:     0.3512     Total:     2.3917

  Dipole Moment: [D]
     X:     4.9259      Y:    -3.4488      Z:     0.8927     Total:     6.0792

*** tstop() called on ds3 at Mon Apr 27 14:14:04 2020
Module time:
	user time   =      30.78 seconds =       0.51 minutes
	system time =      14.58 seconds =       0.24 minutes
	total time  =         44 seconds =       0.73 minutes
Total time:
	user time   =      30.78 seconds =       0.51 minutes
	system time =      14.58 seconds =       0.24 minutes
	total time  =         44 seconds =       0.73 minutes
                                     G D M A

                                 by Anthony Stone

                           version 2.2.06, 22 June 2011

               Distributed Multipoles from Gaussian wavefunctions

Starting at 14:14:4 on 27 Apr 2020

Using SCF density matrix from file ./SSI/SSI-071SER-082HIE-1-dimer.test.9043.fchk

                         Distributed Multipole Analysis

Standard DMA

Positions and radii in angstrom
Multipole moments in atomic units, ea_0^k for rank k

C          x =  3.900354  y = -1.217853  z =  0.318170 angstrom
           Maximum rank =  0   Radius =  0.650 angstrom
                   Q00  =  -0.044713

O          x =  2.696354  y = -1.156853  z = -0.426830 angstrom
           Maximum rank =  0   Radius =  0.650 angstrom
                   Q00  =  -0.603047

H          x =  2.822354  y = -1.655853  z = -1.248830 angstrom
           Maximum rank =  0   Radius =  0.325 angstrom
                   Q00  =   0.398397

H          x =  4.261354  y = -2.246853  z =  0.327170 angstrom
           Maximum rank =  0   Radius =  0.325 angstrom
                   Q00  =   0.077525

H          x =  3.617354  y = -0.976853  z =  1.343170 angstrom
           Maximum rank =  0   Radius =  0.325 angstrom
                   Q00  =   0.110721

H          x =  4.733714  y = -0.556964  z =  0.037560 angstrom
           Maximum rank =  0   Radius =  0.325 angstrom
                   Q00  =   0.090290

C          x = -3.260646  y =  1.086147  z =  0.754170 angstrom
           Maximum rank =  0   Radius =  0.650 angstrom
                   Q00  =  -0.204444

C          x = -0.146646  y =  0.519147  z = -0.980830 angstrom
           Maximum rank =  0   Radius =  0.650 angstrom
                   Q00  =   0.463110

C          x = -1.065646  y = -0.219853  z =  0.862170 angstrom
           Maximum rank =  0   Radius =  0.650 angstrom
                   Q00  =   0.001924

C          x = -1.913646  y =  0.665147  z =  0.297170 angstrom
           Maximum rank =  0   Radius =  0.650 angstrom
                   Q00  =   0.238716

N          x =  0.037354  y = -0.299853  z =  0.046170 angstrom
           Maximum rank =  0   Radius =  0.650 angstrom
                   Q00  =  -0.496352

N          x = -1.335646  y =  1.101147  z = -0.866830 angstrom
           Maximum rank =  0   Radius =  0.650 angstrom
                   Q00  =  -0.786121

H          x =  0.885354  y = -0.840853  z =  0.199170 angstrom
           Maximum rank =  0   Radius =  0.325 angstrom
                   Q00  =   0.247776

H          x =  0.559354  y =  0.681147  z = -1.786830 angstrom
           Maximum rank =  0   Radius =  0.325 angstrom
                   Q00  =   0.113719

H          x = -1.239646  y = -0.760853  z =  1.780170 angstrom
           Maximum rank =  0   Radius =  0.325 angstrom
                   Q00  =   0.087268

H          x = -3.703646  y =  1.742147  z =  0.005170 angstrom
           Maximum rank =  0   Radius =  0.325 angstrom
                   Q00  =   0.119189

H          x = -3.134646  y =  1.670147  z =  1.666170 angstrom
           Maximum rank =  0   Radius =  0.325 angstrom
                   Q00  =   0.093033

H          x = -3.952620  y =  0.256211  z =  0.960030 angstrom
           Maximum rank =  0   Radius =  0.325 angstrom
                   Q00  =   0.093009

Total multipoles referred to origin at
           x =   0.000000,  y =    0.000000,  z =    0.000000 angstrom
                   Q00  =  -0.000000

Finished at 14:14:4 on 27 Apr 2020

  DMA results are available in the Python driver through the
	  variable('DMA DISTRIBUTED MULTIPOLES')
  and
	  variable('DMA TOTAL MULTIPOLES')
  commands.

    Psi4 stopped on: Monday, 27 April 2020 02:14PM
    Psi4 wall time for execution: 0:00:44.16

*** Psi4 exiting successfully. Buy a developer a beer!
