                               Psi4 1.3.2 release

  ==> Input File <==

--------------------------------------------------------------------------
import numpy as np
set {scf_type pk
basis cc-pvdz
d_convergence 10
gdma_switch   0
gdma_limit    0
gdma_origin   [ 0.0,  0.0,  0.0 ]
}
molecule test {
    units Angstrom
    0 1
    --
    0 1
    C               -0.771142391163812    -3.433383700313979    -0.058439732670586
    C               -0.665142391163812    -2.736383700313979    -1.380439732670586
    C               -0.608142391163812    -1.036383700313979    -2.775439732670586
    C               -0.417142391163812    -3.225383700313979    -2.625439732670586
    N               -0.768142391163812    -1.368383700313979    -1.500439732670585
    N               -0.369142391163812    -2.139383700313978    -3.475439732670586
    H               -0.656142391163812    -0.031383700313979    -3.180439732670586
    H               -1.035142391163812    -4.478383700313978    -0.215439732670586
    H               -1.587142391163812    -2.961383700313978     0.483560267329414
    H               -0.208142391163812    -2.165383700313979    -4.476439732670586
    H               -0.264142391163812    -4.265383700313978    -2.883439732670586
    H                0.133867608836188    -3.336418700313978     0.559260267329414
    C                2.409857608836188     3.806616299686021     2.332560267329414
    C               -0.468142391163812     0.825616299686021     1.118560267329415
    C                0.863857608836188     0.716616299686021     0.703560267329414
    C               -0.869142391163812     1.893616299686021     1.903560267329415
    C                1.802857608836188     1.672616299686021     1.109560267329414
    C                0.078857608836188     2.854616299686021     2.301560267329414
    C                1.419857608836188     2.729616299686021     1.938560267329414
    O               -1.411142391163812    -0.077383700313979     0.707560267329414
    H               -1.100142391163812    -0.586383700313979    -0.070439732670586
    H                1.167857608836188    -0.101383700313979     0.066560267329414
    H               -1.902142391163812     1.983616299686021     2.203560267329415
    H                2.830857608836189     1.581616299686021     0.787560267329415
    H               -0.236142391163812     3.693616299686021     2.900560267329415
    H                3.303857608836188     3.326616299686021     2.728560267329414
    H                1.988857608836188     4.426616299686021     3.124560267329414
    H                2.703007608836188     4.445956299686022     1.486800267329415

}
e, wfn = energy('scf', return_wfn=True)
gdma(wfn)
dmavals = variable('DMA DISTRIBUTED MULTIPOLES')
charges = np.array(dmavals)
print(charges)
np.save('SSI-013HIE-121TYR-1-dimer.npy', np.array(charges))--------------------------------------------------------------------------

*** tstart() called on ds3
*** at Tue Apr 28 09:41:26 2020

   => Loading Basis Set <=

    Name: CC-PVDZ
    Role: ORBITAL
    Keyword: BASIS
    atoms 1-4, 13-19  entry C          line   138 file /theoryfs2/ds/metcalf/miniconda2/envs/tf2gpu/share/psi4/basis/cc-pvdz.gbs
    atoms 5-6         entry N          line   168 file /theoryfs2/ds/metcalf/miniconda2/envs/tf2gpu/share/psi4/basis/cc-pvdz.gbs
    atoms 7-12, 21-28 entry H          line    22 file /theoryfs2/ds/metcalf/miniconda2/envs/tf2gpu/share/psi4/basis/cc-pvdz.gbs
    atoms 20          entry O          line   198 file /theoryfs2/ds/metcalf/miniconda2/envs/tf2gpu/share/psi4/basis/cc-pvdz.gbs

         ---------------------------------------------------------
                                   SCF
               by Justin Turney, Rob Parrish, Andy Simmonett
                          and Daniel G. A. Smith
                              RHF Reference
                        1 Threads,    500 MiB Core
         ---------------------------------------------------------

  ==> Geometry <==

    Molecular point group: c1
    Full point group: C1

    Geometry (in Angstrom), charge = 0, multiplicity = 1:

       Center              X                  Y                   Z               Mass
    ------------   -----------------  -----------------  -----------------  -----------------
         C           -0.771142391164    -3.433383700314    -0.058439732671    12.000000000000
         C           -0.665142391164    -2.736383700314    -1.380439732671    12.000000000000
         C           -0.608142391164    -1.036383700314    -2.775439732671    12.000000000000
         C           -0.417142391164    -3.225383700314    -2.625439732671    12.000000000000
         N           -0.768142391164    -1.368383700314    -1.500439732671    14.003074004430
         N           -0.369142391164    -2.139383700314    -3.475439732671    14.003074004430
         H           -0.656142391164    -0.031383700314    -3.180439732671     1.007825032230
         H           -1.035142391164    -4.478383700314    -0.215439732671     1.007825032230
         H           -1.587142391164    -2.961383700314     0.483560267329     1.007825032230
         H           -0.208142391164    -2.165383700314    -4.476439732671     1.007825032230
         H           -0.264142391164    -4.265383700314    -2.883439732671     1.007825032230
         H            0.133867608836    -3.336418700314     0.559260267329     1.007825032230
         C            2.409857608836     3.806616299686     2.332560267329    12.000000000000
         C           -0.468142391164     0.825616299686     1.118560267329    12.000000000000
         C            0.863857608836     0.716616299686     0.703560267329    12.000000000000
         C           -0.869142391164     1.893616299686     1.903560267329    12.000000000000
         C            1.802857608836     1.672616299686     1.109560267329    12.000000000000
         C            0.078857608836     2.854616299686     2.301560267329    12.000000000000
         C            1.419857608836     2.729616299686     1.938560267329    12.000000000000
         O           -1.411142391164    -0.077383700314     0.707560267329    15.994914619570
         H           -1.100142391164    -0.586383700314    -0.070439732671     1.007825032230
         H            1.167857608836    -0.101383700314     0.066560267329     1.007825032230
         H           -1.902142391164     1.983616299686     2.203560267329     1.007825032230
         H            2.830857608836     1.581616299686     0.787560267329     1.007825032230
         H           -0.236142391164     3.693616299686     2.900560267329     1.007825032230
         H            3.303857608836     3.326616299686     2.728560267329     1.007825032230
         H            1.988857608836     4.426616299686     3.124560267329     1.007825032230
         H            2.703007608836     4.445956299686     1.486800267329     1.007825032230

  Running in c1 symmetry.

  Rotational constants: A =      0.05292  B =      0.00926  C =      0.00874 [cm^-1]
  Rotational constants: A =   1586.64422  B =    277.45842  C =    261.96961 [MHz]
  Nuclear repulsion =  819.502256744656961

  Charge       = 0
  Multiplicity = 1
  Electrons    = 102
  Nalpha       = 51
  Nbeta        = 51

  ==> Algorithm <==

  SCF Algorithm Type is PK.
  DIIS enabled.
  MOM disabled.
  Fractional occupation disabled.
  Guess Type is SAD.
  Energy threshold   = 1.00e-06
  Density threshold  = 1.00e-10
  Integral threshold = 0.00e+00

  ==> Primary Basis <==

  Basis Set: CC-PVDZ
    Blend: CC-PVDZ
    Number of shells: 126
    Number of basis function: 266
    Number of Cartesian functions: 280
    Spherical Harmonics?: true
    Max angular momentum: 2

  ==> Pre-Iterations <==

   -------------------------------------------------------
    Irrep   Nso     Nmo     Nalpha   Nbeta   Ndocc  Nsocc
   -------------------------------------------------------
     A        266     266       0       0       0       0
   -------------------------------------------------------
    Total     266     266      51      51      51       0
   -------------------------------------------------------

  ==> Integral Setup <==

  Using integral reordering PK algorithm.
  Sizing the integral batches needed.
  Building batch lookup table.
   Calculation information:
      Number of atoms:                  28
      Number of AO shells:             126
      Number of primitives:            378
      Number of atomic orbitals:       280
      Number of basis functions:       266

      Integral cutoff                 1.00e-12
      Number of threads:                 1

	Batch   1 pq = [       0,    9405] index = [             0,44231715] size =     44231715
	Batch   2 pq = [    9405,   13301] index = [      44231715,88464951] size =     44233236
	Batch   3 pq = [   13301,   16290] index = [      88464951,132690195] size =     44225244
	Batch   4 pq = [   16290,   18810] index = [     132690195,176917455] size =     44227260
	Batch   5 pq = [   18810,   21030] index = [     176917455,221140965] size =     44223510
	Batch   6 pq = [   21030,   23037] index = [     221140965,265363203] size =     44222238
	Batch   7 pq = [   23037,   24883] index = [     265363203,309594286] size =     44231083
	Batch   8 pq = [   24883,   26601] index = [     309594286,353819901] size =     44225615
	Batch   9 pq = [   26601,   28214] index = [     353819901,398029005] size =     44209104
	Batch  10 pq = [   28214,   29740] index = [     398029005,442248670] size =     44219665
	Batch  11 pq = [   29740,   31191] index = [     442248670,486454836] size =     44206166
	Batch  12 pq = [   31191,   32578] index = [     486454836,530679331] size =     44224495
	Batch  13 pq = [   32578,   33908] index = [     530679331,574893186] size =     44213855
	Batch  14 pq = [   33908,   35188] index = [     574893186,619115266] size =     44222080
	Batch  15 pq = [   35188,   35511] index = [     619115266,630533316] size =     11418050
  Task number: 58
  Buffer size: 11059200
  Buffer per thread: 2
  We computed 26854429 shell quartets total.
  Whereas there are 32012001 unique shell quartets.

  ==> DiskJK: Disk-Based J/K Matrices <==

    J tasked:                  Yes
    K tasked:                  Yes
    wK tasked:                  No
    Memory [MiB]:              375
    Schwarz Cutoff:          1E-12

    OpenMP threads:              1

  Minimum eigenvalue in the overlap matrix is 3.3239128282E-04.
  Using Symmetric Orthogonalization.

  SCF Guess: Superposition of Atomic Densities via on-the-fly atomic UHF.

  ==> Iterations <==

                        Total Energy        Delta E     RMS |[F,P]|

   @RHF iter SAD:  -607.60675826758609   -6.07607e+02   0.00000e+00
   @RHF iter   1:  -608.21592733687692   -6.09169e-01   2.51900e-03 DIIS
   @RHF iter   2:  -608.46145206949188   -2.45525e-01   1.10762e-03 DIIS
   @RHF iter   3:  -608.50200287531516   -4.05508e-02   3.00582e-04 DIIS
   @RHF iter   4:  -608.50606396653836   -4.06109e-03   1.26475e-04 DIIS
   @RHF iter   5:  -608.50668997635978   -6.26010e-04   2.05800e-05 DIIS
   @RHF iter   6:  -608.50671936820640   -2.93918e-05   9.98566e-06 DIIS
   @RHF iter   7:  -608.50672489379087   -5.52558e-06   3.11433e-06 DIIS
   @RHF iter   8:  -608.50672598003621   -1.08625e-06   1.32472e-06 DIIS
   @RHF iter   9:  -608.50672618076408   -2.00728e-07   5.62169e-07 DIIS
   @RHF iter  10:  -608.50672622150603   -4.07420e-08   2.21062e-07 DIIS
   @RHF iter  11:  -608.50672622869399   -7.18796e-09   9.17720e-08 DIIS
   @RHF iter  12:  -608.50672623010382   -1.40983e-09   3.92408e-08 DIIS
   @RHF iter  13:  -608.50672623031505   -2.11230e-10   1.51539e-08 DIIS
   @RHF iter  14:  -608.50672623033722   -2.21689e-11   6.38379e-09 DIIS
   @RHF iter  15:  -608.50672623035007   -1.28466e-11   2.45358e-09 DIIS
   @RHF iter  16:  -608.50672623035211   -2.04636e-12   1.02695e-09 DIIS
   @RHF iter  17:  -608.50672623035155    5.68434e-13   3.73246e-10 DIIS
   @RHF iter  18:  -608.50672623035030    1.25056e-12   1.37056e-10 DIIS
   @RHF iter  19:  -608.50672623035246   -2.16005e-12   6.60144e-11 DIIS
  Energy and wave function converged.

  ==> Post-Iterations <==

    Orbital Energies [Eh]
    ---------------------

    Doubly Occupied:

       1A    -20.519849     2A    -15.645550     3A    -15.559657
       4A    -11.322572     5A    -11.271403     6A    -11.268148
       7A    -11.265220     8A    -11.235078     9A    -11.218885
      10A    -11.217169    11A    -11.213882    12A    -11.212534
      13A    -11.208069    14A    -11.204115    15A     -1.368222
      16A     -1.341759    17A     -1.184121    18A     -1.123791
      19A     -1.052518    20A     -1.012369    21A     -0.990983
      22A     -0.958781    23A     -0.903671    24A     -0.847763
      25A     -0.817866    26A     -0.788141    27A     -0.771185
      28A     -0.761961    29A     -0.697306    30A     -0.639543
      31A     -0.632437    32A     -0.626468    33A     -0.618979
      34A     -0.614667    35A     -0.586306    36A     -0.568042
      37A     -0.562526    38A     -0.560357    39A     -0.556410
      40A     -0.543775    41A     -0.535397    42A     -0.530604
      43A     -0.502210    44A     -0.477398    45A     -0.464137
      46A     -0.436286    47A     -0.431165    48A     -0.409302
      49A     -0.331072    50A     -0.313761    51A     -0.275095

    Virtual:

      52A      0.149131    53A      0.159427    54A      0.164665
      55A      0.179397    56A      0.189220    57A      0.199385
      58A      0.203947    59A      0.211990    60A      0.226595
      61A      0.233015    62A      0.239667    63A      0.269847
      64A      0.271889    65A      0.277686    66A      0.286884
      67A      0.306904    68A      0.313440    69A      0.350628
      70A      0.358851    71A      0.378605    72A      0.387081
      73A      0.395104    74A      0.428423    75A      0.453606
      76A      0.466522    77A      0.474406    78A      0.491572
      79A      0.514073    80A      0.525309    81A      0.536934
      82A      0.589508    83A      0.602964    84A      0.625446
      85A      0.632320    86A      0.644929    87A      0.650582
      88A      0.664455    89A      0.671817    90A      0.682685
      91A      0.686068    92A      0.710610    93A      0.724612
      94A      0.731001    95A      0.734038    96A      0.744628
      97A      0.751442    98A      0.757276    99A      0.761612
     100A      0.768708   101A      0.773196   102A      0.795373
     103A      0.800673   104A      0.813742   105A      0.823796
     106A      0.837698   107A      0.847400   108A      0.853401
     109A      0.861606   110A      0.871778   111A      0.884608
     112A      0.889812   113A      0.896081   114A      0.903701
     115A      0.905727   116A      0.914349   117A      0.928736
     118A      0.935970   119A      0.952051   120A      0.953714
     121A      0.957785   122A      0.962837   123A      0.969974
     124A      0.982566   125A      1.013811   126A      1.030600
     127A      1.038104   128A      1.064081   129A      1.074644
     130A      1.107433   131A      1.109154   132A      1.132703
     133A      1.145458   134A      1.150617   135A      1.166417
     136A      1.186043   137A      1.215315   138A      1.227298
     139A      1.243065   140A      1.256783   141A      1.264787
     142A      1.266905   143A      1.287555   144A      1.299392
     145A      1.301886   146A      1.303706   147A      1.311371
     148A      1.320257   149A      1.335684   150A      1.345656
     151A      1.373633   152A      1.395777   153A      1.410119
     154A      1.449215   155A      1.453545   156A      1.473952
     157A      1.500349   158A      1.526890   159A      1.536263
     160A      1.551591   161A      1.572712   162A      1.575031
     163A      1.607372   164A      1.617713   165A      1.627587
     166A      1.664273   167A      1.672317   168A      1.691288
     169A      1.695886   170A      1.714825   171A      1.748195
     172A      1.767659   173A      1.772478   174A      1.785508
     175A      1.793826   176A      1.800900   177A      1.822789
     178A      1.837249   179A      1.840355   180A      1.853900
     181A      1.886020   182A      1.892138   183A      1.904821
     184A      1.914540   185A      1.921289   186A      1.928272
     187A      1.937185   188A      1.942203   189A      1.945485
     190A      1.949902   191A      1.958848   192A      1.967395
     193A      1.970687   194A      1.988889   195A      2.002142
     196A      2.017590   197A      2.029359   198A      2.043928
     199A      2.054758   200A      2.067713   201A      2.086222
     202A      2.087907   203A      2.098982   204A      2.110108
     205A      2.125986   206A      2.149542   207A      2.155584
     208A      2.190866   209A      2.191637   210A      2.204809
     211A      2.216820   212A      2.221475   213A      2.254888
     214A      2.270769   215A      2.276728   216A      2.293024
     217A      2.321110   218A      2.334364   219A      2.369393
     220A      2.376937   221A      2.399844   222A      2.412308
     223A      2.421413   224A      2.426208   225A      2.481701
     226A      2.490545   227A      2.516003   228A      2.535548
     229A      2.546307   230A      2.563373   231A      2.588970
     232A      2.623925   233A      2.644671   234A      2.684837
     235A      2.712066   236A      2.722233   237A      2.755630
     238A      2.766569   239A      2.773954   240A      2.783342
     241A      2.805462   242A      2.812147   243A      2.827860
     244A      2.831012   245A      2.853597   246A      2.856995
     247A      2.891210   248A      2.915790   249A      2.936705
     250A      2.956199   251A      2.980426   252A      3.027161
     253A      3.091587   254A      3.111218   255A      3.128366
     256A      3.168280   257A      3.225216   258A      3.297104
     259A      3.323587   260A      3.411496   261A      3.485360
     262A      3.618627   263A      3.729765   264A      3.782882
     265A      3.997380   266A      4.325291

    Final Occupation by Irrep:
              A
    DOCC [    51 ]

  @RHF Final Energy:  -608.50672623035246

   => Energetics <=

    Nuclear Repulsion Energy =            819.5022567446569610
    One-Electron Energy =               -2453.6209587093699156
    Two-Electron Energy =                1025.6119757343606125
    Total Energy =                       -608.5067262303523421

Computation Completed

Properties will be evaluated at   0.000000,   0.000000,   0.000000 [a0]

Properties computed using the SCF density matrix

  Nuclear Dipole Moment: [e a0]
     X:     4.8143      Y:     1.4460      Z:     3.3129

  Electronic Dipole Moment: [e a0]
     X:    -4.2683      Y:    -2.5538      Z:    -5.6239

  Dipole Moment: [e a0]
     X:     0.5461      Y:    -1.1079      Z:    -2.3111     Total:     2.6204

  Dipole Moment: [D]
     X:     1.3880      Y:    -2.8160      Z:    -5.8742     Total:     6.6605

*** tstop() called on ds3 at Tue Apr 28 09:46:54 2020
Module time:
	user time   =     234.42 seconds =       3.91 minutes
	system time =     102.55 seconds =       1.71 minutes
	total time  =        328 seconds =       5.47 minutes
Total time:
	user time   =     234.42 seconds =       3.91 minutes
	system time =     102.55 seconds =       1.71 minutes
	total time  =        328 seconds =       5.47 minutes
                                     G D M A

                                 by Anthony Stone

                           version 2.2.06, 22 June 2011

               Distributed Multipoles from Gaussian wavefunctions

Starting at 9:46:54 on 28 Apr 2020

Using SCF density matrix from file ./SSI/SSI-013HIE-121TYR-1-dimer.test.16199.fchk

                         Distributed Multipole Analysis

Standard DMA

Positions and radii in angstrom
Multipole moments in atomic units, ea_0^k for rank k

C          x = -0.771142  y = -3.433384  z = -0.058440 angstrom
           Maximum rank =  0   Radius =  0.650 angstrom
                   Q00  =  -0.209859

C          x = -0.665142  y = -2.736384  z = -1.380440 angstrom
           Maximum rank =  0   Radius =  0.650 angstrom
                   Q00  =   0.195143

C          x = -0.608142  y = -1.036384  z = -2.775440 angstrom
           Maximum rank =  0   Radius =  0.650 angstrom
                   Q00  =   0.480005

C          x = -0.417142  y = -3.225384  z = -2.625440 angstrom
           Maximum rank =  0   Radius =  0.650 angstrom
                   Q00  =   0.009608

N          x = -0.768142  y = -1.368384  z = -1.500440 angstrom
           Maximum rank =  0   Radius =  0.650 angstrom
                   Q00  =  -0.812749

N          x = -0.369142  y = -2.139384  z = -3.475440 angstrom
           Maximum rank =  0   Radius =  0.650 angstrom
                   Q00  =  -0.461307

H          x = -0.656142  y = -0.031384  z = -3.180440 angstrom
           Maximum rank =  0   Radius =  0.325 angstrom
                   Q00  =   0.136358

H          x = -1.035142  y = -4.478384  z = -0.215440 angstrom
           Maximum rank =  0   Radius =  0.325 angstrom
                   Q00  =   0.100256

H          x = -1.587142  y = -2.961384  z =  0.483560 angstrom
           Maximum rank =  0   Radius =  0.325 angstrom
                   Q00  =   0.133849

H          x = -0.208142  y = -2.165384  z = -4.476440 angstrom
           Maximum rank =  0   Radius =  0.325 angstrom
                   Q00  =   0.230806

H          x = -0.264142  y = -4.265384  z = -2.883440 angstrom
           Maximum rank =  0   Radius =  0.325 angstrom
                   Q00  =   0.110522

H          x =  0.133868  y = -3.336419  z =  0.559260 angstrom
           Maximum rank =  0   Radius =  0.325 angstrom
                   Q00  =   0.115395

C          x =  2.409858  y =  3.806616  z =  2.332560 angstrom
           Maximum rank =  0   Radius =  0.650 angstrom
                   Q00  =  -0.200200

C          x = -0.468142  y =  0.825616  z =  1.118560 angstrom
           Maximum rank =  0   Radius =  0.650 angstrom
                   Q00  =   0.358937

C          x =  0.863858  y =  0.716616  z =  0.703560 angstrom
           Maximum rank =  0   Radius =  0.650 angstrom
                   Q00  =  -0.175406

C          x = -0.869142  y =  1.893616  z =  1.903560 angstrom
           Maximum rank =  0   Radius =  0.650 angstrom
                   Q00  =  -0.119993

C          x =  1.802858  y =  1.672616  z =  1.109560 angstrom
           Maximum rank =  0   Radius =  0.650 angstrom
                   Q00  =  -0.075054

C          x =  0.078858  y =  2.854616  z =  2.301560 angstrom
           Maximum rank =  0   Radius =  0.650 angstrom
                   Q00  =   0.033098

C          x =  1.419858  y =  2.729616  z =  1.938560 angstrom
           Maximum rank =  0   Radius =  0.650 angstrom
                   Q00  =  -0.131652

O          x = -1.411142  y = -0.077384  z =  0.707560 angstrom
           Maximum rank =  0   Radius =  0.650 angstrom
                   Q00  =  -0.805916

H          x = -1.100142  y = -0.586384  z = -0.070440 angstrom
           Maximum rank =  0   Radius =  0.325 angstrom
                   Q00  =   0.551284

H          x =  1.167858  y = -0.101384  z =  0.066560 angstrom
           Maximum rank =  0   Radius =  0.325 angstrom
                   Q00  =   0.073629

H          x = -1.902142  y =  1.983616  z =  2.203560 angstrom
           Maximum rank =  0   Radius =  0.325 angstrom
                   Q00  =   0.072174

H          x =  2.830858  y =  1.581616  z =  0.787560 angstrom
           Maximum rank =  0   Radius =  0.325 angstrom
                   Q00  =   0.057468

H          x = -0.236142  y =  3.693616  z =  2.900560 angstrom
           Maximum rank =  0   Radius =  0.325 angstrom
                   Q00  =   0.057309

H          x =  3.303858  y =  3.326616  z =  2.728560 angstrom
           Maximum rank =  0   Radius =  0.325 angstrom
                   Q00  =   0.090600

H          x =  1.988858  y =  4.426616  z =  3.124560 angstrom
           Maximum rank =  0   Radius =  0.325 angstrom
                   Q00  =   0.093680

H          x =  2.703008  y =  4.445956  z =  1.486800 angstrom
           Maximum rank =  0   Radius =  0.325 angstrom
                   Q00  =   0.092016

Total multipoles referred to origin at
           x =   0.000000,  y =    0.000000,  z =    0.000000 angstrom
                   Q00  =  -0.000000

Finished at 9:46:54 on 28 Apr 2020

  DMA results are available in the Python driver through the
	  variable('DMA DISTRIBUTED MULTIPOLES')
  and
	  variable('DMA TOTAL MULTIPOLES')
  commands.

    Psi4 stopped on: Tuesday, 28 April 2020 09:46AM
    Psi4 wall time for execution: 0:05:27.42

*** Psi4 exiting successfully. Buy a developer a beer!
