                               Psi4 1.3.2 release

  ==> Input File <==

--------------------------------------------------------------------------
import numpy as np
set {scf_type pk
basis cc-pvdz
d_convergence 10
gdma_switch   0
gdma_limit    0
gdma_origin   [ 0.0,  0.0,  0.0 ]
}
molecule test {
    units Angstrom
    0 1
    --
    0 1
    C                2.120957163750452    -2.467496774763539    -0.768609977843685
    C                0.387957163750452     0.913503225236461     1.234390022156315
    C                0.074957163750452    -0.377496774763539     1.664390022156315
    C                1.249957163750452     1.101503225236461     0.160390022156315
    C                0.634957163750452    -1.475496774763539     1.011390022156315
    C                1.800957163750452     0.003503225236461    -0.482609977843685
    C                1.502957163750452    -1.290496774763539    -0.067609977843685
    O               -0.139042836249548     2.003503225236461     1.859390022156315
    H               -0.593042836249548    -0.531496774763539     2.501390022156315
    H               -0.678042836249548     1.775503225236461     2.626390022156314
    H                1.497957163750452     2.097503225236461    -0.168609977843685
    H                0.391957163750452    -2.477496774763539     1.340390022156315
    H                2.495957163750452     0.151503225236461    -1.291609977843685
    H                2.534957163750452    -2.156496774763539    -1.728609977843685
    H                1.332957163750452    -3.191496774763539    -0.967609977843685
    H                2.903587163750451    -2.962126774763539    -0.174616977843685
    C               -1.901042836249548     0.776503225236461    -1.707609977843685
    C               -1.840042836249548    -0.744496774763539    -1.838609977843685
    C               -3.107042836249548     1.241503225236461    -0.887609977843685
    H               -0.980042836249548     1.151503225236461    -1.270609977843685
    H               -1.995042836249548     1.215503225236461    -2.701609977843686
    H               -2.848042836249548    -1.163496774763539    -1.824609977843685
    H               -1.313042836249548    -1.119496774763539    -0.962609977843686
    H               -3.098042836249548     2.333503225236461    -0.863609977843685
    H               -4.024042836249548     0.920503225236461    -1.388609977843685
    H               -1.332362836249548    -1.089886774763539    -2.751280417843685
    H               -3.097672836249548     0.860973225236461     0.144432022156315

}
e, wfn = energy('scf', return_wfn=True)
gdma(wfn)
dmavals = variable('DMA DISTRIBUTED MULTIPOLES')
charges = np.array(dmavals)
print(charges)
np.save('SSI-097TYR-179LYS-1-dimer.npy', np.array(charges))--------------------------------------------------------------------------

*** tstart() called on ds3
*** at Mon Apr 27 06:55:05 2020

   => Loading Basis Set <=

    Name: CC-PVDZ
    Role: ORBITAL
    Keyword: BASIS
    atoms 1-7, 17-19  entry C          line   138 file /theoryfs2/ds/metcalf/miniconda2/envs/tf2gpu/share/psi4/basis/cc-pvdz.gbs
    atoms 8           entry O          line   198 file /theoryfs2/ds/metcalf/miniconda2/envs/tf2gpu/share/psi4/basis/cc-pvdz.gbs
    atoms 9-16, 20-27 entry H          line    22 file /theoryfs2/ds/metcalf/miniconda2/envs/tf2gpu/share/psi4/basis/cc-pvdz.gbs

         ---------------------------------------------------------
                                   SCF
               by Justin Turney, Rob Parrish, Andy Simmonett
                          and Daniel G. A. Smith
                              RHF Reference
                        1 Threads,    500 MiB Core
         ---------------------------------------------------------

  ==> Geometry <==

    Molecular point group: c1
    Full point group: C1

    Geometry (in Angstrom), charge = 0, multiplicity = 1:

       Center              X                  Y                   Z               Mass
    ------------   -----------------  -----------------  -----------------  -----------------
         C            2.120957163750    -2.467496774764    -0.768609977844    12.000000000000
         C            0.387957163750     0.913503225236     1.234390022156    12.000000000000
         C            0.074957163750    -0.377496774764     1.664390022156    12.000000000000
         C            1.249957163750     1.101503225236     0.160390022156    12.000000000000
         C            0.634957163750    -1.475496774764     1.011390022156    12.000000000000
         C            1.800957163750     0.003503225236    -0.482609977844    12.000000000000
         C            1.502957163750    -1.290496774764    -0.067609977844    12.000000000000
         O           -0.139042836250     2.003503225236     1.859390022156    15.994914619570
         H           -0.593042836250    -0.531496774764     2.501390022156     1.007825032230
         H           -0.678042836250     1.775503225236     2.626390022156     1.007825032230
         H            1.497957163750     2.097503225236    -0.168609977844     1.007825032230
         H            0.391957163750    -2.477496774764     1.340390022156     1.007825032230
         H            2.495957163750     0.151503225236    -1.291609977844     1.007825032230
         H            2.534957163750    -2.156496774764    -1.728609977844     1.007825032230
         H            1.332957163750    -3.191496774764    -0.967609977844     1.007825032230
         H            2.903587163750    -2.962126774764    -0.174616977844     1.007825032230
         C           -1.901042836250     0.776503225236    -1.707609977844    12.000000000000
         C           -1.840042836250    -0.744496774764    -1.838609977844    12.000000000000
         C           -3.107042836250     1.241503225236    -0.887609977844    12.000000000000
         H           -0.980042836250     1.151503225236    -1.270609977844     1.007825032230
         H           -1.995042836250     1.215503225236    -2.701609977844     1.007825032230
         H           -2.848042836250    -1.163496774764    -1.824609977844     1.007825032230
         H           -1.313042836250    -1.119496774764    -0.962609977844     1.007825032230
         H           -3.098042836250     2.333503225236    -0.863609977844     1.007825032230
         H           -4.024042836250     0.920503225236    -1.388609977844     1.007825032230
         H           -1.332362836250    -1.089886774764    -2.751280417844     1.007825032230
         H           -3.097672836250     0.860973225236     0.144432022156     1.007825032230

  Running in c1 symmetry.

  Rotational constants: A =      0.03860  B =      0.02625  C =      0.01928 [cm^-1]
  Rotational constants: A =   1157.07315  B =    786.95199  C =    578.00170 [MHz]
  Nuclear repulsion =  606.437905014270655

  Charge       = 0
  Multiplicity = 1
  Electrons    = 84
  Nalpha       = 42
  Nbeta        = 42

  ==> Algorithm <==

  SCF Algorithm Type is PK.
  DIIS enabled.
  MOM disabled.
  Fractional occupation disabled.
  Guess Type is SAD.
  Energy threshold   = 1.00e-06
  Density threshold  = 1.00e-10
  Integral threshold = 0.00e+00

  ==> Primary Basis <==

  Basis Set: CC-PVDZ
    Blend: CC-PVDZ
    Number of shells: 114
    Number of basis function: 234
    Number of Cartesian functions: 245
    Spherical Harmonics?: true
    Max angular momentum: 2

  ==> Pre-Iterations <==

   -------------------------------------------------------
    Irrep   Nso     Nmo     Nalpha   Nbeta   Ndocc  Nsocc
   -------------------------------------------------------
     A        234     234       0       0       0       0
   -------------------------------------------------------
    Total     234     234      42      42      42       0
   -------------------------------------------------------

  ==> Integral Setup <==

  Using integral reordering PK algorithm.
  Sizing the integral batches needed.
  Building batch lookup table.
   Calculation information:
      Number of atoms:                  27
      Number of AO shells:             114
      Number of primitives:            322
      Number of atomic orbitals:       245
      Number of basis functions:       234

      Integral cutoff                 1.00e-12
      Number of threads:                 1

	Batch   1 pq = [       0,    9405] index = [             0,44231715] size =     44231715
	Batch   2 pq = [    9405,   13301] index = [      44231715,88464951] size =     44233236
	Batch   3 pq = [   13301,   16290] index = [      88464951,132690195] size =     44225244
	Batch   4 pq = [   16290,   18810] index = [     132690195,176917455] size =     44227260
	Batch   5 pq = [   18810,   21030] index = [     176917455,221140965] size =     44223510
	Batch   6 pq = [   21030,   23037] index = [     221140965,265363203] size =     44222238
	Batch   7 pq = [   23037,   24883] index = [     265363203,309594286] size =     44231083
	Batch   8 pq = [   24883,   26601] index = [     309594286,353819901] size =     44225615
	Batch   9 pq = [   26601,   27495] index = [     353819901,378001260] size =     24181359
  Task number: 35
  Buffer size: 11059200
  Buffer per thread: 2
  We computed 23407715 shell quartets total.
  Whereas there are 21487290 unique shell quartets.
     8.94 percent of shell quartets recomputed by reordering.

  ==> DiskJK: Disk-Based J/K Matrices <==

    J tasked:                  Yes
    K tasked:                  Yes
    wK tasked:                  No
    Memory [MiB]:              375
    Schwarz Cutoff:          1E-12

    OpenMP threads:              1

  Minimum eigenvalue in the overlap matrix is 3.1887443565E-04.
  Using Symmetric Orthogonalization.

  SCF Guess: Superposition of Atomic Densities via on-the-fly atomic UHF.

  ==> Iterations <==

                        Total Energy        Delta E     RMS |[F,P]|

   @RHF iter SAD:  -461.73549443976941   -4.61735e+02   0.00000e+00
   @RHF iter   1:  -462.60103923900976   -8.65545e-01   2.83537e-03 DIIS
   @RHF iter   2:  -462.84433420777202   -2.43295e-01   1.21951e-03 DIIS
   @RHF iter   3:  -462.88538303450730   -4.10488e-02   2.69790e-04 DIIS
   @RHF iter   4:  -462.88866337479919   -3.28034e-03   1.03871e-04 DIIS
   @RHF iter   5:  -462.88900880223440   -3.45427e-04   2.10018e-05 DIIS
   @RHF iter   6:  -462.88902891314757   -2.01109e-05   6.56630e-06 DIIS
   @RHF iter   7:  -462.88903095941595   -2.04627e-06   1.81211e-06 DIIS
   @RHF iter   8:  -462.88903117810082   -2.18685e-07   6.92239e-07 DIIS
   @RHF iter   9:  -462.88903120844139   -3.03406e-08   2.65340e-07 DIIS
   @RHF iter  10:  -462.88903121324790   -4.80651e-09   9.64710e-08 DIIS
   @RHF iter  11:  -462.88903121439739   -1.14949e-09   4.42689e-08 DIIS
   @RHF iter  12:  -462.88903121469895   -3.01554e-10   2.42321e-08 DIIS
   @RHF iter  13:  -462.88903121477017   -7.12248e-11   8.49053e-09 DIIS
   @RHF iter  14:  -462.88903121478359   -1.34150e-11   1.94128e-09 DIIS
   @RHF iter  15:  -462.88903121478609   -2.50111e-12   7.12834e-10 DIIS
   @RHF iter  16:  -462.88903121478666   -5.68434e-13   2.08687e-10 DIIS
   @RHF iter  17:  -462.88903121478518    1.47793e-12   8.77657e-11 DIIS
  Energy and wave function converged.

  ==> Post-Iterations <==

    Orbital Energies [Eh]
    ---------------------

    Doubly Occupied:

       1A    -20.584473     2A    -11.301559     3A    -11.241074
       4A    -11.237299     5A    -11.236941     6A    -11.233705
       7A    -11.229969     8A    -11.227743     9A    -11.208790
      10A    -11.205406    11A    -11.202113    12A     -1.400208
      13A     -1.153221    14A     -1.042015    15A     -1.039053
      16A     -1.020717    17A     -0.927271    18A     -0.913095
      19A     -0.845990    20A     -0.804496    21A     -0.786470
      22A     -0.734486    23A     -0.668642    24A     -0.642640
      25A     -0.617960    26A     -0.609679    27A     -0.589795
      28A     -0.587099    29A     -0.582895    30A     -0.570652
      31A     -0.568027    32A     -0.536444    33A     -0.527386
      34A     -0.523805    35A     -0.499904    36A     -0.486230
      37A     -0.470742    38A     -0.460226    39A     -0.458736
      40A     -0.451980    41A     -0.340378    42A     -0.301738

    Virtual:

      43A      0.126083    44A      0.153912    45A      0.168560
      46A      0.181218    47A      0.203644    48A      0.210953
      49A      0.220328    50A      0.244331    51A      0.246833
      52A      0.253778    53A      0.262688    54A      0.267342
      55A      0.279872    56A      0.284084    57A      0.292628
      58A      0.298982    59A      0.317748    60A      0.341011
      61A      0.369496    62A      0.373430    63A      0.396129
      64A      0.431350    65A      0.434224    66A      0.453228
      67A      0.489414    68A      0.493577    69A      0.510170
      70A      0.577166    71A      0.591148    72A      0.601901
      73A      0.612149    74A      0.622762    75A      0.644183
      76A      0.648737    77A      0.658401    78A      0.674637
      79A      0.696090    80A      0.699798    81A      0.723522
      82A      0.730138    83A      0.757025    84A      0.768732
      85A      0.776988    86A      0.787478    87A      0.795320
      88A      0.806277    89A      0.820888    90A      0.834306
      91A      0.843522    92A      0.863414    93A      0.872182
      94A      0.872945    95A      0.877532    96A      0.883387
      97A      0.891710    98A      0.897364    99A      0.906786
     100A      0.909121   101A      0.915972   102A      0.927466
     103A      0.933199   104A      0.938273   105A      0.944332
     106A      0.948608   107A      0.957860   108A      0.964474
     109A      0.980929   110A      0.997233   111A      1.016800
     112A      1.025903   113A      1.064231   114A      1.096758
     115A      1.120353   116A      1.126949   117A      1.128919
     118A      1.143695   119A      1.164763   120A      1.209079
     121A      1.211403   122A      1.240236   123A      1.264673
     124A      1.268726   125A      1.278330   126A      1.294229
     127A      1.300472   128A      1.310650   129A      1.317665
     130A      1.360689   131A      1.368591   132A      1.394308
     133A      1.398880   134A      1.469420   135A      1.485118
     136A      1.503303   137A      1.515902   138A      1.533981
     139A      1.550295   140A      1.561805   141A      1.623447
     142A      1.624684   143A      1.671140   144A      1.679699
     145A      1.689467   146A      1.695712   147A      1.698366
     148A      1.721168   149A      1.736441   150A      1.754679
     151A      1.787827   152A      1.801874   153A      1.814739
     154A      1.854967   155A      1.861477   156A      1.872928
     157A      1.885437   158A      1.890729   159A      1.898504
     160A      1.911173   161A      1.913307   162A      1.926749
     163A      1.935648   164A      1.949126   165A      1.951547
     166A      1.956265   167A      1.962215   168A      1.981195
     169A      1.996406   170A      1.997310   171A      2.007687
     172A      2.015525   173A      2.023577   174A      2.029432
     175A      2.038108   176A      2.052059   177A      2.069439
     178A      2.081149   179A      2.089052   180A      2.101169
     181A      2.132429   182A      2.144216   183A      2.152839
     184A      2.176130   185A      2.198302   186A      2.207288
     187A      2.218774   188A      2.261337   189A      2.270710
     190A      2.281899   191A      2.308493   192A      2.324967
     193A      2.338915   194A      2.351828   195A      2.377697
     196A      2.400149   197A      2.408541   198A      2.453423
     199A      2.478264   200A      2.495970   201A      2.500225
     202A      2.539517   203A      2.545555   204A      2.566866
     205A      2.574790   206A      2.608696   207A      2.623520
     208A      2.649819   209A      2.664915   210A      2.742844
     211A      2.772130   212A      2.773413   213A      2.788384
     214A      2.796944   215A      2.808239   216A      2.814158
     217A      2.848347   218A      2.857929   219A      2.894627
     220A      2.954980   221A      2.959756   222A      2.964577
     223A      2.990932   224A      3.030859   225A      3.091991
     226A      3.095987   227A      3.129524   228A      3.244573
     229A      3.286085   230A      3.349951   231A      3.574171
     232A      3.675411   233A      3.974814   234A      4.194759

    Final Occupation by Irrep:
              A
    DOCC [    42 ]

  @RHF Final Energy:  -462.88903121478518

   => Energetics <=

    Nuclear Repulsion Energy =            606.4379050142706546
    One-Electron Energy =               -1830.5117660822668313
    Two-Electron Energy =                 761.1848298532109993
    Total Energy =                       -462.8890312147851773

Computation Completed

Properties will be evaluated at   0.000000,   0.000000,   0.000000 [a0]

Properties computed using the SCF density matrix

  Nuclear Dipole Moment: [e a0]
     X:    -8.2523      Y:    -3.9142      Z:    -8.8796

  Electronic Dipole Moment: [e a0]
     X:     8.2316      Y:     3.4739      Z:     9.2265

  Dipole Moment: [e a0]
     X:    -0.0207      Y:    -0.4402      Z:     0.3469     Total:     0.5609

  Dipole Moment: [D]
     X:    -0.0527      Y:    -1.1189      Z:     0.8818     Total:     1.4256

*** tstop() called on ds3 at Mon Apr 27 07:00:16 2020
Module time:
	user time   =     175.31 seconds =       2.92 minutes
	system time =      52.97 seconds =       0.88 minutes
	total time  =        311 seconds =       5.18 minutes
Total time:
	user time   =     175.31 seconds =       2.92 minutes
	system time =      52.97 seconds =       0.88 minutes
	total time  =        311 seconds =       5.18 minutes
                                     G D M A

                                 by Anthony Stone

                           version 2.2.06, 22 June 2011

               Distributed Multipoles from Gaussian wavefunctions

Starting at 7:0:16 on 27 Apr 2020

Using SCF density matrix from file ./SSI/SSI-097TYR-179LYS-1-dimer.test.8532.fchk

                         Distributed Multipole Analysis

Standard DMA

Positions and radii in angstrom
Multipole moments in atomic units, ea_0^k for rank k

C          x =  2.120957  y = -2.467497  z = -0.768610 angstrom
           Maximum rank =  0   Radius =  0.650 angstrom
                   Q00  =  -0.194807

C          x =  0.387957  y =  0.913503  z =  1.234390 angstrom
           Maximum rank =  0   Radius =  0.650 angstrom
                   Q00  =   0.364798

C          x =  0.074957  y = -0.377497  z =  1.664390 angstrom
           Maximum rank =  0   Radius =  0.650 angstrom
                   Q00  =  -0.197881

C          x =  1.249957  y =  1.101503  z =  0.160390 angstrom
           Maximum rank =  0   Radius =  0.650 angstrom
                   Q00  =  -0.111047

C          x =  0.634957  y = -1.475497  z =  1.011390 angstrom
           Maximum rank =  0   Radius =  0.650 angstrom
                   Q00  =  -0.070084

C          x =  1.800957  y =  0.003503  z = -0.482610 angstrom
           Maximum rank =  0   Radius =  0.650 angstrom
                   Q00  =   0.031433

C          x =  1.502957  y = -1.290497  z = -0.067610 angstrom
           Maximum rank =  0   Radius =  0.650 angstrom
                   Q00  =  -0.126169

O          x = -0.139043  y =  2.003503  z =  1.859390 angstrom
           Maximum rank =  0   Radius =  0.650 angstrom
                   Q00  =  -0.674862

H          x = -0.593043  y = -0.531497  z =  2.501390 angstrom
           Maximum rank =  0   Radius =  0.325 angstrom
                   Q00  =   0.074286

H          x = -0.678043  y =  1.775503  z =  2.626390 angstrom
           Maximum rank =  0   Radius =  0.325 angstrom
                   Q00  =   0.408437

H          x =  1.497957  y =  2.097503  z = -0.168610 angstrom
           Maximum rank =  0   Radius =  0.325 angstrom
                   Q00  =   0.080470

H          x =  0.391957  y = -2.477497  z =  1.340390 angstrom
           Maximum rank =  0   Radius =  0.325 angstrom
                   Q00  =   0.068711

H          x =  2.495957  y =  0.151503  z = -1.291610 angstrom
           Maximum rank =  0   Radius =  0.325 angstrom
                   Q00  =   0.064230

H          x =  2.534957  y = -2.156497  z = -1.728610 angstrom
           Maximum rank =  0   Radius =  0.325 angstrom
                   Q00  =   0.097123

H          x =  1.332957  y = -3.191497  z = -0.967610 angstrom
           Maximum rank =  0   Radius =  0.325 angstrom
                   Q00  =   0.095879

H          x =  2.903587  y = -2.962127  z = -0.174617 angstrom
           Maximum rank =  0   Radius =  0.325 angstrom
                   Q00  =   0.098452

C          x = -1.901043  y =  0.776503  z = -1.707610 angstrom
           Maximum rank =  0   Radius =  0.650 angstrom
                   Q00  =  -0.084846

C          x = -1.840043  y = -0.744497  z = -1.838610 angstrom
           Maximum rank =  0   Radius =  0.650 angstrom
                   Q00  =  -0.257427

C          x = -3.107043  y =  1.241503  z = -0.887610 angstrom
           Maximum rank =  0   Radius =  0.650 angstrom
                   Q00  =  -0.234343

H          x = -0.980043  y =  1.151503  z = -1.270610 angstrom
           Maximum rank =  0   Radius =  0.325 angstrom
                   Q00  =   0.067334

H          x = -1.995043  y =  1.215503  z = -2.701610 angstrom
           Maximum rank =  0   Radius =  0.325 angstrom
                   Q00  =   0.035733

H          x = -2.848043  y = -1.163497  z = -1.824610 angstrom
           Maximum rank =  0   Radius =  0.325 angstrom
                   Q00  =   0.065095

H          x = -1.313043  y = -1.119497  z = -0.962610 angstrom
           Maximum rank =  0   Radius =  0.325 angstrom
                   Q00  =   0.096816

H          x = -3.098043  y =  2.333503  z = -0.863610 angstrom
           Maximum rank =  0   Radius =  0.325 angstrom
                   Q00  =   0.081035

H          x = -4.024043  y =  0.920503  z = -1.388610 angstrom
           Maximum rank =  0   Radius =  0.325 angstrom
                   Q00  =   0.073288

H          x = -1.332363  y = -1.089887  z = -2.751280 angstrom
           Maximum rank =  0   Radius =  0.325 angstrom
                   Q00  =   0.077287

H          x = -3.097673  y =  0.860973  z =  0.144432 angstrom
           Maximum rank =  0   Radius =  0.325 angstrom
                   Q00  =   0.071058

Total multipoles referred to origin at
           x =   0.000000,  y =    0.000000,  z =    0.000000 angstrom
                   Q00  =  -0.000000

Finished at 7:0:16 on 27 Apr 2020

  DMA results are available in the Python driver through the
	  variable('DMA DISTRIBUTED MULTIPOLES')
  and
	  variable('DMA TOTAL MULTIPOLES')
  commands.

    Psi4 stopped on: Monday, 27 April 2020 07:00AM
    Psi4 wall time for execution: 0:05:11.50

*** Psi4 exiting successfully. Buy a developer a beer!
