                               Psi4 1.3.2 release

  ==> Input File <==

--------------------------------------------------------------------------
import numpy as np
set {scf_type pk
basis cc-pvdz
d_convergence 10
gdma_switch   0
gdma_limit    0
gdma_origin   [ 0.0,  0.0,  0.0 ]
}
molecule test {
    units Angstrom
    0 1
    --
    0 1
    C                1.411514505397165     2.625127621148637     0.227087784456230
    C               -0.231485494602835    -0.881872378851363    -1.586912215543770
    C               -0.593485494602835     0.366127621148637    -2.063912215543770
    C                0.672514505397165    -0.964872378851363    -0.551912215543770
    C               -0.036485494602835     1.528127621148637    -1.480912215543770
    C                1.177514505397165     0.184127621148637     0.045087784456230
    C                0.823514505397165     1.424127621148637    -0.404912215543770
    H               -0.641485494602835    -1.776872378851363    -2.031912215543770
    H               -1.299485494602835     0.438127621148637    -2.877912215543770
    H                0.962514505397165    -1.937872378851363    -0.181912215543770
    H               -0.313485494602835     2.502127621148637    -1.857912215543770
    H                1.852514505397165     0.094127621148637     0.882087784456230
    H                1.303514505397165     2.554127621148637     1.310087784456230
    H                0.834514505397165     3.491127621148637    -0.096912215543770
    H                2.470154505397165     2.777589621148637    -0.029882215543770
    C               -1.795485494602835    -1.928872378851363     1.794087784456230
    C               -1.124485494602835    -2.028872378851363     3.183087784456230
    H               -1.403485494602835    -1.087872378851363     1.227087784456230
    H               -1.595485494602835    -2.844872378851363     1.237087784456230
    H               -2.873485494602835    -1.814872378851363     1.906087784456230
    H               -0.051485494602835    -2.175872378851363     3.067087784456230
    H               -1.540485494602835    -2.925872378851363     3.637087784456230
    H               -1.319605494602835    -1.140795978851363     3.802157784456230

}
e, wfn = energy('scf', return_wfn=True)
gdma(wfn)
dmavals = variable('DMA DISTRIBUTED MULTIPOLES')
charges = np.array(dmavals)
print(charges)
np.save('SSI-071PHE-080ILE-1-dimer.npy', np.array(charges))--------------------------------------------------------------------------

*** tstart() called on ds3
*** at Tue Apr 28 04:23:43 2020

   => Loading Basis Set <=

    Name: CC-PVDZ
    Role: ORBITAL
    Keyword: BASIS
    atoms 1-7, 16-17  entry C          line   138 file /theoryfs2/ds/metcalf/miniconda2/envs/tf2gpu/share/psi4/basis/cc-pvdz.gbs
    atoms 8-15, 18-23 entry H          line    22 file /theoryfs2/ds/metcalf/miniconda2/envs/tf2gpu/share/psi4/basis/cc-pvdz.gbs

         ---------------------------------------------------------
                                   SCF
               by Justin Turney, Rob Parrish, Andy Simmonett
                          and Daniel G. A. Smith
                              RHF Reference
                        1 Threads,    500 MiB Core
         ---------------------------------------------------------

  ==> Geometry <==

    Molecular point group: c1
    Full point group: C1

    Geometry (in Angstrom), charge = 0, multiplicity = 1:

       Center              X                  Y                   Z               Mass
    ------------   -----------------  -----------------  -----------------  -----------------
         C            1.411514505397     2.625127621149     0.227087784456    12.000000000000
         C           -0.231485494603    -0.881872378851    -1.586912215544    12.000000000000
         C           -0.593485494603     0.366127621149    -2.063912215544    12.000000000000
         C            0.672514505397    -0.964872378851    -0.551912215544    12.000000000000
         C           -0.036485494603     1.528127621149    -1.480912215544    12.000000000000
         C            1.177514505397     0.184127621149     0.045087784456    12.000000000000
         C            0.823514505397     1.424127621149    -0.404912215544    12.000000000000
         H           -0.641485494603    -1.776872378851    -2.031912215544     1.007825032230
         H           -1.299485494603     0.438127621149    -2.877912215544     1.007825032230
         H            0.962514505397    -1.937872378851    -0.181912215544     1.007825032230
         H           -0.313485494603     2.502127621149    -1.857912215544     1.007825032230
         H            1.852514505397     0.094127621149     0.882087784456     1.007825032230
         H            1.303514505397     2.554127621149     1.310087784456     1.007825032230
         H            0.834514505397     3.491127621149    -0.096912215544     1.007825032230
         H            2.470154505397     2.777589621149    -0.029882215544     1.007825032230
         C           -1.795485494603    -1.928872378851     1.794087784456    12.000000000000
         C           -1.124485494603    -2.028872378851     3.183087784456    12.000000000000
         H           -1.403485494603    -1.087872378851     1.227087784456     1.007825032230
         H           -1.595485494603    -2.844872378851     1.237087784456     1.007825032230
         H           -2.873485494603    -1.814872378851     1.906087784456     1.007825032230
         H           -0.051485494603    -2.175872378851     3.067087784456     1.007825032230
         H           -1.540485494603    -2.925872378851     3.637087784456     1.007825032230
         H           -1.319605494603    -1.140795978851     3.802157784456     1.007825032230

  Running in c1 symmetry.

  Rotational constants: A =      0.06790  B =      0.02763  C =      0.02267 [cm^-1]
  Rotational constants: A =   2035.51069  B =    828.34655  C =    679.74244 [MHz]
  Nuclear repulsion =  412.141316354623768

  Charge       = 0
  Multiplicity = 1
  Electrons    = 68
  Nalpha       = 34
  Nbeta        = 34

  ==> Algorithm <==

  SCF Algorithm Type is PK.
  DIIS enabled.
  MOM disabled.
  Fractional occupation disabled.
  Guess Type is SAD.
  Energy threshold   = 1.00e-06
  Density threshold  = 1.00e-10
  Integral threshold = 0.00e+00

  ==> Primary Basis <==

  Basis Set: CC-PVDZ
    Blend: CC-PVDZ
    Number of shells: 96
    Number of basis function: 196
    Number of Cartesian functions: 205
    Spherical Harmonics?: true
    Max angular momentum: 2

  ==> Pre-Iterations <==

   -------------------------------------------------------
    Irrep   Nso     Nmo     Nalpha   Nbeta   Ndocc  Nsocc
   -------------------------------------------------------
     A        196     196       0       0       0       0
   -------------------------------------------------------
    Total     196     196      34      34      34       0
   -------------------------------------------------------

  ==> Integral Setup <==

  Using integral reordering PK algorithm.
  Sizing the integral batches needed.
  Building batch lookup table.
   Calculation information:
      Number of atoms:                  23
      Number of AO shells:              96
      Number of primitives:            268
      Number of atomic orbitals:       205
      Number of basis functions:       196

      Integral cutoff                 1.00e-12
      Number of threads:                 1

	Batch   1 pq = [       0,    9405] index = [             0,44231715] size =     44231715
	Batch   2 pq = [    9405,   13301] index = [      44231715,88464951] size =     44233236
	Batch   3 pq = [   13301,   16290] index = [      88464951,132690195] size =     44225244
	Batch   4 pq = [   16290,   18810] index = [     132690195,176917455] size =     44227260
	Batch   5 pq = [   18810,   19306] index = [     176917455,186370471] size =      9453016
  Task number: 17
  Buffer size: 11059200
  Buffer per thread: 2
  We computed 9748232 shell quartets total.
  Whereas there are 10841496 unique shell quartets.

  ==> DiskJK: Disk-Based J/K Matrices <==

    J tasked:                  Yes
    K tasked:                  Yes
    wK tasked:                  No
    Memory [MiB]:              375
    Schwarz Cutoff:          1E-12

    OpenMP threads:              1

  Minimum eigenvalue in the overlap matrix is 2.9733348821E-04.
  Using Symmetric Orthogonalization.

  SCF Guess: Superposition of Atomic Densities via on-the-fly atomic UHF.

  ==> Iterations <==

                        Total Energy        Delta E     RMS |[F,P]|

   @RHF iter SAD:  -347.98775591687541   -3.47988e+02   0.00000e+00
   @RHF iter   1:  -348.76113705478639   -7.73381e-01   2.91756e-03 DIIS
   @RHF iter   2:  -348.95541333957806   -1.94276e-01   1.21907e-03 DIIS
   @RHF iter   3:  -348.98639796233374   -3.09846e-02   2.64935e-04 DIIS
   @RHF iter   4:  -348.98888267407233   -2.48471e-03   7.00304e-05 DIIS
   @RHF iter   5:  -348.98900006985741   -1.17396e-04   2.13440e-05 DIIS
   @RHF iter   6:  -348.98901154662792   -1.14768e-05   5.11249e-06 DIIS
   @RHF iter   7:  -348.98901233329127   -7.86663e-07   1.21801e-06 DIIS
   @RHF iter   8:  -348.98901239439010   -6.10988e-08   3.84673e-07 DIIS
   @RHF iter   9:  -348.98901240622973   -1.18396e-08   1.93448e-07 DIIS
   @RHF iter  10:  -348.98901240973737   -3.50764e-09   9.81097e-08 DIIS
   @RHF iter  11:  -348.98901241088964   -1.15227e-09   3.60420e-08 DIIS
   @RHF iter  12:  -348.98901241101447   -1.24828e-10   1.32200e-08 DIIS
   @RHF iter  13:  -348.98901241102328   -8.81073e-12   4.11795e-09 DIIS
   @RHF iter  14:  -348.98901241102578   -2.50111e-12   1.19756e-09 DIIS
   @RHF iter  15:  -348.98901241102487    9.09495e-13   4.99369e-10 DIIS
   @RHF iter  16:  -348.98901241102317    1.70530e-12   2.34855e-10 DIIS
   @RHF iter  17:  -348.98901241102288    2.84217e-13   8.10958e-11 DIIS
  Energy and wave function converged.

  ==> Post-Iterations <==

    Orbital Energies [Eh]
    ---------------------

    Doubly Occupied:

       1A    -11.236819     2A    -11.233790     3A    -11.232453
       4A    -11.231024     5A    -11.228128     6A    -11.226857
       7A    -11.225078     8A    -11.215139     9A    -11.209043
      10A     -1.159114    11A     -1.053265    12A     -1.010411
      13A     -1.007959    14A     -0.934157    15A     -0.833159
      16A     -0.829913    17A     -0.793424    18A     -0.692948
      19A     -0.634904    20A     -0.630100    21A     -0.593275
      22A     -0.591592    23A     -0.581099    24A     -0.578793
      25A     -0.568898    26A     -0.533089    27A     -0.494235
      28A     -0.490479    29A     -0.486013    30A     -0.483807
      31A     -0.482431    32A     -0.473520    33A     -0.329038
      34A     -0.327045

    Virtual:

      35A      0.133694    36A      0.144183    37A      0.170849
      38A      0.195399    39A      0.202928    40A      0.222344
      41A      0.229982    42A      0.245637    43A      0.257531
      44A      0.262750    45A      0.267948    46A      0.274228
      47A      0.286555    48A      0.291456    49A      0.303532
      50A      0.310345    51A      0.369888    52A      0.380785
      53A      0.396968    54A      0.452389    55A      0.465035
      56A      0.475916    57A      0.502955    58A      0.564567
      59A      0.583572    60A      0.597757    61A      0.603648
      62A      0.618439    63A      0.638307    64A      0.657415
      65A      0.679377    66A      0.687475    67A      0.691673
      68A      0.708810    69A      0.728423    70A      0.743079
      71A      0.747029    72A      0.756025    73A      0.759281
      74A      0.779442    75A      0.784315    76A      0.817295
      77A      0.839181    78A      0.858655    79A      0.860618
      80A      0.867059    81A      0.881047    82A      0.888613
      83A      0.892901    84A      0.900544    85A      0.903857
      86A      0.907445    87A      0.913519    88A      0.929281
      89A      0.934496    90A      0.940949    91A      0.952290
      92A      0.959671    93A      0.991214    94A      1.016448
      95A      1.036981    96A      1.059316    97A      1.119221
      98A      1.126081    99A      1.134131   100A      1.146202
     101A      1.157005   102A      1.178952   103A      1.203994
     104A      1.229147   105A      1.244952   106A      1.248660
     107A      1.265277   108A      1.279155   109A      1.306578
     110A      1.311229   111A      1.326320   112A      1.333041
     113A      1.419164   114A      1.472277   115A      1.488683
     116A      1.511435   117A      1.533749   118A      1.561057
     119A      1.592624   120A      1.606542   121A      1.673713
     122A      1.684062   123A      1.696093   124A      1.703360
     125A      1.736988   126A      1.748358   127A      1.780853
     128A      1.804107   129A      1.826924   130A      1.858400
     131A      1.866815   132A      1.877554   133A      1.884082
     134A      1.896082   135A      1.907332   136A      1.910712
     137A      1.927592   138A      1.928057   139A      1.942359
     140A      1.948537   141A      1.954334   142A      1.962214
     143A      1.965977   144A      1.970900   145A      1.986972
     146A      1.993725   147A      2.006159   148A      2.011796
     149A      2.051074   150A      2.053552   151A      2.082285
     152A      2.097311   153A      2.118403   154A      2.129595
     155A      2.140048   156A      2.156606   157A      2.184048
     158A      2.185357   159A      2.211395   160A      2.255612
     161A      2.281092   162A      2.288139   163A      2.302320
     164A      2.307565   165A      2.321981   166A      2.336370
     167A      2.341843   168A      2.459985   169A      2.460660
     170A      2.480550   171A      2.485475   172A      2.528964
     173A      2.548018   174A      2.568386   175A      2.590122
     176A      2.640649   177A      2.741366   178A      2.760450
     179A      2.773043   180A      2.784459   181A      2.792580
     182A      2.812385   183A      2.820796   184A      2.849480
     185A      2.855307   186A      2.863806   187A      2.882731
     188A      2.956426   189A      2.973870   190A      3.003077
     191A      3.030222   192A      3.047543   193A      3.169167
     194A      3.221477   195A      3.317752   196A      3.997766

    Final Occupation by Irrep:
              A
    DOCC [    34 ]

  @RHF Final Energy:  -348.98901241102288

   => Energetics <=

    Nuclear Repulsion Energy =            412.1413163546237683
    One-Electron Energy =               -1286.9986628687158827
    Two-Electron Energy =                 525.8683341030691736
    Total Energy =                       -348.9890124110229408

Computation Completed

Properties will be evaluated at   0.000000,   0.000000,   0.000000 [a0]

Properties computed using the SCF density matrix

  Nuclear Dipole Moment: [e a0]
     X:    -3.3892      Y:    -3.6071      Z:     9.3675

  Electronic Dipole Moment: [e a0]
     X:     3.4451      Y:     3.7288      Z:    -9.3688

  Dipole Moment: [e a0]
     X:     0.0559      Y:     0.1217      Z:    -0.0013     Total:     0.1339

  Dipole Moment: [D]
     X:     0.1420      Y:     0.3094      Z:    -0.0032     Total:     0.3404

*** tstop() called on ds3 at Tue Apr 28 04:26:53 2020
Module time:
	user time   =      68.18 seconds =       1.14 minutes
	system time =      26.77 seconds =       0.45 minutes
	total time  =        190 seconds =       3.17 minutes
Total time:
	user time   =      68.18 seconds =       1.14 minutes
	system time =      26.77 seconds =       0.45 minutes
	total time  =        190 seconds =       3.17 minutes
                                     G D M A

                                 by Anthony Stone

                           version 2.2.06, 22 June 2011

               Distributed Multipoles from Gaussian wavefunctions

Starting at 4:26:53 on 28 Apr 2020

Using SCF density matrix from file ./SSI/SSI-071PHE-080ILE-1-dimer.test.27519.fchk

                         Distributed Multipole Analysis

Standard DMA

Positions and radii in angstrom
Multipole moments in atomic units, ea_0^k for rank k

C          x =  1.411515  y =  2.625128  z =  0.227088 angstrom
           Maximum rank =  0   Radius =  0.650 angstrom
                   Q00  =  -0.205518

C          x = -0.231485  y = -0.881872  z = -1.586912 angstrom
           Maximum rank =  0   Radius =  0.650 angstrom
                   Q00  =  -0.085659

C          x = -0.593485  y =  0.366128  z = -2.063912 angstrom
           Maximum rank =  0   Radius =  0.650 angstrom
                   Q00  =  -0.081999

C          x =  0.672515  y = -0.964872  z = -0.551912 angstrom
           Maximum rank =  0   Radius =  0.650 angstrom
                   Q00  =   0.014593

C          x = -0.036485  y =  1.528128  z = -1.480912 angstrom
           Maximum rank =  0   Radius =  0.650 angstrom
                   Q00  =  -0.100105

C          x =  1.177515  y =  0.184128  z =  0.045088 angstrom
           Maximum rank =  0   Radius =  0.650 angstrom
                   Q00  =  -0.049253

C          x =  0.823515  y =  1.424128  z = -0.404912 angstrom
           Maximum rank =  0   Radius =  0.650 angstrom
                   Q00  =  -0.082968

H          x = -0.641485  y = -1.776872  z = -2.031912 angstrom
           Maximum rank =  0   Radius =  0.325 angstrom
                   Q00  =   0.060326

H          x = -1.299485  y =  0.438128  z = -2.877912 angstrom
           Maximum rank =  0   Radius =  0.325 angstrom
                   Q00  =   0.066723

H          x =  0.962515  y = -1.937872  z = -0.181912 angstrom
           Maximum rank =  0   Radius =  0.325 angstrom
                   Q00  =   0.060860

H          x = -0.313485  y =  2.502128  z = -1.857912 angstrom
           Maximum rank =  0   Radius =  0.325 angstrom
                   Q00  =   0.059377

H          x =  1.852515  y =  0.094128  z =  0.882088 angstrom
           Maximum rank =  0   Radius =  0.325 angstrom
                   Q00  =   0.050017

H          x =  1.303515  y =  2.554128  z =  1.310088 angstrom
           Maximum rank =  0   Radius =  0.325 angstrom
                   Q00  =   0.098944

H          x =  0.834515  y =  3.491128  z = -0.096912 angstrom
           Maximum rank =  0   Radius =  0.325 angstrom
                   Q00  =   0.094150

H          x =  2.470155  y =  2.777590  z = -0.029882 angstrom
           Maximum rank =  0   Radius =  0.325 angstrom
                   Q00  =   0.104310

C          x = -1.795485  y = -1.928872  z =  1.794088 angstrom
           Maximum rank =  0   Radius =  0.650 angstrom
                   Q00  =  -0.247864

C          x = -1.124485  y = -2.028872  z =  3.183088 angstrom
           Maximum rank =  0   Radius =  0.650 angstrom
                   Q00  =  -0.234013

H          x = -1.403485  y = -1.087872  z =  1.227088 angstrom
           Maximum rank =  0   Radius =  0.325 angstrom
                   Q00  =   0.096603

H          x = -1.595485  y = -2.844872  z =  1.237088 angstrom
           Maximum rank =  0   Radius =  0.325 angstrom
                   Q00  =   0.071396

H          x = -2.873485  y = -1.814872  z =  1.906088 angstrom
           Maximum rank =  0   Radius =  0.325 angstrom
                   Q00  =   0.076764

H          x = -0.051485  y = -2.175872  z =  3.067088 angstrom
           Maximum rank =  0   Radius =  0.325 angstrom
                   Q00  =   0.076485

H          x = -1.540485  y = -2.925872  z =  3.637088 angstrom
           Maximum rank =  0   Radius =  0.325 angstrom
                   Q00  =   0.074525

H          x = -1.319605  y = -1.140796  z =  3.802158 angstrom
           Maximum rank =  0   Radius =  0.325 angstrom
                   Q00  =   0.082306

Total multipoles referred to origin at
           x =   0.000000,  y =    0.000000,  z =    0.000000 angstrom
                   Q00  =  -0.000000

Finished at 4:26:53 on 28 Apr 2020

  DMA results are available in the Python driver through the
	  variable('DMA DISTRIBUTED MULTIPOLES')
  and
	  variable('DMA TOTAL MULTIPOLES')
  commands.

    Psi4 stopped on: Tuesday, 28 April 2020 04:26AM
    Psi4 wall time for execution: 0:03:09.84

*** Psi4 exiting successfully. Buy a developer a beer!
