                               Psi4 1.3.2 release

  ==> Input File <==

--------------------------------------------------------------------------
import numpy as np
set {scf_type pk
basis cc-pvdz
d_convergence 10
gdma_switch   0
gdma_limit    0
gdma_origin   [ 0.0,  0.0,  0.0 ]
}
molecule test {
    units Angstrom
    0 1
    --
    0 1
    C               -1.225858903265139     0.067019084181617     0.136775912022539
    C               -1.925858903265139     1.151019084181617     0.964775912022539
    C               -0.546858903265139    -0.961980915818382     1.044775912022539
    O               -2.187858903265139    -0.606980915818383    -0.671224087977461
    H               -0.478858903265139     0.526019084181617    -0.511224087977461
    H               -2.698858903265138     0.669019084181617     1.564775912022539
    H               -1.278858903265139    -1.396980915818383     1.727775912022539
    H               -0.118858903265139    -1.756980915818383     0.433775912022539
    H                0.254141096734861    -0.508980915818383     1.626775912022539
    H               -2.430858903265138     0.016019084181617    -1.376224087977461
    H               -2.393228903265139     1.909929084181617     0.320085912022539
    H               -1.215788903265139     1.624159084181618     1.658995912022539
    C                2.346141096734861    -0.119980915818383    -0.445224087977461
    C                3.635141096734861     0.487019084181617    -0.911224087977461
    H                1.956141096734861     0.445019084181618     0.399775912022539
    H                1.619141096734861    -0.073980915818383    -1.256224087977461
    H                2.497141096734862    -1.162980915818383    -0.164224087977461
    H                3.491141096734862     1.563019084181617    -1.025224087977461
    H                3.843141096734862     0.065019084181617    -1.895224087977461
    H                4.497591096734862     0.295839084181617    -0.255764087977461

}
e, wfn = energy('scf', return_wfn=True)
gdma(wfn)
dmavals = variable('DMA DISTRIBUTED MULTIPOLES')
charges = np.array(dmavals)
print(charges)
np.save('SSI-018THR-035ILE-1-dimer.npy', np.array(charges))--------------------------------------------------------------------------

*** tstart() called on ds3
*** at Mon Apr 27 23:51:39 2020

   => Loading Basis Set <=

    Name: CC-PVDZ
    Role: ORBITAL
    Keyword: BASIS
    atoms 1-3, 13-14  entry C          line   138 file /theoryfs2/ds/metcalf/miniconda2/envs/tf2gpu/share/psi4/basis/cc-pvdz.gbs
    atoms 4           entry O          line   198 file /theoryfs2/ds/metcalf/miniconda2/envs/tf2gpu/share/psi4/basis/cc-pvdz.gbs
    atoms 5-12, 15-20 entry H          line    22 file /theoryfs2/ds/metcalf/miniconda2/envs/tf2gpu/share/psi4/basis/cc-pvdz.gbs

         ---------------------------------------------------------
                                   SCF
               by Justin Turney, Rob Parrish, Andy Simmonett
                          and Daniel G. A. Smith
                              RHF Reference
                        1 Threads,    500 MiB Core
         ---------------------------------------------------------

  ==> Geometry <==

    Molecular point group: c1
    Full point group: C1

    Geometry (in Angstrom), charge = 0, multiplicity = 1:

       Center              X                  Y                   Z               Mass
    ------------   -----------------  -----------------  -----------------  -----------------
         C           -1.225858903265     0.067019084182     0.136775912023    12.000000000000
         C           -1.925858903265     1.151019084182     0.964775912023    12.000000000000
         C           -0.546858903265    -0.961980915818     1.044775912023    12.000000000000
         O           -2.187858903265    -0.606980915818    -0.671224087977    15.994914619570
         H           -0.478858903265     0.526019084182    -0.511224087977     1.007825032230
         H           -2.698858903265     0.669019084182     1.564775912023     1.007825032230
         H           -1.278858903265    -1.396980915818     1.727775912023     1.007825032230
         H           -0.118858903265    -1.756980915818     0.433775912023     1.007825032230
         H            0.254141096735    -0.508980915818     1.626775912023     1.007825032230
         H           -2.430858903265     0.016019084182    -1.376224087977     1.007825032230
         H           -2.393228903265     1.909929084182     0.320085912023     1.007825032230
         H           -1.215788903265     1.624159084182     1.658995912023     1.007825032230
         C            2.346141096735    -0.119980915818    -0.445224087977    12.000000000000
         C            3.635141096735     0.487019084182    -0.911224087977    12.000000000000
         H            1.956141096735     0.445019084182     0.399775912023     1.007825032230
         H            1.619141096735    -0.073980915818    -1.256224087977     1.007825032230
         H            2.497141096735    -1.162980915818    -0.164224087977     1.007825032230
         H            3.491141096735     1.563019084182    -1.025224087977     1.007825032230
         H            3.843141096735     0.065019084182    -1.895224087977     1.007825032230
         H            4.497591096735     0.295839084182    -0.255764087977     1.007825032230

  Running in c1 symmetry.

  Rotational constants: A =      0.16802  B =      0.03298  C =      0.03231 [cm^-1]
  Rotational constants: A =   5037.20069  B =    988.62755  C =    968.70234 [MHz]
  Nuclear repulsion =  247.941709422696675

  Charge       = 0
  Multiplicity = 1
  Electrons    = 52
  Nalpha       = 26
  Nbeta        = 26

  ==> Algorithm <==

  SCF Algorithm Type is PK.
  DIIS enabled.
  MOM disabled.
  Fractional occupation disabled.
  Guess Type is SAD.
  Energy threshold   = 1.00e-06
  Density threshold  = 1.00e-10
  Integral threshold = 0.00e+00

  ==> Primary Basis <==

  Basis Set: CC-PVDZ
    Blend: CC-PVDZ
    Number of shells: 78
    Number of basis function: 154
    Number of Cartesian functions: 160
    Spherical Harmonics?: true
    Max angular momentum: 2

  ==> Pre-Iterations <==

   -------------------------------------------------------
    Irrep   Nso     Nmo     Nalpha   Nbeta   Ndocc  Nsocc
   -------------------------------------------------------
     A        154     154       0       0       0       0
   -------------------------------------------------------
    Total     154     154      26      26      26       0
   -------------------------------------------------------

  ==> Integral Setup <==

  Using integral reordering PK algorithm.
  Sizing the integral batches needed.
  Building batch lookup table.
   Calculation information:
      Number of atoms:                  20
      Number of AO shells:              78
      Number of primitives:            202
      Number of atomic orbitals:       160
      Number of basis functions:       154

      Integral cutoff                 1.00e-12
      Number of threads:                 1

	Batch   1 pq = [       0,    9405] index = [             0,44231715] size =     44231715
	Batch   2 pq = [    9405,   11935] index = [      44231715,71228080] size =     26996365
  Task number: 7
  Buffer size: 11059200
  Buffer per thread: 2
  We computed 4084292 shell quartets total.
  Whereas there are 4747821 unique shell quartets.

  ==> DiskJK: Disk-Based J/K Matrices <==

    J tasked:                  Yes
    K tasked:                  Yes
    wK tasked:                  No
    Memory [MiB]:              375
    Schwarz Cutoff:          1E-12

    OpenMP threads:              1

  Minimum eigenvalue in the overlap matrix is 4.4194187519E-03.
  Using Symmetric Orthogonalization.

  SCF Guess: Superposition of Atomic Densities via on-the-fly atomic UHF.

  ==> Iterations <==

                        Total Energy        Delta E     RMS |[F,P]|

   @RHF iter SAD:  -271.15951699494542   -2.71160e+02   0.00000e+00
   @RHF iter   1:  -272.13632341137668   -9.76806e-01   3.92622e-03 DIIS
   @RHF iter   2:  -272.32371939688034   -1.87396e-01   1.79256e-03 DIIS
   @RHF iter   3:  -272.35824997410691   -3.45306e-02   3.53216e-04 DIIS
   @RHF iter   4:  -272.36076783861211   -2.51786e-03   1.17943e-04 DIIS
   @RHF iter   5:  -272.36094064023553   -1.72802e-04   2.19253e-05 DIIS
   @RHF iter   6:  -272.36094949936142   -8.85913e-06   4.53646e-06 DIIS
   @RHF iter   7:  -272.36094993503571   -4.35674e-07   1.29406e-06 DIIS
   @RHF iter   8:  -272.36094996812182   -3.30861e-08   3.48806e-07 DIIS
   @RHF iter   9:  -272.36094997180214   -3.68033e-09   8.74851e-08 DIIS
   @RHF iter  10:  -272.36094997204469   -2.42551e-10   2.62954e-08 DIIS
   @RHF iter  11:  -272.36094997206396   -1.92699e-11   7.51438e-09 DIIS
   @RHF iter  12:  -272.36094997206499   -1.02318e-12   2.23833e-09 DIIS
   @RHF iter  13:  -272.36094997206453    4.54747e-13   6.32907e-10 DIIS
   @RHF iter  14:  -272.36094997206504   -5.11591e-13   1.52807e-10 DIIS
   @RHF iter  15:  -272.36094997206516   -1.13687e-13   5.18271e-11 DIIS
  Energy and wave function converged.

  ==> Post-Iterations <==

    Orbital Energies [Eh]
    ---------------------

    Doubly Occupied:

       1A    -20.546766     2A    -11.276546     3A    -11.219523
       4A    -11.217988     5A    -11.217169     6A    -11.214438
       7A     -1.350095     8A     -1.036909     9A     -1.028793
      10A     -0.932184    11A     -0.837500    12A     -0.793615
      13A     -0.693220    14A     -0.612719    15A     -0.607417
      16A     -0.603861    17A     -0.598376    18A     -0.543521
      19A     -0.536311    20A     -0.522434    21A     -0.508754
      22A     -0.505124    23A     -0.486454    24A     -0.481216
      25A     -0.462764    26A     -0.426470

    Virtual:

      27A      0.167405    28A      0.191025    29A      0.208744
      30A      0.223448    31A      0.232131    32A      0.245934
      33A      0.251948    34A      0.260903    35A      0.276520
      36A      0.286795    37A      0.290130    38A      0.312303
      39A      0.324636    40A      0.334313    41A      0.372263
      42A      0.400790    43A      0.412490    44A      0.437850
      45A      0.553636    46A      0.577947    47A      0.598005
      48A      0.606785    49A      0.650578    50A      0.663256
      51A      0.685945    52A      0.688184    53A      0.728840
      54A      0.761200    55A      0.804136    56A      0.808201
      57A      0.830824    58A      0.844405    59A      0.861501
      60A      0.887242    61A      0.890251    62A      0.891041
      63A      0.897640    64A      0.901132    65A      0.906014
      66A      0.915124    67A      0.925053    68A      0.933163
      69A      0.951919    70A      0.970344    71A      0.974084
      72A      0.983768    73A      1.052368    74A      1.132667
      75A      1.136623    76A      1.138394    77A      1.154617
      78A      1.171368    79A      1.254275    80A      1.271769
      81A      1.339335    82A      1.355754    83A      1.425123
      84A      1.467344    85A      1.486336    86A      1.521371
      87A      1.532012    88A      1.588096    89A      1.602400
      90A      1.622522    91A      1.668658    92A      1.679389
      93A      1.681334    94A      1.690333    95A      1.697543
      96A      1.711250    97A      1.835992    98A      1.844680
      99A      1.852276   100A      1.870739   101A      1.887664
     102A      1.894161   103A      1.927767   104A      1.943870
     105A      1.945603   106A      1.955014   107A      1.964058
     108A      1.969015   109A      1.974046   110A      1.991365
     111A      2.012714   112A      2.019047   113A      2.022787
     114A      2.045772   115A      2.079088   116A      2.103095
     117A      2.114959   118A      2.152149   119A      2.164658
     120A      2.222483   121A      2.250311   122A      2.290125
     123A      2.311792   124A      2.322207   125A      2.369756
     126A      2.403991   127A      2.444830   128A      2.451262
     129A      2.471290   130A      2.511228   131A      2.538878
     132A      2.550859   133A      2.572299   134A      2.596437
     135A      2.625219   136A      2.660305   137A      2.744514
     138A      2.769310   139A      2.781477   140A      2.787372
     141A      2.805268   142A      2.828578   143A      2.847464
     144A      2.864944   145A      2.887699   146A      2.917203
     147A      2.952149   148A      2.974604   149A      3.017277
     150A      3.338953   151A      3.409996   152A      3.492719
     153A      3.644224   154A      4.116313

    Final Occupation by Irrep:
              A
    DOCC [    26 ]

  @RHF Final Energy:  -272.36094997206516

   => Energetics <=

    Nuclear Repulsion Energy =            247.9417094226966753
    One-Electron Energy =                -860.0849816136595791
    Two-Electron Energy =                 339.7823222188977184
    Total Energy =                       -272.3609499720651570

Computation Completed

Properties will be evaluated at   0.000000,   0.000000,   0.000000 [a0]

Properties computed using the SCF density matrix

  Nuclear Dipole Moment: [e a0]
     X:     7.0609      Y:     2.0728      Z:     1.1666

  Electronic Dipole Moment: [e a0]
     X:    -6.7875      Y:    -1.4879      Z:    -1.2780

  Dipole Moment: [e a0]
     X:     0.2734      Y:     0.5849      Z:    -0.1114     Total:     0.6552

  Dipole Moment: [D]
     X:     0.6950      Y:     1.4866      Z:    -0.2830     Total:     1.6653

*** tstop() called on ds3 at Mon Apr 27 23:52:30 2020
Module time:
	user time   =      24.20 seconds =       0.40 minutes
	system time =       9.96 seconds =       0.17 minutes
	total time  =         51 seconds =       0.85 minutes
Total time:
	user time   =      24.20 seconds =       0.40 minutes
	system time =       9.96 seconds =       0.17 minutes
	total time  =         51 seconds =       0.85 minutes
                                     G D M A

                                 by Anthony Stone

                           version 2.2.06, 22 June 2011

               Distributed Multipoles from Gaussian wavefunctions

Starting at 23:52:31 on 27 Apr 2020

Using SCF density matrix from file ./SSI/SSI-018THR-035ILE-1-dimer.test.4371.fchk

                         Distributed Multipole Analysis

Standard DMA

Positions and radii in angstrom
Multipole moments in atomic units, ea_0^k for rank k

C          x = -1.225859  y =  0.067019  z =  0.136776 angstrom
           Maximum rank =  0   Radius =  0.650 angstrom
                   Q00  =   0.120836

C          x = -1.925859  y =  1.151019  z =  0.964776 angstrom
           Maximum rank =  0   Radius =  0.650 angstrom
                   Q00  =  -0.251877

C          x = -0.546859  y = -0.961981  z =  1.044776 angstrom
           Maximum rank =  0   Radius =  0.650 angstrom
                   Q00  =  -0.238354

O          x = -2.187859  y = -0.606981  z = -0.671224 angstrom
           Maximum rank =  0   Radius =  0.650 angstrom
                   Q00  =  -0.539923

H          x = -0.478859  y =  0.526019  z = -0.511224 angstrom
           Maximum rank =  0   Radius =  0.325 angstrom
                   Q00  =   0.008626

H          x = -2.698859  y =  0.669019  z =  1.564776 angstrom
           Maximum rank =  0   Radius =  0.325 angstrom
                   Q00  =   0.092628

H          x = -1.278859  y = -1.396981  z =  1.727776 angstrom
           Maximum rank =  0   Radius =  0.325 angstrom
                   Q00  =   0.091398

H          x = -0.118859  y = -1.756981  z =  0.433776 angstrom
           Maximum rank =  0   Radius =  0.325 angstrom
                   Q00  =   0.096965

H          x =  0.254141  y = -0.508981  z =  1.626776 angstrom
           Maximum rank =  0   Radius =  0.325 angstrom
                   Q00  =   0.081534

H          x = -2.430859  y =  0.016019  z = -1.376224 angstrom
           Maximum rank =  0   Radius =  0.325 angstrom
                   Q00  =   0.381513

H          x = -2.393229  y =  1.909929  z =  0.320086 angstrom
           Maximum rank =  0   Radius =  0.325 angstrom
                   Q00  =   0.079489

H          x = -1.215789  y =  1.624159  z =  1.658996 angstrom
           Maximum rank =  0   Radius =  0.325 angstrom
                   Q00  =   0.077370

C          x =  2.346141  y = -0.119981  z = -0.445224 angstrom
           Maximum rank =  0   Radius =  0.650 angstrom
                   Q00  =  -0.229175

C          x =  3.635141  y =  0.487019  z = -0.911224 angstrom
           Maximum rank =  0   Radius =  0.650 angstrom
                   Q00  =  -0.223903

H          x =  1.956141  y =  0.445019  z =  0.399776 angstrom
           Maximum rank =  0   Radius =  0.325 angstrom
                   Q00  =   0.068408

H          x =  1.619141  y = -0.073981  z = -1.256224 angstrom
           Maximum rank =  0   Radius =  0.325 angstrom
                   Q00  =   0.074999

H          x =  2.497141  y = -1.162981  z = -0.164224 angstrom
           Maximum rank =  0   Radius =  0.325 angstrom
                   Q00  =   0.080777

H          x =  3.491141  y =  1.563019  z = -1.025224 angstrom
           Maximum rank =  0   Radius =  0.325 angstrom
                   Q00  =   0.074266

H          x =  3.843141  y =  0.065019  z = -1.895224 angstrom
           Maximum rank =  0   Radius =  0.325 angstrom
                   Q00  =   0.073439

H          x =  4.497591  y =  0.295839  z = -0.255764 angstrom
           Maximum rank =  0   Radius =  0.325 angstrom
                   Q00  =   0.080984

Total multipoles referred to origin at
           x =   0.000000,  y =    0.000000,  z =    0.000000 angstrom
                   Q00  =  -0.000000

Finished at 23:52:31 on 27 Apr 2020

  DMA results are available in the Python driver through the
	  variable('DMA DISTRIBUTED MULTIPOLES')
  and
	  variable('DMA TOTAL MULTIPOLES')
  commands.

    Psi4 stopped on: Monday, 27 April 2020 11:52PM
    Psi4 wall time for execution: 0:00:52.12

*** Psi4 exiting successfully. Buy a developer a beer!
