                               Psi4 1.3.2 release

  ==> Input File <==

--------------------------------------------------------------------------
import numpy as np
set {scf_type pk
basis cc-pvdz
d_convergence 10
gdma_switch   0
gdma_limit    0
gdma_origin   [ 0.0,  0.0,  0.0 ]
}
molecule test {
    units Angstrom
    0 1
    --
    0 1
    C                0.101683655429679     0.751340374491705     2.309631087074414
    C                1.088683655429678     0.296340374491705     3.388631087074414
    C               -1.030316344570321    -0.240659625508295     2.084631087074414
    O               -1.000316344570321    -1.371659625508296     2.567631087074414
    N               -2.042316344570321     0.179340374491705     1.344631087074414
    H               -0.342316344570321     1.697340374491705     2.624631087074414
    H                0.619683655429679     0.929340374491705     1.373631087074414
    H                0.502683655429679     0.079340374491705     4.285631087074414
    H               -2.821316344570322    -0.445659625508295     1.197631087074414
    H               -2.062316344570321     1.124340374491704     0.989631087074414
    H                1.807893655429679     1.100254374491705     3.604168087074414
    H                1.612723655429679    -0.623252625508295     3.089077087074414
    C                0.497683655429679    -0.334659625508295    -1.338368912925586
    C                1.093683655429678    -1.719659625508295    -1.599368912925586
    C                0.473683655429679     0.525340374491705    -2.586368912925586
    O                0.569683655429679     0.025340374491705    -3.703368912925586
    N                0.332683655429679     1.828340374491705    -2.405368912925586
    H               -0.528316344570321    -0.439659625508295    -0.986368912925586
    H                1.086683655429678     0.171340374491705    -0.577368912925586
    H                0.569683655429679    -2.159659625508295    -2.450368912925586
    H                0.275683655429679     2.423340374491704    -3.216368912925586
    H                0.243683655429679     2.209340374491705    -1.476368912925586
    H                0.975743655429679    -2.355479025508295    -0.709523912925586
    H                2.154583655429679    -1.643055225508295    -1.879769912925586

}
e, wfn = energy('scf', return_wfn=True)
gdma(wfn)
dmavals = variable('DMA DISTRIBUTED MULTIPOLES')
charges = np.array(dmavals)
print(charges)
np.save('SSI-234ASN-237ASN-1-dimer.npy', np.array(charges))--------------------------------------------------------------------------

*** tstart() called on ds3
*** at Mon Apr 27 16:45:39 2020

   => Loading Basis Set <=

    Name: CC-PVDZ
    Role: ORBITAL
    Keyword: BASIS
    atoms 1-3, 13-15  entry C          line   138 file /theoryfs2/ds/metcalf/miniconda2/envs/tf2gpu/share/psi4/basis/cc-pvdz.gbs
    atoms 4, 16       entry O          line   198 file /theoryfs2/ds/metcalf/miniconda2/envs/tf2gpu/share/psi4/basis/cc-pvdz.gbs
    atoms 5, 17       entry N          line   168 file /theoryfs2/ds/metcalf/miniconda2/envs/tf2gpu/share/psi4/basis/cc-pvdz.gbs
    atoms 6-12, 18-24 entry H          line    22 file /theoryfs2/ds/metcalf/miniconda2/envs/tf2gpu/share/psi4/basis/cc-pvdz.gbs

         ---------------------------------------------------------
                                   SCF
               by Justin Turney, Rob Parrish, Andy Simmonett
                          and Daniel G. A. Smith
                              RHF Reference
                        1 Threads,    500 MiB Core
         ---------------------------------------------------------

  ==> Geometry <==

    Molecular point group: c1
    Full point group: C1

    Geometry (in Angstrom), charge = 0, multiplicity = 1:

       Center              X                  Y                   Z               Mass
    ------------   -----------------  -----------------  -----------------  -----------------
         C            0.101683655430     0.751340374492     2.309631087074    12.000000000000
         C            1.088683655430     0.296340374492     3.388631087074    12.000000000000
         C           -1.030316344570    -0.240659625508     2.084631087074    12.000000000000
         O           -1.000316344570    -1.371659625508     2.567631087074    15.994914619570
         N           -2.042316344570     0.179340374492     1.344631087074    14.003074004430
         H           -0.342316344570     1.697340374492     2.624631087074     1.007825032230
         H            0.619683655430     0.929340374492     1.373631087074     1.007825032230
         H            0.502683655430     0.079340374492     4.285631087074     1.007825032230
         H           -2.821316344570    -0.445659625508     1.197631087074     1.007825032230
         H           -2.062316344570     1.124340374492     0.989631087074     1.007825032230
         H            1.807893655430     1.100254374492     3.604168087074     1.007825032230
         H            1.612723655430    -0.623252625508     3.089077087074     1.007825032230
         C            0.497683655430    -0.334659625508    -1.338368912926    12.000000000000
         C            1.093683655430    -1.719659625508    -1.599368912926    12.000000000000
         C            0.473683655430     0.525340374492    -2.586368912926    12.000000000000
         O            0.569683655430     0.025340374492    -3.703368912926    15.994914619570
         N            0.332683655430     1.828340374492    -2.405368912926    14.003074004430
         H           -0.528316344570    -0.439659625508    -0.986368912926     1.007825032230
         H            1.086683655430     0.171340374492    -0.577368912926     1.007825032230
         H            0.569683655430    -2.159659625508    -2.450368912926     1.007825032230
         H            0.275683655430     2.423340374492    -3.216368912926     1.007825032230
         H            0.243683655430     2.209340374492    -1.476368912926     1.007825032230
         H            0.975743655430    -2.355479025508    -0.709523912926     1.007825032230
         H            2.154583655430    -1.643055225508    -1.879769912926     1.007825032230

  Running in c1 symmetry.

  Rotational constants: A =      0.06034  B =      0.01602  C =      0.01561 [cm^-1]
  Rotational constants: A =   1808.84990  B =    480.13835  C =    468.00200 [MHz]
  Nuclear repulsion =  528.520015899223381

  Charge       = 0
  Multiplicity = 1
  Electrons    = 80
  Nalpha       = 40
  Nbeta        = 40

  ==> Algorithm <==

  SCF Algorithm Type is PK.
  DIIS enabled.
  MOM disabled.
  Fractional occupation disabled.
  Guess Type is SAD.
  Energy threshold   = 1.00e-06
  Density threshold  = 1.00e-10
  Integral threshold = 0.00e+00

  ==> Primary Basis <==

  Basis Set: CC-PVDZ
    Blend: CC-PVDZ
    Number of shells: 102
    Number of basis function: 210
    Number of Cartesian functions: 220
    Spherical Harmonics?: true
    Max angular momentum: 2

  ==> Pre-Iterations <==

   -------------------------------------------------------
    Irrep   Nso     Nmo     Nalpha   Nbeta   Ndocc  Nsocc
   -------------------------------------------------------
     A        210     210       0       0       0       0
   -------------------------------------------------------
    Total     210     210      40      40      40       0
   -------------------------------------------------------

  ==> Integral Setup <==

  Using integral reordering PK algorithm.
  Sizing the integral batches needed.
  Building batch lookup table.
   Calculation information:
      Number of atoms:                  24
      Number of AO shells:             102
      Number of primitives:            290
      Number of atomic orbitals:       220
      Number of basis functions:       210

      Integral cutoff                 1.00e-12
      Number of threads:                 1

	Batch   1 pq = [       0,    9405] index = [             0,44231715] size =     44231715
	Batch   2 pq = [    9405,   13301] index = [      44231715,88464951] size =     44233236
	Batch   3 pq = [   13301,   16290] index = [      88464951,132690195] size =     44225244
	Batch   4 pq = [   16290,   18810] index = [     132690195,176917455] size =     44227260
	Batch   5 pq = [   18810,   21030] index = [     176917455,221140965] size =     44223510
	Batch   6 pq = [   21030,   22155] index = [     221140965,245433090] size =     24292125
  Task number: 23
  Buffer size: 11059200
  Buffer per thread: 2
  We computed 11739233 shell quartets total.
  Whereas there are 13799631 unique shell quartets.

  ==> DiskJK: Disk-Based J/K Matrices <==

    J tasked:                  Yes
    K tasked:                  Yes
    wK tasked:                  No
    Memory [MiB]:              375
    Schwarz Cutoff:          1E-12

    OpenMP threads:              1

  Minimum eigenvalue in the overlap matrix is 2.9247828620E-03.
  Using Symmetric Orthogonalization.

  SCF Guess: Superposition of Atomic Densities via on-the-fly atomic UHF.

  ==> Iterations <==

                        Total Energy        Delta E     RMS |[F,P]|

   @RHF iter SAD:  -492.55517588614339   -4.92555e+02   0.00000e+00
   @RHF iter   1:  -493.70219439634752   -1.14702e+00   3.90104e-03 DIIS
   @RHF iter   2:  -493.96304724005694   -2.60853e-01   2.34425e-03 DIIS
   @RHF iter   3:  -494.05374752176732   -9.07003e-02   4.66075e-04 DIIS
   @RHF iter   4:  -494.05937471169182   -5.62719e-03   1.78467e-04 DIIS
   @RHF iter   5:  -494.06032592612036   -9.51214e-04   2.97752e-05 DIIS
   @RHF iter   6:  -494.06038434921777   -5.84231e-05   1.29535e-05 DIIS
   @RHF iter   7:  -494.06039260922978   -8.26001e-06   5.51179e-06 DIIS
   @RHF iter   8:  -494.06039434131469   -1.73208e-06   2.06433e-06 DIIS
   @RHF iter   9:  -494.06039459286308   -2.51548e-07   6.78677e-07 DIIS
   @RHF iter  10:  -494.06039460996351   -1.71004e-08   2.51011e-07 DIIS
   @RHF iter  11:  -494.06039461229261   -2.32910e-09   5.47479e-08 DIIS
   @RHF iter  12:  -494.06039461241971   -1.27102e-10   1.81190e-08 DIIS
   @RHF iter  13:  -494.06039461243540   -1.56888e-11   4.13928e-09 DIIS
   @RHF iter  14:  -494.06039461243057    4.83169e-12   1.33687e-09 DIIS
   @RHF iter  15:  -494.06039461243483   -4.26326e-12   4.98675e-10 DIIS
   @RHF iter  16:  -494.06039461243245    2.38742e-12   2.06394e-10 DIIS
   @RHF iter  17:  -494.06039461243222    2.27374e-13   7.52996e-11 DIIS
  Energy and wave function converged.

  ==> Post-Iterations <==

    Orbital Energies [Eh]
    ---------------------

    Doubly Occupied:

       1A    -20.515263     2A    -20.507334     3A    -15.599321
       4A    -15.593078     5A    -11.354239     6A    -11.346026
       7A    -11.251439     8A    -11.240630     9A    -11.230975
      10A    -11.219277    11A     -1.377991    12A     -1.372381
      13A     -1.228308    14A     -1.222573    15A     -1.055824
      16A     -1.046674    17A     -0.896694    18A     -0.887748
      19A     -0.794934    20A     -0.787503    21A     -0.734154
      22A     -0.728363    23A     -0.674663    24A     -0.669304
      25A     -0.644784    26A     -0.636875    27A     -0.595649
      28A     -0.589036    29A     -0.558385    30A     -0.552520
      31A     -0.528747    32A     -0.516890    33A     -0.516016
      34A     -0.506083    35A     -0.500499    36A     -0.486856
      37A     -0.419396    38A     -0.414580    39A     -0.410348
      40A     -0.408595

    Virtual:

      41A      0.129615    42A      0.172988    43A      0.179141
      44A      0.189354    45A      0.201161    46A      0.215101
      47A      0.218460    48A      0.241575    49A      0.248176
      50A      0.257259    51A      0.263563    52A      0.267226
      53A      0.274868    54A      0.294931    55A      0.309615
      56A      0.346431    57A      0.373497    58A      0.388414
      59A      0.399215    60A      0.430350    61A      0.468269
      62A      0.477927    63A      0.529862    64A      0.563041
      65A      0.596497    66A      0.603621    67A      0.614472
      68A      0.628030    69A      0.654657    70A      0.664541
      71A      0.686171    72A      0.694255    73A      0.709965
      74A      0.733455    75A      0.743401    76A      0.791438
      77A      0.799999    78A      0.815679    79A      0.832764
      80A      0.847149    81A      0.855491    82A      0.861238
      83A      0.871368    84A      0.882865    85A      0.887733
      86A      0.891622    87A      0.899769    88A      0.902947
      89A      0.907599    90A      0.917853    91A      0.922624
      92A      0.929899    93A      0.939738    94A      0.950659
      95A      0.961437    96A      0.984884    97A      1.009407
      98A      1.016311    99A      1.052655   100A      1.059928
     101A      1.082210   102A      1.104958   103A      1.110778
     104A      1.113657   105A      1.131253   106A      1.153745
     107A      1.280214   108A      1.286808   109A      1.303624
     110A      1.324532   111A      1.330446   112A      1.342502
     113A      1.370027   114A      1.391152   115A      1.399310
     116A      1.410802   117A      1.413826   118A      1.418798
     119A      1.468382   120A      1.471814   121A      1.490702
     122A      1.501894   123A      1.606026   124A      1.623736
     125A      1.647929   126A      1.673770   127A      1.679833
     128A      1.691641   129A      1.721642   130A      1.737564
     131A      1.759896   132A      1.765512   133A      1.789833
     134A      1.802563   135A      1.835064   136A      1.859476
     137A      1.866949   138A      1.878121   139A      1.886483
     140A      1.894843   141A      1.908641   142A      1.916750
     143A      1.935162   144A      1.940016   145A      1.947814
     146A      1.951921   147A      1.975223   148A      1.983187
     149A      1.991453   150A      1.996820   151A      2.005857
     152A      2.010687   153A      2.030627   154A      2.046712
     155A      2.053471   156A      2.057423   157A      2.119817
     158A      2.132693   159A      2.164203   160A      2.198028
     161A      2.215076   162A      2.235230   163A      2.269888
     164A      2.285563   165A      2.316213   166A      2.324776
     167A      2.353428   168A      2.374792   169A      2.415973
     170A      2.427131   171A      2.471479   172A      2.484585
     173A      2.526893   174A      2.542855   175A      2.545792
     176A      2.549881   177A      2.562766   178A      2.576120
     179A      2.604525   180A      2.614325   181A      2.615919
     182A      2.632249   183A      2.726903   184A      2.735218
     185A      2.761380   186A      2.775959   187A      2.815298
     188A      2.836931   189A      2.871553   190A      2.878327
     191A      2.893562   192A      2.904054   193A      2.947893
     194A      2.977594   195A      3.011297   196A      3.023626
     197A      3.091895   198A      3.099837   199A      3.144706
     200A      3.154420   201A      3.291643   202A      3.306061
     203A      3.504068   204A      3.514282   205A      3.519236
     206A      3.535433   207A      3.853862   208A      3.865116
     209A      3.896565   210A      3.904680

    Final Occupation by Irrep:
              A
    DOCC [    40 ]

  @RHF Final Energy:  -494.06039461243222

   => Energetics <=

    Nuclear Repulsion Energy =            528.5200158992233810
    One-Electron Energy =               -1721.9209078291960395
    Two-Electron Energy =                 699.3404973175404393
    Total Energy =                       -494.0603946124322192

Computation Completed

Properties will be evaluated at   0.000000,   0.000000,   0.000000 [a0]

Properties computed using the SCF density matrix

  Nuclear Dipole Moment: [e a0]
     X:     3.8416      Y:     1.9263      Z:     5.4989

  Electronic Dipole Moment: [e a0]
     X:    -4.4091      Y:     0.3386      Z:    -4.8485

  Dipole Moment: [e a0]
     X:    -0.5675      Y:     2.2649      Z:     0.6504     Total:     2.4238

  Dipole Moment: [D]
     X:    -1.4425      Y:     5.7568      Z:     1.6532     Total:     6.1607

*** tstop() called on ds3 at Mon Apr 27 16:47:50 2020
Module time:
	user time   =      93.93 seconds =       1.57 minutes
	system time =      43.97 seconds =       0.73 minutes
	total time  =        131 seconds =       2.18 minutes
Total time:
	user time   =      93.93 seconds =       1.57 minutes
	system time =      43.97 seconds =       0.73 minutes
	total time  =        131 seconds =       2.18 minutes
                                     G D M A

                                 by Anthony Stone

                           version 2.2.06, 22 June 2011

               Distributed Multipoles from Gaussian wavefunctions

Starting at 16:47:51 on 27 Apr 2020

Using SCF density matrix from file ./SSI/SSI-234ASN-237ASN-1-dimer.test.27959.fchk

                         Distributed Multipole Analysis

Standard DMA

Positions and radii in angstrom
Multipole moments in atomic units, ea_0^k for rank k

C          x =  0.101684  y =  0.751340  z =  2.309631 angstrom
           Maximum rank =  0   Radius =  0.650 angstrom
                   Q00  =  -0.188274

C          x =  1.088684  y =  0.296340  z =  3.388631 angstrom
           Maximum rank =  0   Radius =  0.650 angstrom
                   Q00  =  -0.205335

C          x = -1.030316  y = -0.240660  z =  2.084631 angstrom
           Maximum rank =  0   Radius =  0.650 angstrom
                   Q00  =   0.877469

O          x = -1.000316  y = -1.371660  z =  2.567631 angstrom
           Maximum rank =  0   Radius =  0.650 angstrom
                   Q00  =  -0.813971

N          x = -2.042316  y =  0.179340  z =  1.344631 angstrom
           Maximum rank =  0   Radius =  0.650 angstrom
                   Q00  =  -0.550978

H          x = -0.342316  y =  1.697340  z =  2.624631 angstrom
           Maximum rank =  0   Radius =  0.325 angstrom
                   Q00  =   0.072328

H          x =  0.619684  y =  0.929340  z =  1.373631 angstrom
           Maximum rank =  0   Radius =  0.325 angstrom
                   Q00  =   0.092778

H          x =  0.502684  y =  0.079340  z =  4.285631 angstrom
           Maximum rank =  0   Radius =  0.325 angstrom
                   Q00  =   0.103300

H          x = -2.821316  y = -0.445660  z =  1.197631 angstrom
           Maximum rank =  0   Radius =  0.325 angstrom
                   Q00  =   0.224341

H          x = -2.062316  y =  1.124340  z =  0.989631 angstrom
           Maximum rank =  0   Radius =  0.325 angstrom
                   Q00  =   0.203434

H          x =  1.807894  y =  1.100254  z =  3.604168 angstrom
           Maximum rank =  0   Radius =  0.325 angstrom
                   Q00  =   0.079794

H          x =  1.612724  y = -0.623253  z =  3.089077 angstrom
           Maximum rank =  0   Radius =  0.325 angstrom
                   Q00  =   0.108135

C          x =  0.497684  y = -0.334660  z = -1.338369 angstrom
           Maximum rank =  0   Radius =  0.650 angstrom
                   Q00  =  -0.181123

C          x =  1.093684  y = -1.719660  z = -1.599369 angstrom
           Maximum rank =  0   Radius =  0.650 angstrom
                   Q00  =  -0.202084

C          x =  0.473684  y =  0.525340  z = -2.586369 angstrom
           Maximum rank =  0   Radius =  0.650 angstrom
                   Q00  =   0.873726

O          x =  0.569684  y =  0.025340  z = -3.703369 angstrom
           Maximum rank =  0   Radius =  0.650 angstrom
                   Q00  =  -0.812389

N          x =  0.332684  y =  1.828340  z = -2.405369 angstrom
           Maximum rank =  0   Radius =  0.650 angstrom
                   Q00  =  -0.549148

H          x = -0.528316  y = -0.439660  z = -0.986369 angstrom
           Maximum rank =  0   Radius =  0.325 angstrom
                   Q00  =   0.104274

H          x =  1.086684  y =  0.171340  z = -0.577369 angstrom
           Maximum rank =  0   Radius =  0.325 angstrom
                   Q00  =   0.054503

H          x =  0.569684  y = -2.159660  z = -2.450369 angstrom
           Maximum rank =  0   Radius =  0.325 angstrom
                   Q00  =   0.113648

H          x =  0.275684  y =  2.423340  z = -3.216369 angstrom
           Maximum rank =  0   Radius =  0.325 angstrom
                   Q00  =   0.218723

H          x =  0.243684  y =  2.209340  z = -1.476369 angstrom
           Maximum rank =  0   Radius =  0.325 angstrom
                   Q00  =   0.198299

H          x =  0.975744  y = -2.355479  z = -0.709524 angstrom
           Maximum rank =  0   Radius =  0.325 angstrom
                   Q00  =   0.088928

H          x =  2.154584  y = -1.643055  z = -1.879770 angstrom
           Maximum rank =  0   Radius =  0.325 angstrom
                   Q00  =   0.089623

Total multipoles referred to origin at
           x =   0.000000,  y =    0.000000,  z =    0.000000 angstrom
                   Q00  =  -0.000000

Finished at 16:47:51 on 27 Apr 2020

  DMA results are available in the Python driver through the
	  variable('DMA DISTRIBUTED MULTIPOLES')
  and
	  variable('DMA TOTAL MULTIPOLES')
  commands.

    Psi4 stopped on: Monday, 27 April 2020 04:47PM
    Psi4 wall time for execution: 0:02:11.83

*** Psi4 exiting successfully. Buy a developer a beer!
