                               Psi4 1.3.2 release

  ==> Input File <==

--------------------------------------------------------------------------
import numpy as np
set {scf_type pk
basis cc-pvdz
d_convergence 10
gdma_switch   0
gdma_limit    0
gdma_origin   [ 0.0,  0.0,  0.0 ]
}
molecule test {
    units Angstrom
    0 1
    --
    0 1
    C                1.843933040661018     2.534316674936639    -0.137030896119779
    C                0.116933040661018     0.690316674936639     0.632969103880221
    C                1.430933040661018     1.129316674936639     0.234969103880221
    C                0.195933040661018    -0.698683325063361     0.900969103880221
    C                2.220933040661018     0.023316674936639     0.270969103880221
    C               -1.118066959338982     1.333316674936639     0.787969103880221
    C               -0.903066959338982    -1.443683325063361     1.302969103880220
    C               -2.218066959338982     0.587316674936639     1.197969103880221
    C               -2.108066959338982    -0.788683325063361     1.447969103880220
    N                1.491933040661018    -1.070683325063361     0.669969103880221
    H               -1.208066959338982     2.393316674936639     0.595969103880221
    H                0.982933040661018     3.059316674936639    -0.550030896119779
    H                2.600933040661018     2.475316674936639    -0.917030896119779
    H                3.272933040661018     0.017316674936639     0.035969103880221
    H                1.857933040661018    -2.016683325063361     0.763969103880221
    H               -0.819066959338982    -2.506683325063361     1.464969103880220
    H               -3.177066959338982     1.074316674936640     1.322969103880221
    H               -2.983066959338982    -1.345683325063361     1.757969103880221
    H                2.236653040661018     3.111544674936639     0.713019103880221
    C               -0.536066959338982    -0.495683325063361    -2.622030896119779
    C               -0.608066959338982    -1.609683325063361    -3.660030896119780
    H               -1.356066959338982     0.206316674936639    -2.752030896119779
    H               -0.616066959338982    -0.934683325063361    -1.633030896119779
    H                0.409933040661018     0.038316674936639    -2.694030896119779
    H               -1.611066959338982    -2.037683325063361    -3.635030896119780
    H                0.088933040661018    -2.381683325063361    -3.353030896119779
    H               -0.373166959338982    -1.296479325063361    -4.688000896119779

}
e, wfn = energy('scf', return_wfn=True)
gdma(wfn)
dmavals = variable('DMA DISTRIBUTED MULTIPOLES')
charges = np.array(dmavals)
print(charges)
np.save('SSI-080TRP-095ILE-1-dimer.npy', np.array(charges))--------------------------------------------------------------------------

*** tstart() called on ds3
*** at Sun Apr 26 20:43:57 2020

   => Loading Basis Set <=

    Name: CC-PVDZ
    Role: ORBITAL
    Keyword: BASIS
    atoms 1-9, 20-21   entry C          line   138 file /theoryfs2/ds/metcalf/miniconda2/envs/tf2gpu/share/psi4/basis/cc-pvdz.gbs
    atoms 10           entry N          line   168 file /theoryfs2/ds/metcalf/miniconda2/envs/tf2gpu/share/psi4/basis/cc-pvdz.gbs
    atoms 11-19, 22-27 entry H          line    22 file /theoryfs2/ds/metcalf/miniconda2/envs/tf2gpu/share/psi4/basis/cc-pvdz.gbs

         ---------------------------------------------------------
                                   SCF
               by Justin Turney, Rob Parrish, Andy Simmonett
                          and Daniel G. A. Smith
                              RHF Reference
                        1 Threads,    500 MiB Core
         ---------------------------------------------------------

  ==> Geometry <==

    Molecular point group: c1
    Full point group: C1

    Geometry (in Angstrom), charge = 0, multiplicity = 1:

       Center              X                  Y                   Z               Mass
    ------------   -----------------  -----------------  -----------------  -----------------
         C            1.843933040661     2.534316674937    -0.137030896120    12.000000000000
         C            0.116933040661     0.690316674937     0.632969103880    12.000000000000
         C            1.430933040661     1.129316674937     0.234969103880    12.000000000000
         C            0.195933040661    -0.698683325063     0.900969103880    12.000000000000
         C            2.220933040661     0.023316674937     0.270969103880    12.000000000000
         C           -1.118066959339     1.333316674937     0.787969103880    12.000000000000
         C           -0.903066959339    -1.443683325063     1.302969103880    12.000000000000
         C           -2.218066959339     0.587316674937     1.197969103880    12.000000000000
         C           -2.108066959339    -0.788683325063     1.447969103880    12.000000000000
         N            1.491933040661    -1.070683325063     0.669969103880    14.003074004430
         H           -1.208066959339     2.393316674937     0.595969103880     1.007825032230
         H            0.982933040661     3.059316674937    -0.550030896120     1.007825032230
         H            2.600933040661     2.475316674937    -0.917030896120     1.007825032230
         H            3.272933040661     0.017316674937     0.035969103880     1.007825032230
         H            1.857933040661    -2.016683325063     0.763969103880     1.007825032230
         H           -0.819066959339    -2.506683325063     1.464969103880     1.007825032230
         H           -3.177066959339     1.074316674937     1.322969103880     1.007825032230
         H           -2.983066959339    -1.345683325063     1.757969103880     1.007825032230
         H            2.236653040661     3.111544674937     0.713019103880     1.007825032230
         C           -0.536066959339    -0.495683325063    -2.622030896120    12.000000000000
         C           -0.608066959339    -1.609683325063    -3.660030896120    12.000000000000
         H           -1.356066959339     0.206316674937    -2.752030896120     1.007825032230
         H           -0.616066959339    -0.934683325063    -1.633030896120     1.007825032230
         H            0.409933040661     0.038316674937    -2.694030896120     1.007825032230
         H           -1.611066959339    -2.037683325063    -3.635030896120     1.007825032230
         H            0.088933040661    -2.381683325063    -3.353030896120     1.007825032230
         H           -0.373166959339    -1.296479325063    -4.688000896120     1.007825032230

  Running in c1 symmetry.

  Rotational constants: A =      0.02857  B =      0.02661  C =      0.01995 [cm^-1]
  Rotational constants: A =    856.65247  B =    797.70414  C =    598.16831 [MHz]
  Nuclear repulsion =  673.002327276733467

  Charge       = 0
  Multiplicity = 1
  Electrons    = 88
  Nalpha       = 44
  Nbeta        = 44

  ==> Algorithm <==

  SCF Algorithm Type is PK.
  DIIS enabled.
  MOM disabled.
  Fractional occupation disabled.
  Guess Type is SAD.
  Energy threshold   = 1.00e-06
  Density threshold  = 1.00e-10
  Integral threshold = 0.00e+00

  ==> Primary Basis <==

  Basis Set: CC-PVDZ
    Blend: CC-PVDZ
    Number of shells: 117
    Number of basis function: 243
    Number of Cartesian functions: 255
    Spherical Harmonics?: true
    Max angular momentum: 2

  ==> Pre-Iterations <==

   -------------------------------------------------------
    Irrep   Nso     Nmo     Nalpha   Nbeta   Ndocc  Nsocc
   -------------------------------------------------------
     A        243     243       0       0       0       0
   -------------------------------------------------------
    Total     243     243      44      44      44       0
   -------------------------------------------------------

  ==> Integral Setup <==

  Using integral reordering PK algorithm.
  Sizing the integral batches needed.
  Building batch lookup table.
   Calculation information:
      Number of atoms:                  27
      Number of AO shells:             117
      Number of primitives:            339
      Number of atomic orbitals:       255
      Number of basis functions:       243

      Integral cutoff                 1.00e-12
      Number of threads:                 1

	Batch   1 pq = [       0,    9405] index = [             0,44231715] size =     44231715
	Batch   2 pq = [    9405,   13301] index = [      44231715,88464951] size =     44233236
	Batch   3 pq = [   13301,   16290] index = [      88464951,132690195] size =     44225244
	Batch   4 pq = [   16290,   18810] index = [     132690195,176917455] size =     44227260
	Batch   5 pq = [   18810,   21030] index = [     176917455,221140965] size =     44223510
	Batch   6 pq = [   21030,   23037] index = [     221140965,265363203] size =     44222238
	Batch   7 pq = [   23037,   24883] index = [     265363203,309594286] size =     44231083
	Batch   8 pq = [   24883,   26601] index = [     309594286,353819901] size =     44225615
	Batch   9 pq = [   26601,   28214] index = [     353819901,398029005] size =     44209104
	Batch  10 pq = [   28214,   29646] index = [     398029005,439457481] size =     41428476
  Task number: 40
  Buffer size: 11059200
  Buffer per thread: 2
  We computed 25218442 shell quartets total.
  Whereas there are 23829156 unique shell quartets.
     5.83 percent of shell quartets recomputed by reordering.

  ==> DiskJK: Disk-Based J/K Matrices <==

    J tasked:                  Yes
    K tasked:                  Yes
    wK tasked:                  No
    Memory [MiB]:              375
    Schwarz Cutoff:          1E-12

    OpenMP threads:              1

  Minimum eigenvalue in the overlap matrix is 2.3619592760E-04.
  Using Symmetric Orthogonalization.

  SCF Guess: Superposition of Atomic Densities via on-the-fly atomic UHF.

  ==> Iterations <==

                        Total Energy        Delta E     RMS |[F,P]|

   @RHF iter SAD:  -479.06823371095015   -4.79068e+02   0.00000e+00
   @RHF iter   1:  -479.48748531489582   -4.19252e-01   2.60973e-03 DIIS
   @RHF iter   2:  -479.72058243289541   -2.33097e-01   1.15266e-03 DIIS
   @RHF iter   3:  -479.76204148678539   -4.14591e-02   3.01450e-04 DIIS
   @RHF iter   4:  -479.76578319770744   -3.74171e-03   1.39949e-04 DIIS
   @RHF iter   5:  -479.76643618691696   -6.52989e-04   2.00041e-05 DIIS
   @RHF iter   6:  -479.76646495699981   -2.87701e-05   9.14316e-06 DIIS
   @RHF iter   7:  -479.76647072185739   -5.76486e-06   3.75055e-06 DIIS
   @RHF iter   8:  -479.76647234271212   -1.62085e-06   1.48403e-06 DIIS
   @RHF iter   9:  -479.76647266603817   -3.23326e-07   6.60416e-07 DIIS
   @RHF iter  10:  -479.76647273057972   -6.45416e-08   2.99254e-07 DIIS
   @RHF iter  11:  -479.76647274623167   -1.56519e-08   1.13849e-07 DIIS
   @RHF iter  12:  -479.76647274847903   -2.24736e-09   3.67407e-08 DIIS
   @RHF iter  13:  -479.76647274863348   -1.54444e-10   9.87740e-09 DIIS
   @RHF iter  14:  -479.76647274863871   -5.22959e-12   4.11302e-09 DIIS
   @RHF iter  15:  -479.76647274864877   -1.00613e-11   2.10059e-09 DIIS
   @RHF iter  16:  -479.76647274864320    5.57066e-12   8.95115e-10 DIIS
   @RHF iter  17:  -479.76647274864342   -2.27374e-13   3.97289e-10 DIIS
   @RHF iter  18:  -479.76647274865172   -8.29914e-12   1.56427e-10 DIIS
   @RHF iter  19:  -479.76647274864052    1.11982e-11   5.16666e-11 DIIS
  Energy and wave function converged.

  ==> Post-Iterations <==

    Orbital Energies [Eh]
    ---------------------

    Doubly Occupied:

       1A    -15.602392     2A    -11.263258     3A    -11.262531
       4A    -11.230768     5A    -11.230022     6A    -11.228749
       7A    -11.228032     8A    -11.221393     9A    -11.220139
      10A    -11.218380    11A    -11.206891    12A    -11.198372
      13A     -1.296223    14A     -1.129372    15A     -1.072134
      16A     -1.007193    17A     -0.997496    18A     -0.987699
      19A     -0.931962    20A     -0.839953    21A     -0.825197
      22A     -0.803475    23A     -0.753739    24A     -0.720184
      25A     -0.662778    26A     -0.642653    27A     -0.603117
      28A     -0.596422    29A     -0.590483    30A     -0.586090
      31A     -0.583380    32A     -0.567995    33A     -0.553268
      34A     -0.536862    35A     -0.527325    36A     -0.494784
      37A     -0.489812    38A     -0.474445    39A     -0.471746
      40A     -0.470891    41A     -0.459492    42A     -0.373554
      43A     -0.295010    44A     -0.276009

    Virtual:

      45A      0.125667    46A      0.169843    47A      0.174828
      48A      0.184066    49A      0.202272    50A      0.203923
      51A      0.220407    52A      0.229770    53A      0.232256
      54A      0.257762    55A      0.258609    56A      0.266758
      57A      0.269564    58A      0.271532    59A      0.292312
      60A      0.303201    61A      0.307820    62A      0.319582
      63A      0.372452    64A      0.384461    65A      0.405239
      66A      0.406092    67A      0.422804    68A      0.444013
      69A      0.469327    70A      0.481793    71A      0.504732
      72A      0.513562    73A      0.581227    74A      0.593557
      75A      0.599991    76A      0.608199    77A      0.631187
      78A      0.635691    79A      0.644166    80A      0.665572
      81A      0.679896    82A      0.684782    83A      0.700186
      84A      0.714012    85A      0.729199    86A      0.733917
      87A      0.739692    88A      0.750201    89A      0.759502
      90A      0.764134    91A      0.764827    92A      0.778601
      93A      0.787082    94A      0.810165    95A      0.830117
      96A      0.842298    97A      0.863568    98A      0.871016
      99A      0.878060   100A      0.887982   101A      0.891824
     102A      0.900069   103A      0.905956   104A      0.908910
     105A      0.916182   106A      0.931357   107A      0.932216
     108A      0.944023   109A      0.947874   110A      0.957215
     111A      0.968986   112A      0.984035   113A      0.984635
     114A      0.996832   115A      1.013017   116A      1.051336
     117A      1.056722   118A      1.087279   119A      1.093343
     120A      1.134339   121A      1.136400   122A      1.142347
     123A      1.149947   124A      1.161066   125A      1.164052
     126A      1.181037   127A      1.213465   128A      1.219301
     129A      1.228036   130A      1.240805   131A      1.248703
     132A      1.278685   133A      1.287371   134A      1.298241
     135A      1.311814   136A      1.330518   137A      1.338440
     138A      1.362787   139A      1.370832   140A      1.430276
     141A      1.445388   142A      1.473519   143A      1.500789
     144A      1.520348   145A      1.554907   146A      1.565862
     147A      1.598154   148A      1.605633   149A      1.629374
     150A      1.642718   151A      1.656962   152A      1.692865
     153A      1.698361   154A      1.704561   155A      1.721801
     156A      1.747312   157A      1.764766   158A      1.765980
     159A      1.784592   160A      1.816732   161A      1.824765
     162A      1.839748   163A      1.873249   164A      1.879156
     165A      1.891848   166A      1.896194   167A      1.905743
     168A      1.908797   169A      1.917750   170A      1.925523
     171A      1.943371   172A      1.946311   173A      1.953193
     174A      1.961481   175A      1.969743   176A      1.974533
     177A      1.979793   178A      1.984692   179A      2.002726
     180A      2.010167   181A      2.019809   182A      2.033142
     183A      2.053586   184A      2.079066   185A      2.085849
     186A      2.094246   187A      2.100407   188A      2.114205
     189A      2.118141   190A      2.124004   191A      2.146067
     192A      2.151920   193A      2.173397   194A      2.181298
     195A      2.189270   196A      2.231066   197A      2.268161
     198A      2.283822   199A      2.303137   200A      2.312412
     201A      2.323596   202A      2.335454   203A      2.348493
     204A      2.364096   205A      2.399944   206A      2.405710
     207A      2.450668   208A      2.462994   209A      2.479761
     210A      2.487401   211A      2.552316   212A      2.572304
     213A      2.596529   214A      2.608969   215A      2.628738
     216A      2.638699   217A      2.671750   218A      2.686434
     219A      2.718282   220A      2.770697   221A      2.771682
     222A      2.783200   223A      2.786494   224A      2.801727
     225A      2.825379   226A      2.837737   227A      2.849112
     228A      2.871148   229A      2.875786   230A      2.894041
     231A      2.924650   232A      2.971478   233A      2.979482
     234A      2.994820   235A      3.039401   236A      3.070483
     237A      3.091487   238A      3.126540   239A      3.207641
     240A      3.300760   241A      3.378640   242A      3.747640
     243A      3.957820

    Final Occupation by Irrep:
              A
    DOCC [    44 ]

  @RHF Final Energy:  -479.76647274864052

   => Energetics <=

    Nuclear Repulsion Energy =            673.0023272767334674
    One-Electron Energy =               -1984.0742608251052843
    Two-Electron Energy =                 831.3054607997312360
    Total Energy =                       -479.7664727486405809

Computation Completed

Properties will be evaluated at   0.000000,   0.000000,   0.000000 [a0]

Properties computed using the SCF density matrix

  Nuclear Dipole Moment: [e a0]
     X:    -0.6544      Y:    -0.1317      Z:   -12.7210

  Electronic Dipole Moment: [e a0]
     X:     1.2993      Y:    -0.2977      Z:    12.7669

  Dipole Moment: [e a0]
     X:     0.6450      Y:    -0.4294      Z:     0.0460     Total:     0.7762

  Dipole Moment: [D]
     X:     1.6394      Y:    -1.0914      Z:     0.1169     Total:     1.9729

*** tstop() called on ds3 at Sun Apr 26 20:48:48 2020
Module time:
	user time   =     221.11 seconds =       3.69 minutes
	system time =      81.71 seconds =       1.36 minutes
	total time  =        291 seconds =       4.85 minutes
Total time:
	user time   =     221.11 seconds =       3.69 minutes
	system time =      81.71 seconds =       1.36 minutes
	total time  =        291 seconds =       4.85 minutes
                                     G D M A

                                 by Anthony Stone

                           version 2.2.06, 22 June 2011

               Distributed Multipoles from Gaussian wavefunctions

Starting at 20:48:48 on 26 Apr 2020

Using SCF density matrix from file ./SSI/SSI-080TRP-095ILE-1-dimer.test.9996.fchk

                         Distributed Multipole Analysis

Standard DMA

Positions and radii in angstrom
Multipole moments in atomic units, ea_0^k for rank k

C          x =  1.843933  y =  2.534317  z = -0.137031 angstrom
           Maximum rank =  0   Radius =  0.650 angstrom
                   Q00  =  -0.214768

C          x =  0.116933  y =  0.690317  z =  0.632969 angstrom
           Maximum rank =  0   Radius =  0.650 angstrom
                   Q00  =  -0.035598

C          x =  1.430933  y =  1.129317  z =  0.234969 angstrom
           Maximum rank =  0   Radius =  0.650 angstrom
                   Q00  =  -0.130829

C          x =  0.195933  y = -0.698683  z =  0.900969 angstrom
           Maximum rank =  0   Radius =  0.650 angstrom
                   Q00  =   0.293648

C          x =  2.220933  y =  0.023317  z =  0.270969 angstrom
           Maximum rank =  0   Radius =  0.650 angstrom
                   Q00  =   0.075769

C          x = -1.118067  y =  1.333317  z =  0.787969 angstrom
           Maximum rank =  0   Radius =  0.650 angstrom
                   Q00  =  -0.097340

C          x = -0.903067  y = -1.443683  z =  1.302969 angstrom
           Maximum rank =  0   Radius =  0.650 angstrom
                   Q00  =  -0.121319

C          x = -2.218067  y =  0.587317  z =  1.197969 angstrom
           Maximum rank =  0   Radius =  0.650 angstrom
                   Q00  =  -0.087480

C          x = -2.108067  y = -0.788683  z =  1.447969 angstrom
           Maximum rank =  0   Radius =  0.650 angstrom
                   Q00  =  -0.068103

N          x =  1.491933  y = -1.070683  z =  0.669969 angstrom
           Maximum rank =  0   Radius =  0.650 angstrom
                   Q00  =  -0.495872

H          x = -1.208067  y =  2.393317  z =  0.595969 angstrom
           Maximum rank =  0   Radius =  0.325 angstrom
                   Q00  =   0.069825

H          x =  0.982933  y =  3.059317  z = -0.550031 angstrom
           Maximum rank =  0   Radius =  0.325 angstrom
                   Q00  =   0.105454

H          x =  2.600933  y =  2.475317  z = -0.917031 angstrom
           Maximum rank =  0   Radius =  0.325 angstrom
                   Q00  =   0.103984

H          x =  3.272933  y =  0.017317  z =  0.035969 angstrom
           Maximum rank =  0   Radius =  0.325 angstrom
                   Q00  =   0.099056

H          x =  1.857933  y = -2.016683  z =  0.763969 angstrom
           Maximum rank =  0   Radius =  0.325 angstrom
                   Q00  =   0.218255

H          x = -0.819067  y = -2.506683  z =  1.464969 angstrom
           Maximum rank =  0   Radius =  0.325 angstrom
                   Q00  =   0.070659

H          x = -3.177067  y =  1.074317  z =  1.322969 angstrom
           Maximum rank =  0   Radius =  0.325 angstrom
                   Q00  =   0.060382

H          x = -2.983067  y = -1.345683  z =  1.757969 angstrom
           Maximum rank =  0   Radius =  0.325 angstrom
                   Q00  =   0.064261

H          x =  2.236653  y =  3.111545  z =  0.713019 angstrom
           Maximum rank =  0   Radius =  0.325 angstrom
                   Q00  =   0.101229

C          x = -0.536067  y = -0.495683  z = -2.622031 angstrom
           Maximum rank =  0   Radius =  0.650 angstrom
                   Q00  =  -0.227301

C          x = -0.608067  y = -1.609683  z = -3.660031 angstrom
           Maximum rank =  0   Radius =  0.650 angstrom
                   Q00  =  -0.240095

H          x = -1.356067  y =  0.206317  z = -2.752031 angstrom
           Maximum rank =  0   Radius =  0.325 angstrom
                   Q00  =   0.074175

H          x = -0.616067  y = -0.934683  z = -1.633031 angstrom
           Maximum rank =  0   Radius =  0.325 angstrom
                   Q00  =   0.088021

H          x =  0.409933  y =  0.038317  z = -2.694031 angstrom
           Maximum rank =  0   Radius =  0.325 angstrom
                   Q00  =   0.074849

H          x = -1.611067  y = -2.037683  z = -3.635031 angstrom
           Maximum rank =  0   Radius =  0.325 angstrom
                   Q00  =   0.074290

H          x =  0.088933  y = -2.381683  z = -3.353031 angstrom
           Maximum rank =  0   Radius =  0.325 angstrom
                   Q00  =   0.068625

H          x = -0.373167  y = -1.296479  z = -4.688001 angstrom
           Maximum rank =  0   Radius =  0.325 angstrom
                   Q00  =   0.076221

Total multipoles referred to origin at
           x =   0.000000,  y =    0.000000,  z =    0.000000 angstrom
                   Q00  =  -0.000000

Finished at 20:48:48 on 26 Apr 2020

  DMA results are available in the Python driver through the
	  variable('DMA DISTRIBUTED MULTIPOLES')
  and
	  variable('DMA TOTAL MULTIPOLES')
  commands.

    Psi4 stopped on: Sunday, 26 April 2020 08:48PM
    Psi4 wall time for execution: 0:04:51.88

*** Psi4 exiting successfully. Buy a developer a beer!
