                               Psi4 1.3.2 release

  ==> Input File <==

--------------------------------------------------------------------------
import numpy as np
set {scf_type pk
basis cc-pvdz
d_convergence 10
gdma_switch   0
gdma_limit    0
gdma_origin   [ 0.0,  0.0,  0.0 ]
}
molecule test {
    units Angstrom
    0 1
    --
    0 1
    C               -1.801472060337183    -1.434257730356740     1.819960578378249
    C                0.365527939662818    -1.045257730356740     0.626960578378249
    C               -0.424472060337182    -0.851257730356740     1.761960578378249
    C                1.659527939662818    -0.535257730356740     0.569960578378249
    C                2.169527939662818     0.183742269643260     1.639960578378249
    C                0.091527939662818    -0.128257730356740     2.843960578378249
    C                1.395527939662818     0.381742269643260     2.783960578378249
    H               -0.016472060337182    -1.625257730356740    -0.201039421621751
    H                2.277527939662818    -0.722257730356740    -0.297039421621751
    H               -1.969472060337182    -1.816257730356740     2.828960578378249
    H               -1.859472060337182    -2.285257730356741     1.141960578378249
    H                3.178527939662818     0.571742269643260     1.598960578378249
    H               -0.498472060337182     0.014742269643260     3.737960578378249
    H                1.802527939662818     0.929742269643260     3.621960578378249
    H               -2.605762060337183    -0.729697730356740     1.561670578378249
    C               -0.776472060337183     0.691742269643260    -2.293039421621751
    C               -2.094472060337182     1.140742269643260    -2.885039421621751
    C               -0.210472060337182    -0.506257730356740    -3.035039421621751
    O                0.184527939662818     1.724742269643260    -2.399039421621750
    H               -0.921472060337182     0.437742269643260    -1.244039421621751
    H               -1.911472060337182     1.473742269643260    -3.902039421621751
    H               -0.112472060337182    -0.282257730356740    -4.099039421621750
    H                0.767527939662818    -0.764257730356740    -2.629039421621751
    H               -0.857472060337182    -1.374257730356740    -2.910039421621751
    H                0.695527939662818     1.546742269643260    -1.593039421621751
    H               -2.516042060337182     1.956632269643260    -2.279559421621750
    H               -2.838132060337182     0.330532269643260    -2.908189421621751

}
e, wfn = energy('scf', return_wfn=True)
gdma(wfn)
dmavals = variable('DMA DISTRIBUTED MULTIPOLES')
charges = np.array(dmavals)
print(charges)
np.save('SSI-035PHE-062THR-1-dimer.npy', np.array(charges))--------------------------------------------------------------------------

*** tstart() called on ds3
*** at Sun Apr 26 23:56:49 2020

   => Loading Basis Set <=

    Name: CC-PVDZ
    Role: ORBITAL
    Keyword: BASIS
    atoms 1-7, 16-18  entry C          line   138 file /theoryfs2/ds/metcalf/miniconda2/envs/tf2gpu/share/psi4/basis/cc-pvdz.gbs
    atoms 8-15, 20-27 entry H          line    22 file /theoryfs2/ds/metcalf/miniconda2/envs/tf2gpu/share/psi4/basis/cc-pvdz.gbs
    atoms 19          entry O          line   198 file /theoryfs2/ds/metcalf/miniconda2/envs/tf2gpu/share/psi4/basis/cc-pvdz.gbs

         ---------------------------------------------------------
                                   SCF
               by Justin Turney, Rob Parrish, Andy Simmonett
                          and Daniel G. A. Smith
                              RHF Reference
                        1 Threads,    500 MiB Core
         ---------------------------------------------------------

  ==> Geometry <==

    Molecular point group: c1
    Full point group: C1

    Geometry (in Angstrom), charge = 0, multiplicity = 1:

       Center              X                  Y                   Z               Mass
    ------------   -----------------  -----------------  -----------------  -----------------
         C           -1.801472060337    -1.434257730357     1.819960578378    12.000000000000
         C            0.365527939663    -1.045257730357     0.626960578378    12.000000000000
         C           -0.424472060337    -0.851257730357     1.761960578378    12.000000000000
         C            1.659527939663    -0.535257730357     0.569960578378    12.000000000000
         C            2.169527939663     0.183742269643     1.639960578378    12.000000000000
         C            0.091527939663    -0.128257730357     2.843960578378    12.000000000000
         C            1.395527939663     0.381742269643     2.783960578378    12.000000000000
         H           -0.016472060337    -1.625257730357    -0.201039421622     1.007825032230
         H            2.277527939663    -0.722257730357    -0.297039421622     1.007825032230
         H           -1.969472060337    -1.816257730357     2.828960578378     1.007825032230
         H           -1.859472060337    -2.285257730357     1.141960578378     1.007825032230
         H            3.178527939663     0.571742269643     1.598960578378     1.007825032230
         H           -0.498472060337     0.014742269643     3.737960578378     1.007825032230
         H            1.802527939663     0.929742269643     3.621960578378     1.007825032230
         H           -2.605762060337    -0.729697730357     1.561670578378     1.007825032230
         C           -0.776472060337     0.691742269643    -2.293039421622    12.000000000000
         C           -2.094472060337     1.140742269643    -2.885039421622    12.000000000000
         C           -0.210472060337    -0.506257730357    -3.035039421622    12.000000000000
         O            0.184527939663     1.724742269643    -2.399039421622    15.994914619570
         H           -0.921472060337     0.437742269643    -1.244039421622     1.007825032230
         H           -1.911472060337     1.473742269643    -3.902039421622     1.007825032230
         H           -0.112472060337    -0.282257730357    -4.099039421622     1.007825032230
         H            0.767527939663    -0.764257730357    -2.629039421622     1.007825032230
         H           -0.857472060337    -1.374257730357    -2.910039421622     1.007825032230
         H            0.695527939663     1.546742269643    -1.593039421622     1.007825032230
         H           -2.516042060337     1.956632269643    -2.279559421622     1.007825032230
         H           -2.838132060337     0.330532269643    -2.908189421622     1.007825032230

  Running in c1 symmetry.

  Rotational constants: A =      0.05070  B =      0.01756  C =      0.01520 [cm^-1]
  Rotational constants: A =   1520.04977  B =    526.28752  C =    455.70373 [MHz]
  Nuclear repulsion =  586.320819662092731

  Charge       = 0
  Multiplicity = 1
  Electrons    = 84
  Nalpha       = 42
  Nbeta        = 42

  ==> Algorithm <==

  SCF Algorithm Type is PK.
  DIIS enabled.
  MOM disabled.
  Fractional occupation disabled.
  Guess Type is SAD.
  Energy threshold   = 1.00e-06
  Density threshold  = 1.00e-10
  Integral threshold = 0.00e+00

  ==> Primary Basis <==

  Basis Set: CC-PVDZ
    Blend: CC-PVDZ
    Number of shells: 114
    Number of basis function: 234
    Number of Cartesian functions: 245
    Spherical Harmonics?: true
    Max angular momentum: 2

  ==> Pre-Iterations <==

   -------------------------------------------------------
    Irrep   Nso     Nmo     Nalpha   Nbeta   Ndocc  Nsocc
   -------------------------------------------------------
     A        234     234       0       0       0       0
   -------------------------------------------------------
    Total     234     234      42      42      42       0
   -------------------------------------------------------

  ==> Integral Setup <==

  Using integral reordering PK algorithm.
  Sizing the integral batches needed.
  Building batch lookup table.
   Calculation information:
      Number of atoms:                  27
      Number of AO shells:             114
      Number of primitives:            322
      Number of atomic orbitals:       245
      Number of basis functions:       234

      Integral cutoff                 1.00e-12
      Number of threads:                 1

	Batch   1 pq = [       0,    9405] index = [             0,44231715] size =     44231715
	Batch   2 pq = [    9405,   13301] index = [      44231715,88464951] size =     44233236
	Batch   3 pq = [   13301,   16290] index = [      88464951,132690195] size =     44225244
	Batch   4 pq = [   16290,   18810] index = [     132690195,176917455] size =     44227260
	Batch   5 pq = [   18810,   21030] index = [     176917455,221140965] size =     44223510
	Batch   6 pq = [   21030,   23037] index = [     221140965,265363203] size =     44222238
	Batch   7 pq = [   23037,   24883] index = [     265363203,309594286] size =     44231083
	Batch   8 pq = [   24883,   26601] index = [     309594286,353819901] size =     44225615
	Batch   9 pq = [   26601,   27495] index = [     353819901,378001260] size =     24181359
  Task number: 35
  Buffer size: 11059200
  Buffer per thread: 2
  We computed 20771235 shell quartets total.
  Whereas there are 21487290 unique shell quartets.

  ==> DiskJK: Disk-Based J/K Matrices <==

    J tasked:                  Yes
    K tasked:                  Yes
    wK tasked:                  No
    Memory [MiB]:              375
    Schwarz Cutoff:          1E-12

    OpenMP threads:              1

  Minimum eigenvalue in the overlap matrix is 3.1267911490E-04.
  Using Symmetric Orthogonalization.

  SCF Guess: Superposition of Atomic Densities via on-the-fly atomic UHF.

  ==> Iterations <==

                        Total Energy        Delta E     RMS |[F,P]|

   @RHF iter SAD:  -461.69581913938703   -4.61696e+02   0.00000e+00
   @RHF iter   1:  -462.59934121230089   -9.03522e-01   2.84713e-03 DIIS
   @RHF iter   2:  -462.84350951559975   -2.44168e-01   1.26376e-03 DIIS
   @RHF iter   3:  -462.88442154235838   -4.09120e-02   2.69205e-04 DIIS
   @RHF iter   4:  -462.88761772599764   -3.19618e-03   8.38074e-05 DIIS
   @RHF iter   5:  -462.88782291413310   -2.05188e-04   1.65734e-05 DIIS
   @RHF iter   6:  -462.88783359790511   -1.06838e-05   4.44466e-06 DIIS
   @RHF iter   7:  -462.88783442211229   -8.24207e-07   1.40807e-06 DIIS
   @RHF iter   8:  -462.88783451337662   -9.12643e-08   4.54035e-07 DIIS
   @RHF iter   9:  -462.88783452849646   -1.51198e-08   2.22785e-07 DIIS
   @RHF iter  10:  -462.88783453258122   -4.08477e-09   8.77640e-08 DIIS
   @RHF iter  11:  -462.88783453393665   -1.35543e-09   3.34824e-08 DIIS
   @RHF iter  12:  -462.88783453413720   -2.00544e-10   1.54477e-08 DIIS
   @RHF iter  13:  -462.88783453415306   -1.58593e-11   4.92201e-09 DIIS
   @RHF iter  14:  -462.88783453415726   -4.20641e-12   1.61650e-09 DIIS
   @RHF iter  15:  -462.88783453415715    1.13687e-13   5.13720e-10 DIIS
   @RHF iter  16:  -462.88783453415829   -1.13687e-12   1.89667e-10 DIIS
   @RHF iter  17:  -462.88783453415942   -1.13687e-12   9.40452e-11 DIIS
  Energy and wave function converged.

  ==> Post-Iterations <==

    Orbital Energies [Eh]
    ---------------------

    Doubly Occupied:

       1A    -20.542325     2A    -11.268423     3A    -11.249322
       4A    -11.245102     5A    -11.244002     6A    -11.241002
       7A    -11.239991     8A    -11.239504     9A    -11.234910
      10A    -11.213672    11A    -11.212515    12A     -1.354582
      13A     -1.160238    14A     -1.053290    15A     -1.036951
      16A     -1.019599    17A     -0.938331    18A     -0.932376
      19A     -0.833951    20A     -0.802698    21A     -0.785903
      22A     -0.702198    23A     -0.695642    24A     -0.640035
      25A     -0.638815    26A     -0.603613    27A     -0.599421
      28A     -0.590840    29A     -0.584064    30A     -0.570173
      31A     -0.553764    32A     -0.541108    33A     -0.535970
      34A     -0.515748    35A     -0.499790    36A     -0.495075
      37A     -0.493208    38A     -0.489571    39A     -0.462657
      40A     -0.422318    41A     -0.340435    42A     -0.329856

    Virtual:

      43A      0.123260    44A      0.130789    45A      0.162728
      46A      0.186808    47A      0.196290    48A      0.212588
      49A      0.220254    50A      0.230922    51A      0.239406
      52A      0.248030    53A      0.259205    54A      0.264064
      55A      0.271277    56A      0.275450    57A      0.293110
      58A      0.313588    59A      0.327600    60A      0.332478
      61A      0.359123    62A      0.365081    63A      0.384835
      64A      0.421219    65A      0.428111    66A      0.444213
      67A      0.457957    68A      0.473703    69A      0.498676
      70A      0.557351    71A      0.578673    72A      0.589479
      73A      0.615536    74A      0.642379    75A      0.666698
      76A      0.671388    77A      0.684743    78A      0.686622
      79A      0.697608    80A      0.705123    81A      0.730688
      82A      0.733021    83A      0.736663    84A      0.741474
      85A      0.750818    86A      0.761289    87A      0.769789
      88A      0.774363    89A      0.802635    90A      0.807746
      91A      0.836437    92A      0.838195    93A      0.850921
      94A      0.855333    95A      0.866206    96A      0.871615
      97A      0.878244    98A      0.889958    99A      0.890862
     100A      0.896573   101A      0.904445   102A      0.908566
     103A      0.912411   104A      0.928657   105A      0.933732
     106A      0.946765   107A      0.963246   108A      0.985567
     109A      0.989024   110A      0.999030   111A      1.014159
     112A      1.030523   113A      1.073042   114A      1.118135
     115A      1.131046   116A      1.137588   117A      1.141509
     118A      1.149637   119A      1.152187   120A      1.181596
     121A      1.190570   122A      1.225317   123A      1.236396
     124A      1.243665   125A      1.254091   126A      1.273690
     127A      1.294321   128A      1.298166   129A      1.311818
     130A      1.326009   131A      1.364508   132A      1.393084
     133A      1.404201   134A      1.436958   135A      1.481513
     136A      1.504649   137A      1.512587   138A      1.519733
     139A      1.552752   140A      1.592395   141A      1.605354
     142A      1.643257   143A      1.666342   144A      1.679909
     145A      1.687225   146A      1.691459   147A      1.701560
     148A      1.716700   149A      1.739387   150A      1.744796
     151A      1.753507   152A      1.779964   153A      1.798954
     154A      1.834767   155A      1.850124   156A      1.866624
     157A      1.879753   158A      1.886230   159A      1.889572
     160A      1.896177   161A      1.905539   162A      1.917177
     163A      1.923184   164A      1.935859   165A      1.948281
     166A      1.950040   167A      1.963357   168A      1.969327
     169A      1.982423   170A      1.990375   171A      1.999248
     172A      2.006172   173A      2.017133   174A      2.037158
     175A      2.043118   176A      2.053101   177A      2.064544
     178A      2.066748   179A      2.114935   180A      2.136372
     181A      2.150105   182A      2.153048   183A      2.154046
     184A      2.162735   185A      2.169020   186A      2.182398
     187A      2.215565   188A      2.243692   189A      2.270302
     190A      2.283422   191A      2.292482   192A      2.296301
     193A      2.313574   194A      2.317258   195A      2.327167
     196A      2.349300   197A      2.388436   198A      2.455701
     199A      2.462196   200A      2.471214   201A      2.493398
     202A      2.519446   203A      2.533565   204A      2.556335
     205A      2.569656   206A      2.616306   207A      2.628058
     208A      2.682013   209A      2.734902   210A      2.744378
     211A      2.754974   212A      2.761443   213A      2.778397
     214A      2.789872   215A      2.802658   216A      2.809161
     217A      2.841803   218A      2.848168   219A      2.863563
     220A      2.901728   221A      2.913142   222A      2.968182
     223A      3.005436   224A      3.013013   225A      3.051392
     226A      3.145880   227A      3.190596   228A      3.287989
     229A      3.353938   230A      3.425691   231A      3.550472
     232A      3.615384   233A      3.956539   234A      4.131042

    Final Occupation by Irrep:
              A
    DOCC [    42 ]

  @RHF Final Energy:  -462.88783453415942

   => Energetics <=

    Nuclear Repulsion Energy =            586.3208196620927311
    One-Electron Energy =               -1790.1113364390123479
    Two-Electron Energy =                 740.9026822427600791
    Total Energy =                       -462.8878345341594240

Computation Completed

Properties will be evaluated at   0.000000,   0.000000,   0.000000 [a0]

Properties computed using the SCF density matrix

  Nuclear Dipole Moment: [e a0]
     X:    -6.9224      Y:    -2.1834      Z:    -7.1097

  Electronic Dipole Moment: [e a0]
     X:     6.7571      Y:     1.6227      Z:     7.8145

  Dipole Moment: [e a0]
     X:    -0.1653      Y:    -0.5607      Z:     0.7049     Total:     0.9158

  Dipole Moment: [D]
     X:    -0.4201      Y:    -1.4253      Z:     1.7916     Total:     2.3276

*** tstop() called on ds3 at Mon Apr 27 00:00:41 2020
Module time:
	user time   =     142.45 seconds =       2.37 minutes
	system time =      54.83 seconds =       0.91 minutes
	total time  =        232 seconds =       3.87 minutes
Total time:
	user time   =     142.45 seconds =       2.37 minutes
	system time =      54.83 seconds =       0.91 minutes
	total time  =        232 seconds =       3.87 minutes
                                     G D M A

                                 by Anthony Stone

                           version 2.2.06, 22 June 2011

               Distributed Multipoles from Gaussian wavefunctions

Starting at 0:0:41 on 27 Apr 2020

Using SCF density matrix from file ./SSI/SSI-035PHE-062THR-1-dimer.test.5614.fchk

                         Distributed Multipole Analysis

Standard DMA

Positions and radii in angstrom
Multipole moments in atomic units, ea_0^k for rank k

C          x = -1.801472  y = -1.434258  z =  1.819961 angstrom
           Maximum rank =  0   Radius =  0.650 angstrom
                   Q00  =  -0.201325

C          x =  0.365528  y = -1.045258  z =  0.626961 angstrom
           Maximum rank =  0   Radius =  0.650 angstrom
                   Q00  =  -0.023379

C          x = -0.424472  y = -0.851258  z =  1.761961 angstrom
           Maximum rank =  0   Radius =  0.650 angstrom
                   Q00  =  -0.092960

C          x =  1.659528  y = -0.535258  z =  0.569961 angstrom
           Maximum rank =  0   Radius =  0.650 angstrom
                   Q00  =  -0.097967

C          x =  2.169528  y =  0.183742  z =  1.639961 angstrom
           Maximum rank =  0   Radius =  0.650 angstrom
                   Q00  =  -0.050280

C          x =  0.091528  y = -0.128258  z =  2.843961 angstrom
           Maximum rank =  0   Radius =  0.650 angstrom
                   Q00  =  -0.093382

C          x =  1.395528  y =  0.381742  z =  2.783961 angstrom
           Maximum rank =  0   Radius =  0.650 angstrom
                   Q00  =  -0.069020

H          x = -0.016472  y = -1.625258  z = -0.201039 angstrom
           Maximum rank =  0   Radius =  0.325 angstrom
                   Q00  =   0.062790

H          x =  2.277528  y = -0.722258  z = -0.297039 angstrom
           Maximum rank =  0   Radius =  0.325 angstrom
                   Q00  =   0.066908

H          x = -1.969472  y = -1.816258  z =  2.828961 angstrom
           Maximum rank =  0   Radius =  0.325 angstrom
                   Q00  =   0.099748

H          x = -1.859472  y = -2.285258  z =  1.141961 angstrom
           Maximum rank =  0   Radius =  0.325 angstrom
                   Q00  =   0.097312

H          x =  3.178528  y =  0.571742  z =  1.598961 angstrom
           Maximum rank =  0   Radius =  0.325 angstrom
                   Q00  =   0.064955

H          x = -0.498472  y =  0.014742  z =  3.737961 angstrom
           Maximum rank =  0   Radius =  0.325 angstrom
                   Q00  =   0.062426

H          x =  1.802528  y =  0.929742  z =  3.621961 angstrom
           Maximum rank =  0   Radius =  0.325 angstrom
                   Q00  =   0.069854

H          x = -2.605762  y = -0.729698  z =  1.561671 angstrom
           Maximum rank =  0   Radius =  0.325 angstrom
                   Q00  =   0.105359

C          x = -0.776472  y =  0.691742  z = -2.293039 angstrom
           Maximum rank =  0   Radius =  0.650 angstrom
                   Q00  =   0.169062

C          x = -2.094472  y =  1.140742  z = -2.885039 angstrom
           Maximum rank =  0   Radius =  0.650 angstrom
                   Q00  =  -0.228327

C          x = -0.210472  y = -0.506258  z = -3.035039 angstrom
           Maximum rank =  0   Radius =  0.650 angstrom
                   Q00  =  -0.265495

O          x =  0.184528  y =  1.724742  z = -2.399039 angstrom
           Maximum rank =  0   Radius =  0.650 angstrom
                   Q00  =  -0.585967

H          x = -0.921472  y =  0.437742  z = -1.244039 angstrom
           Maximum rank =  0   Radius =  0.325 angstrom
                   Q00  =   0.010927

H          x = -1.911472  y =  1.473742  z = -3.902039 angstrom
           Maximum rank =  0   Radius =  0.325 angstrom
                   Q00  =   0.092308

H          x = -0.112472  y = -0.282258  z = -4.099039 angstrom
           Maximum rank =  0   Radius =  0.325 angstrom
                   Q00  =   0.095271

H          x =  0.767528  y = -0.764258  z = -2.629039 angstrom
           Maximum rank =  0   Radius =  0.325 angstrom
                   Q00  =   0.079561

H          x = -0.857472  y = -1.374258  z = -2.910039 angstrom
           Maximum rank =  0   Radius =  0.325 angstrom
                   Q00  =   0.066214

H          x =  0.695528  y =  1.546742  z = -1.593039 angstrom
           Maximum rank =  0   Radius =  0.325 angstrom
                   Q00  =   0.399390

H          x = -2.516042  y =  1.956632  z = -2.279559 angstrom
           Maximum rank =  0   Radius =  0.325 angstrom
                   Q00  =   0.089722

H          x = -2.838132  y =  0.330532  z = -2.908189 angstrom
           Maximum rank =  0   Radius =  0.325 angstrom
                   Q00  =   0.076296

Total multipoles referred to origin at
           x =   0.000000,  y =    0.000000,  z =    0.000000 angstrom
                   Q00  =  -0.000000

Finished at 0:0:41 on 27 Apr 2020

  DMA results are available in the Python driver through the
	  variable('DMA DISTRIBUTED MULTIPOLES')
  and
	  variable('DMA TOTAL MULTIPOLES')
  commands.

    Psi4 stopped on: Monday, 27 April 2020 12:00AM
    Psi4 wall time for execution: 0:03:51.92

*** Psi4 exiting successfully. Buy a developer a beer!
