                               Psi4 1.3.2 release

  ==> Input File <==

--------------------------------------------------------------------------
import numpy as np
set {scf_type pk
basis cc-pvdz
d_convergence 10
gdma_switch   0
gdma_limit    0
gdma_origin   [ 0.0,  0.0,  0.0 ]
}
molecule test {
    units Angstrom
    0 1
    --
    0 1
    C                1.885303266732033    -3.263277824598723     0.416712520469969
    C                0.927303266732033    -2.091277824598722     0.222712520469969
    O                0.443303266732033    -1.491277824598722     1.214712520469969
    O                0.597303266732033    -1.761277824598723    -0.942287479530031
    H                2.808303266732032    -3.058277824598723    -0.116287479530031
    H                1.429303266732033    -4.166277824598722     0.008712520469969
    H                2.153387266732032    -3.429847824598723     1.470462520469969
    C               -1.228696733267967     1.910722175401278     1.712712520469969
    C               -0.641696733267967     1.658722175401278    -0.643287479530031
    N               -0.639696733267967     1.202722175401277     0.590712520469969
    N               -1.185696733267967     2.833722175401277    -0.904287479530031
    N               -0.127696733267967     0.934722175401277    -1.614287479530031
    H               -0.179696733267967     0.315722175401277     0.781712520469969
    H               -2.313696733267967     1.797722175401277     1.657712520469969
    H               -0.974696733267967     2.969722175401277     1.622712520469969
    H               -1.606696733267967     3.372722175401278    -0.161287479530031
    H               -1.191696733267967     3.194722175401278    -1.845287479530031
    H                0.261303266732033     0.009722175401277    -1.412287479530031
    H               -0.125696733267967     1.279722175401277    -2.561287479530031
    H               -0.857147733267967     1.518652175401278     2.670952520469969

}
e, wfn = energy('scf', return_wfn=True)
gdma(wfn)
dmavals = variable('DMA DISTRIBUTED MULTIPOLES')
charges = np.array(dmavals)
print(charges)
np.save('SSI-023ASP-057ARG-1-dimer.npy', np.array(charges))--------------------------------------------------------------------------

*** tstart() called on ds3
*** at Mon Apr 27 12:54:33 2020

   => Loading Basis Set <=

    Name: CC-PVDZ
    Role: ORBITAL
    Keyword: BASIS
    atoms 1-2, 8-9   entry C          line   138 file /theoryfs2/ds/metcalf/miniconda2/envs/tf2gpu/share/psi4/basis/cc-pvdz.gbs
    atoms 3-4        entry O          line   198 file /theoryfs2/ds/metcalf/miniconda2/envs/tf2gpu/share/psi4/basis/cc-pvdz.gbs
    atoms 5-7, 13-20 entry H          line    22 file /theoryfs2/ds/metcalf/miniconda2/envs/tf2gpu/share/psi4/basis/cc-pvdz.gbs
    atoms 10-12      entry N          line   168 file /theoryfs2/ds/metcalf/miniconda2/envs/tf2gpu/share/psi4/basis/cc-pvdz.gbs

         ---------------------------------------------------------
                                   SCF
               by Justin Turney, Rob Parrish, Andy Simmonett
                          and Daniel G. A. Smith
                              RHF Reference
                        1 Threads,    500 MiB Core
         ---------------------------------------------------------

  ==> Geometry <==

    Molecular point group: c1
    Full point group: C1

    Geometry (in Angstrom), charge = 0, multiplicity = 1:

       Center              X                  Y                   Z               Mass
    ------------   -----------------  -----------------  -----------------  -----------------
         C            1.885303266732    -3.263277824599     0.416712520470    12.000000000000
         C            0.927303266732    -2.091277824599     0.222712520470    12.000000000000
         O            0.443303266732    -1.491277824599     1.214712520470    15.994914619570
         O            0.597303266732    -1.761277824599    -0.942287479530    15.994914619570
         H            2.808303266732    -3.058277824599    -0.116287479530     1.007825032230
         H            1.429303266732    -4.166277824599     0.008712520470     1.007825032230
         H            2.153387266732    -3.429847824599     1.470462520470     1.007825032230
         C           -1.228696733268     1.910722175401     1.712712520470    12.000000000000
         C           -0.641696733268     1.658722175401    -0.643287479530    12.000000000000
         N           -0.639696733268     1.202722175401     0.590712520470    14.003074004430
         N           -1.185696733268     2.833722175401    -0.904287479530    14.003074004430
         N           -0.127696733268     0.934722175401    -1.614287479530    14.003074004430
         H           -0.179696733268     0.315722175401     0.781712520470     1.007825032230
         H           -2.313696733268     1.797722175401     1.657712520470     1.007825032230
         H           -0.974696733268     2.969722175401     1.622712520470     1.007825032230
         H           -1.606696733268     3.372722175401    -0.161287479530     1.007825032230
         H           -1.191696733268     3.194722175401    -1.845287479530     1.007825032230
         H            0.261303266732     0.009722175401    -1.412287479530     1.007825032230
         H           -0.125696733268     1.279722175401    -2.561287479530     1.007825032230
         H           -0.857147733268     1.518652175401     2.670952520470     1.007825032230

  Running in c1 symmetry.

  Rotational constants: A =      0.10080  B =      0.02403  C =      0.01974 [cm^-1]
  Rotational constants: A =   3022.02873  B =    720.47669  C =    591.70826 [MHz]
  Nuclear repulsion =  463.266867166175302

  Charge       = 0
  Multiplicity = 1
  Electrons    = 72
  Nalpha       = 36
  Nbeta        = 36

  ==> Algorithm <==

  SCF Algorithm Type is PK.
  DIIS enabled.
  MOM disabled.
  Fractional occupation disabled.
  Guess Type is SAD.
  Energy threshold   = 1.00e-06
  Density threshold  = 1.00e-10
  Integral threshold = 0.00e+00

  ==> Primary Basis <==

  Basis Set: CC-PVDZ
    Blend: CC-PVDZ
    Number of shells: 87
    Number of basis function: 181
    Number of Cartesian functions: 190
    Spherical Harmonics?: true
    Max angular momentum: 2

  ==> Pre-Iterations <==

   -------------------------------------------------------
    Irrep   Nso     Nmo     Nalpha   Nbeta   Ndocc  Nsocc
   -------------------------------------------------------
     A        181     181       0       0       0       0
   -------------------------------------------------------
    Total     181     181      36      36      36       0
   -------------------------------------------------------

  ==> Integral Setup <==

  Using integral reordering PK algorithm.
  Sizing the integral batches needed.
  Building batch lookup table.
   Calculation information:
      Number of atoms:                  20
      Number of AO shells:              87
      Number of primitives:            253
      Number of atomic orbitals:       190
      Number of basis functions:       181

      Integral cutoff                 1.00e-12
      Number of threads:                 1

	Batch   1 pq = [       0,    9405] index = [             0,44231715] size =     44231715
	Batch   2 pq = [    9405,   13301] index = [      44231715,88464951] size =     44233236
	Batch   3 pq = [   13301,   16471] index = [      88464951,135655156] size =     47190205
  Task number: 13
  Buffer size: 11059200
  Buffer per thread: 2
  We computed 5874806 shell quartets total.
  Whereas there are 7328706 unique shell quartets.

  ==> DiskJK: Disk-Based J/K Matrices <==

    J tasked:                  Yes
    K tasked:                  Yes
    wK tasked:                  No
    Memory [MiB]:              375
    Schwarz Cutoff:          1E-12

    OpenMP threads:              1

  Minimum eigenvalue in the overlap matrix is 3.7153364812E-03.
  Using Symmetric Orthogonalization.

  SCF Guess: Superposition of Atomic Densities via on-the-fly atomic UHF.

  ==> Iterations <==

                        Total Energy        Delta E     RMS |[F,P]|

   @RHF iter SAD:  -469.75959565032952   -4.69760e+02   0.00000e+00
   @RHF iter   1:  -470.72178127008510   -9.62186e-01   4.21058e-03 DIIS
   @RHF iter   2:  -470.94303155885018   -2.21250e-01   2.19718e-03 DIIS
   @RHF iter   3:  -471.00048926298956   -5.74577e-02   3.93204e-04 DIIS
   @RHF iter   4:  -471.00367247958746   -3.18322e-03   1.31479e-04 DIIS
   @RHF iter   5:  -471.00403282768144   -3.60348e-04   2.36770e-05 DIIS
   @RHF iter   6:  -471.00404923264870   -1.64050e-05   8.77651e-06 DIIS
   @RHF iter   7:  -471.00405081212051   -1.57947e-06   2.71550e-06 DIIS
   @RHF iter   8:  -471.00405101252773   -2.00407e-07   1.05556e-06 DIIS
   @RHF iter   9:  -471.00405103854109   -2.60134e-08   2.87930e-07 DIIS
   @RHF iter  10:  -471.00405104141385   -2.87275e-09   8.55290e-08 DIIS
   @RHF iter  11:  -471.00405104177270   -3.58853e-10   2.97646e-08 DIIS
   @RHF iter  12:  -471.00405104182391   -5.12159e-11   1.29919e-08 DIIS
   @RHF iter  13:  -471.00405104183130   -7.38964e-12   4.40034e-09 DIIS
   @RHF iter  14:  -471.00405104183073    5.68434e-13   1.08128e-09 DIIS
   @RHF iter  15:  -471.00405104183420   -3.46745e-12   4.08304e-10 DIIS
   @RHF iter  16:  -471.00405104183045    3.75167e-12   1.30265e-10 DIIS
   @RHF iter  17:  -471.00405104183142   -9.66338e-13   5.36325e-11 DIIS
  Energy and wave function converged.

  ==> Post-Iterations <==

    Orbital Energies [Eh]
    ---------------------

    Doubly Occupied:

       1A    -20.422491     2A    -20.421317     3A    -15.648589
       4A    -15.609390     5A    -15.608108     6A    -11.426203
       7A    -11.304310     8A    -11.272576     9A    -11.174792
      10A     -1.389285    11A     -1.310991    12A     -1.245655
      13A     -1.230876    14A     -1.192238    15A     -0.994800
      16A     -0.925285    17A     -0.882216    18A     -0.822868
      19A     -0.781536    20A     -0.708331    21A     -0.695316
      22A     -0.677024    23A     -0.645147    24A     -0.636694
      25A     -0.600504    26A     -0.583070    27A     -0.556137
      28A     -0.545837    29A     -0.542149    30A     -0.480023
      31A     -0.467528    32A     -0.453582    33A     -0.417773
      34A     -0.345320    35A     -0.330758    36A     -0.325247

    Virtual:

      37A      0.124894    38A      0.157501    39A      0.181198
      40A      0.206807    41A      0.215160    42A      0.241395
      43A      0.246576    44A      0.249955    45A      0.273470
      46A      0.297416    47A      0.309295    48A      0.341222
      49A      0.356927    50A      0.400353    51A      0.433897
      52A      0.448730    53A      0.483639    54A      0.496355
      55A      0.583505    56A      0.589819    57A      0.600543
      58A      0.615970    59A      0.660422    60A      0.671972
      61A      0.685042    62A      0.691670    63A      0.705267
      64A      0.716848    65A      0.724640    66A      0.762747
      67A      0.807192    68A      0.816982    69A      0.835389
      70A      0.839472    71A      0.844063    72A      0.857482
      73A      0.897467    74A      0.909654    75A      0.913131
      76A      0.921483    77A      0.929032    78A      0.944774
      79A      0.961960    80A      0.967944    81A      0.984999
      82A      0.993660    83A      1.051129    84A      1.073601
      85A      1.086040    86A      1.105541    87A      1.128473
      88A      1.140035    89A      1.204430    90A      1.218109
      91A      1.240102    92A      1.264791    93A      1.290529
      94A      1.308007    95A      1.318748    96A      1.348055
      97A      1.376098    98A      1.378540    99A      1.406591
     100A      1.434401   101A      1.458026   102A      1.490141
     103A      1.507986   104A      1.539514   105A      1.561618
     106A      1.577052   107A      1.602375   108A      1.635410
     109A      1.657714   110A      1.699755   111A      1.708592
     112A      1.718106   113A      1.727513   114A      1.738622
     115A      1.812413   116A      1.818320   117A      1.853353
     118A      1.878026   119A      1.895404   120A      1.899713
     121A      1.923954   122A      1.933036   123A      1.942494
     124A      1.956026   125A      1.961094   126A      1.981303
     127A      1.985523   128A      2.001218   129A      2.036977
     130A      2.084553   131A      2.101851   132A      2.144654
     133A      2.162278   134A      2.168597   135A      2.189017
     136A      2.226132   137A      2.272590   138A      2.284895
     139A      2.293944   140A      2.323973   141A      2.348863
     142A      2.411996   143A      2.420475   144A      2.433448
     145A      2.472191   146A      2.488500   147A      2.502117
     148A      2.526434   149A      2.571798   150A      2.582983
     151A      2.616549   152A      2.635226   153A      2.656446
     154A      2.714958   155A      2.727801   156A      2.759722
     157A      2.800886   158A      2.801809   159A      2.847466
     160A      2.872158   161A      2.879632   162A      2.913656
     163A      2.947624   164A      2.975833   165A      2.995483
     166A      3.059811   167A      3.102001   168A      3.130485
     169A      3.156594   170A      3.198366   171A      3.230366
     172A      3.287501   173A      3.336651   174A      3.489778
     175A      3.597726   176A      3.649558   177A      3.768616
     178A      3.814229   179A      3.918954   180A      3.932351
     181A      4.062266

    Final Occupation by Irrep:
              A
    DOCC [    36 ]

  @RHF Final Energy:  -471.00405104183142

   => Energetics <=

    Nuclear Repulsion Energy =            463.2668671661753024
    One-Electron Energy =               -1563.1939044279363316
    Two-Electron Energy =                 628.9229862199297258
    Total Energy =                       -471.0040510418314170

Computation Completed

Properties will be evaluated at   0.000000,   0.000000,   0.000000 [a0]

Properties computed using the SCF density matrix

  Nuclear Dipole Moment: [e a0]
     X:    -0.5490      Y:     3.5364      Z:     1.9904

  Electronic Dipole Moment: [e a0]
     X:    -0.8266      Y:     0.8298      Z:    -2.8588

  Dipole Moment: [e a0]
     X:    -1.3756      Y:     4.3661      Z:    -0.8684     Total:     4.6594

  Dipole Moment: [D]
     X:    -3.4964      Y:    11.0976      Z:    -2.2072     Total:    11.8429

*** tstop() called on ds3 at Mon Apr 27 12:55:55 2020
Module time:
	user time   =      59.32 seconds =       0.99 minutes
	system time =      26.16 seconds =       0.44 minutes
	total time  =         82 seconds =       1.37 minutes
Total time:
	user time   =      59.32 seconds =       0.99 minutes
	system time =      26.16 seconds =       0.44 minutes
	total time  =         82 seconds =       1.37 minutes
                                     G D M A

                                 by Anthony Stone

                           version 2.2.06, 22 June 2011

               Distributed Multipoles from Gaussian wavefunctions

Starting at 12:55:55 on 27 Apr 2020

Using SCF density matrix from file ./SSI/SSI-023ASP-057ARG-1-dimer.test.4616.fchk

                         Distributed Multipole Analysis

Standard DMA

Positions and radii in angstrom
Multipole moments in atomic units, ea_0^k for rank k

C          x =  1.885303  y = -3.263278  z =  0.416713 angstrom
           Maximum rank =  0   Radius =  0.650 angstrom
                   Q00  =  -0.257997

C          x =  0.927303  y = -2.091278  z =  0.222713 angstrom
           Maximum rank =  0   Radius =  0.650 angstrom
                   Q00  =   0.887234

O          x =  0.443303  y = -1.491278  z =  1.214713 angstrom
           Maximum rank =  0   Radius =  0.650 angstrom
                   Q00  =  -0.930136

O          x =  0.597303  y = -1.761278  z = -0.942287 angstrom
           Maximum rank =  0   Radius =  0.650 angstrom
                   Q00  =  -0.946154

H          x =  2.808303  y = -3.058278  z = -0.116287 angstrom
           Maximum rank =  0   Radius =  0.325 angstrom
                   Q00  =   0.091059

H          x =  1.429303  y = -4.166278  z =  0.008713 angstrom
           Maximum rank =  0   Radius =  0.325 angstrom
                   Q00  =   0.105736

H          x =  2.153387  y = -3.429848  z =  1.470463 angstrom
           Maximum rank =  0   Radius =  0.325 angstrom
                   Q00  =   0.081191

C          x = -1.228697  y =  1.910722  z =  1.712713 angstrom
           Maximum rank =  0   Radius =  0.650 angstrom
                   Q00  =  -0.096779

C          x = -0.641697  y =  1.658722  z = -0.643287 angstrom
           Maximum rank =  0   Radius =  0.650 angstrom
                   Q00  =   1.063470

N          x = -0.639697  y =  1.202722  z =  0.590713 angstrom
           Maximum rank =  0   Radius =  0.650 angstrom
                   Q00  =  -0.480750

N          x = -1.185697  y =  2.833722  z = -0.904287 angstrom
           Maximum rank =  0   Radius =  0.650 angstrom
                   Q00  =  -0.588241

N          x = -0.127697  y =  0.934722  z = -1.614287 angstrom
           Maximum rank =  0   Radius =  0.650 angstrom
                   Q00  =  -0.609607

H          x = -0.179697  y =  0.315722  z =  0.781713 angstrom
           Maximum rank =  0   Radius =  0.325 angstrom
                   Q00  =   0.305368

H          x = -2.313697  y =  1.797722  z =  1.657713 angstrom
           Maximum rank =  0   Radius =  0.325 angstrom
                   Q00  =   0.093993

H          x = -0.974697  y =  2.969722  z =  1.622713 angstrom
           Maximum rank =  0   Radius =  0.325 angstrom
                   Q00  =   0.063774

H          x = -1.606697  y =  3.372722  z = -0.161287 angstrom
           Maximum rank =  0   Radius =  0.325 angstrom
                   Q00  =   0.246118

H          x = -1.191697  y =  3.194722  z = -1.845287 angstrom
           Maximum rank =  0   Radius =  0.325 angstrom
                   Q00  =   0.237892

H          x =  0.261303  y =  0.009722  z = -1.412287 angstrom
           Maximum rank =  0   Radius =  0.325 angstrom
                   Q00  =   0.354395

H          x = -0.125697  y =  1.279722  z = -2.561287 angstrom
           Maximum rank =  0   Radius =  0.325 angstrom
                   Q00  =   0.220538

H          x = -0.857148  y =  1.518652  z =  2.670953 angstrom
           Maximum rank =  0   Radius =  0.325 angstrom
                   Q00  =   0.158897

Total multipoles referred to origin at
           x =   0.000000,  y =    0.000000,  z =    0.000000 angstrom
                   Q00  =  -0.000000

Finished at 12:55:55 on 27 Apr 2020

  DMA results are available in the Python driver through the
	  variable('DMA DISTRIBUTED MULTIPOLES')
  and
	  variable('DMA TOTAL MULTIPOLES')
  commands.

    Psi4 stopped on: Monday, 27 April 2020 12:55PM
    Psi4 wall time for execution: 0:01:21.87

*** Psi4 exiting successfully. Buy a developer a beer!
