                               Psi4 1.3.2 release

  ==> Input File <==

--------------------------------------------------------------------------
import numpy as np
set {scf_type pk
basis cc-pvdz
d_convergence 10
gdma_switch   0
gdma_limit    0
gdma_origin   [ 0.0,  0.0,  0.0 ]
}
molecule test {
    units Angstrom
    0 1
    --
    0 1
    C                1.482355947017682     2.685071700357430     2.171196342579829
    C                0.366355947017682     2.355071700357430     3.163196342579830
    H                2.201355947017682     3.374071700357429     2.609196342579829
    H                2.014355947017682     1.770071700357429     1.926196342579829
    H                1.065355947017682     3.122071700357429     1.263196342579829
    H                0.785355947017682     1.728071700357429     3.949196342579829
    H               -0.035224052982318     3.269321700357429     3.624586342579829
    H               -0.430094052982318     1.785461700357429     2.661996342579830
    C               -2.218644052982318     0.045071700357429    -2.116803657420171
    C                1.035355947017682    -0.118928299642571    -0.170803657420171
    C               -0.051644052982318     0.376071700357429    -0.880803657420171
    C                1.145355947017682    -1.481928299642571     0.078196342579829
    C               -1.029644052982318    -0.487928299642571    -1.360803657420171
    C                0.167355947017682    -2.348928299642571    -0.390803657420171
    C               -0.916644052982318    -1.849928299642571    -1.102803657420171
    H                1.808355947017682     0.556071700357429     0.159196342579829
    H               -0.131644052982318     1.438071700357429    -1.066803657420171
    H                1.993355947017682    -1.867928299642571     0.627196342579829
    H                0.249355947017682    -3.410928299642571    -0.196803657420171
    H               -2.623644052982318     0.888071700357429    -1.560803657420171
    H               -2.983644052982318    -0.721928299642571    -2.146803657420171
    H               -1.687644052982318    -2.509928299642571    -1.457803657420171
    H               -1.989884052982318     0.418691700357429    -3.125803657420171

}
e, wfn = energy('scf', return_wfn=True)
gdma(wfn)
dmavals = variable('DMA DISTRIBUTED MULTIPOLES')
charges = np.array(dmavals)
print(charges)
np.save('SSI-083VAL-094PHE-2-dimer.npy', np.array(charges))--------------------------------------------------------------------------

*** tstart() called on ds3
*** at Tue Apr 28 20:10:58 2020

   => Loading Basis Set <=

    Name: CC-PVDZ
    Role: ORBITAL
    Keyword: BASIS
    atoms 1-2, 9-15  entry C          line   138 file /theoryfs2/ds/metcalf/miniconda2/envs/tf2gpu/share/psi4/basis/cc-pvdz.gbs
    atoms 3-8, 16-23 entry H          line    22 file /theoryfs2/ds/metcalf/miniconda2/envs/tf2gpu/share/psi4/basis/cc-pvdz.gbs

         ---------------------------------------------------------
                                   SCF
               by Justin Turney, Rob Parrish, Andy Simmonett
                          and Daniel G. A. Smith
                              RHF Reference
                        1 Threads,    500 MiB Core
         ---------------------------------------------------------

  ==> Geometry <==

    Molecular point group: c1
    Full point group: C1

    Geometry (in Angstrom), charge = 0, multiplicity = 1:

       Center              X                  Y                   Z               Mass
    ------------   -----------------  -----------------  -----------------  -----------------
         C            1.482355947018     2.685071700357     2.171196342580    12.000000000000
         C            0.366355947018     2.355071700357     3.163196342580    12.000000000000
         H            2.201355947018     3.374071700357     2.609196342580     1.007825032230
         H            2.014355947018     1.770071700357     1.926196342580     1.007825032230
         H            1.065355947018     3.122071700357     1.263196342580     1.007825032230
         H            0.785355947018     1.728071700357     3.949196342580     1.007825032230
         H           -0.035224052982     3.269321700357     3.624586342580     1.007825032230
         H           -0.430094052982     1.785461700357     2.661996342580     1.007825032230
         C           -2.218644052982     0.045071700357    -2.116803657420    12.000000000000
         C            1.035355947018    -0.118928299643    -0.170803657420    12.000000000000
         C           -0.051644052982     0.376071700357    -0.880803657420    12.000000000000
         C            1.145355947018    -1.481928299643     0.078196342580    12.000000000000
         C           -1.029644052982    -0.487928299643    -1.360803657420    12.000000000000
         C            0.167355947018    -2.348928299643    -0.390803657420    12.000000000000
         C           -0.916644052982    -1.849928299643    -1.102803657420    12.000000000000
         H            1.808355947018     0.556071700357     0.159196342580     1.007825032230
         H           -0.131644052982     1.438071700357    -1.066803657420     1.007825032230
         H            1.993355947018    -1.867928299643     0.627196342580     1.007825032230
         H            0.249355947018    -3.410928299643    -0.196803657420     1.007825032230
         H           -2.623644052982     0.888071700357    -1.560803657420     1.007825032230
         H           -2.983644052982    -0.721928299643    -2.146803657420     1.007825032230
         H           -1.687644052982    -2.509928299643    -1.457803657420     1.007825032230
         H           -1.989884052982     0.418691700357    -3.125803657420     1.007825032230

  Running in c1 symmetry.

  Rotational constants: A =      0.07216  B =      0.02404  C =      0.02013 [cm^-1]
  Rotational constants: A =   2163.36447  B =    720.61792  C =    603.62271 [MHz]
  Nuclear repulsion =  405.096557354306242

  Charge       = 0
  Multiplicity = 1
  Electrons    = 68
  Nalpha       = 34
  Nbeta        = 34

  ==> Algorithm <==

  SCF Algorithm Type is PK.
  DIIS enabled.
  MOM disabled.
  Fractional occupation disabled.
  Guess Type is SAD.
  Energy threshold   = 1.00e-06
  Density threshold  = 1.00e-10
  Integral threshold = 0.00e+00

  ==> Primary Basis <==

  Basis Set: CC-PVDZ
    Blend: CC-PVDZ
    Number of shells: 96
    Number of basis function: 196
    Number of Cartesian functions: 205
    Spherical Harmonics?: true
    Max angular momentum: 2

  ==> Pre-Iterations <==

   -------------------------------------------------------
    Irrep   Nso     Nmo     Nalpha   Nbeta   Ndocc  Nsocc
   -------------------------------------------------------
     A        196     196       0       0       0       0
   -------------------------------------------------------
    Total     196     196      34      34      34       0
   -------------------------------------------------------

  ==> Integral Setup <==

  Using integral reordering PK algorithm.
  Sizing the integral batches needed.
  Building batch lookup table.
   Calculation information:
      Number of atoms:                  23
      Number of AO shells:              96
      Number of primitives:            268
      Number of atomic orbitals:       205
      Number of basis functions:       196

      Integral cutoff                 1.00e-12
      Number of threads:                 1

	Batch   1 pq = [       0,    9405] index = [             0,44231715] size =     44231715
	Batch   2 pq = [    9405,   13301] index = [      44231715,88464951] size =     44233236
	Batch   3 pq = [   13301,   16290] index = [      88464951,132690195] size =     44225244
	Batch   4 pq = [   16290,   18810] index = [     132690195,176917455] size =     44227260
	Batch   5 pq = [   18810,   19306] index = [     176917455,186370471] size =      9453016
  Task number: 17
  Buffer size: 11059200
  Buffer per thread: 2
  We computed 9146668 shell quartets total.
  Whereas there are 10841496 unique shell quartets.

  ==> DiskJK: Disk-Based J/K Matrices <==

    J tasked:                  Yes
    K tasked:                  Yes
    wK tasked:                  No
    Memory [MiB]:              375
    Schwarz Cutoff:          1E-12

    OpenMP threads:              1

  Minimum eigenvalue in the overlap matrix is 3.0395319821E-04.
  Using Symmetric Orthogonalization.

  SCF Guess: Superposition of Atomic Densities via on-the-fly atomic UHF.

  ==> Iterations <==

                        Total Energy        Delta E     RMS |[F,P]|

   @RHF iter SAD:  -347.91512985548752   -3.47915e+02   0.00000e+00
   @RHF iter   1:  -348.76513500471276   -8.50005e-01   2.90579e-03 DIIS
   @RHF iter   2:  -348.95863937421535   -1.93504e-01   1.20924e-03 DIIS
   @RHF iter   3:  -348.98920655331489   -3.05672e-02   2.59903e-04 DIIS
   @RHF iter   4:  -348.99169617670339   -2.48962e-03   5.43477e-05 DIIS
   @RHF iter   5:  -348.99177268624521   -7.65095e-05   1.82493e-05 DIIS
   @RHF iter   6:  -348.99178081910640   -8.13286e-06   4.91980e-06 DIIS
   @RHF iter   7:  -348.99178150471732   -6.85611e-07   1.22417e-06 DIIS
   @RHF iter   8:  -348.99178155562953   -5.09122e-08   2.98570e-07 DIIS
   @RHF iter   9:  -348.99178156177703   -6.14750e-09   1.23307e-07 DIIS
   @RHF iter  10:  -348.99178156316827   -1.39124e-09   5.90194e-08 DIIS
   @RHF iter  11:  -348.99178156364559   -4.77314e-10   2.10108e-08 DIIS
   @RHF iter  12:  -348.99178156370664   -6.10498e-11   8.18635e-09 DIIS
   @RHF iter  13:  -348.99178156371175   -5.11591e-12   3.50345e-09 DIIS
   @RHF iter  14:  -348.99178156371238   -6.25278e-13   8.05461e-10 DIIS
   @RHF iter  15:  -348.99178156371437   -1.98952e-12   3.00831e-10 DIIS
   @RHF iter  16:  -348.99178156371403    3.41061e-13   8.10278e-11 DIIS
  Energy and wave function converged.

  ==> Post-Iterations <==

    Orbital Energies [Eh]
    ---------------------

    Doubly Occupied:

       1A    -11.239193     2A    -11.234800     3A    -11.233652
       4A    -11.230212     5A    -11.229095     6A    -11.228736
       7A    -11.228192     8A    -11.216935     9A    -11.215967
      10A     -1.154078    11A     -1.044883    12A     -1.017625
      13A     -1.012019    14A     -0.931825    15A     -0.836509
      16A     -0.825660    17A     -0.795612    18A     -0.692003
      19A     -0.632860    20A     -0.630345    21A     -0.598094
      22A     -0.597556    23A     -0.581532    24A     -0.574413
      25A     -0.562310    26A     -0.538152    27A     -0.499357
      28A     -0.489953    29A     -0.487538    30A     -0.484527
      31A     -0.481985    32A     -0.477749    33A     -0.332330
      34A     -0.322123

    Virtual:

      35A      0.135079    36A      0.141741    37A      0.173596
      38A      0.196255    39A      0.202589    40A      0.218788
      41A      0.229361    42A      0.241876    43A      0.251710
      44A      0.263653    45A      0.270830    46A      0.278251
      47A      0.286736    48A      0.293604    49A      0.304411
      50A      0.338152    51A      0.370905    52A      0.387143
      53A      0.395783    54A      0.456693    55A      0.465986
      56A      0.478900    57A      0.500908    58A      0.567292
      59A      0.582611    60A      0.598764    61A      0.605712
      62A      0.612890    63A      0.629655    64A      0.676805
      65A      0.683799    66A      0.689733    67A      0.699741
      68A      0.713102    69A      0.719166    70A      0.742547
      71A      0.746642    72A      0.748698    73A      0.760187
      74A      0.775099    75A      0.786736    76A      0.793637
      77A      0.833038    78A      0.843218    79A      0.853699
      80A      0.861564    81A      0.880786    82A      0.884276
      83A      0.895544    84A      0.896706    85A      0.902103
      86A      0.910232    87A      0.914640    88A      0.926647
      89A      0.934259    90A      0.947632    91A      0.952781
      92A      0.960512    93A      0.980056    94A      0.994885
      95A      1.025816    96A      1.056756    97A      1.110984
      98A      1.121751    99A      1.135026   100A      1.150760
     101A      1.154752   102A      1.163394   103A      1.199340
     104A      1.231406   105A      1.243802   106A      1.248289
     107A      1.254495   108A      1.276718   109A      1.301895
     110A      1.306309   111A      1.318896   112A      1.339480
     113A      1.414720   114A      1.474959   115A      1.485478
     116A      1.507437   117A      1.522209   118A      1.551177
     119A      1.599660   120A      1.602257   121A      1.679508
     122A      1.685986   123A      1.692584   124A      1.703572
     125A      1.735846   126A      1.747271   127A      1.761656
     128A      1.793378   129A      1.815912   130A      1.860675
     131A      1.865040   132A      1.875776   133A      1.889561
     134A      1.895653   135A      1.900175   136A      1.909828
     137A      1.921125   138A      1.928526   139A      1.941320
     140A      1.946412   141A      1.948085   142A      1.949957
     143A      1.960256   144A      1.965522   145A      1.974916
     146A      1.987146   147A      2.000926   148A      2.010667
     149A      2.044763   150A      2.046854   151A      2.079638
     152A      2.109575   153A      2.120022   154A      2.133214
     155A      2.142341   156A      2.157311   157A      2.168935
     158A      2.187451   159A      2.199094   160A      2.241278
     161A      2.280669   162A      2.293718   163A      2.299330
     164A      2.305512   165A      2.316038   166A      2.326333
     167A      2.355636   168A      2.442325   169A      2.454732
     170A      2.465905   171A      2.479735   172A      2.529522
     173A      2.539856   174A      2.573951   175A      2.587883
     176A      2.629159   177A      2.732467   178A      2.757335
     179A      2.764774   180A      2.784207   181A      2.794258
     182A      2.796415   183A      2.820910   184A      2.851166
     185A      2.855133   186A      2.856665   187A      2.871652
     188A      2.956905   189A      2.966374   190A      2.985642
     191A      3.018021   192A      3.036053   193A      3.167481
     194A      3.206536   195A      3.311704   196A      3.979732

    Final Occupation by Irrep:
              A
    DOCC [    34 ]

  @RHF Final Energy:  -348.99178156371403

   => Energetics <=

    Nuclear Repulsion Energy =            405.0965573543062419
    One-Electron Energy =               -1272.8610343551924871
    Two-Electron Energy =                 518.7726954371721604
    Total Energy =                       -348.9917815637140848

Computation Completed

Properties will be evaluated at   0.000000,   0.000000,   0.000000 [a0]

Properties computed using the SCF density matrix

  Nuclear Dipole Moment: [e a0]
     X:     0.2210      Y:     9.2240      Z:     6.8116

  Electronic Dipole Moment: [e a0]
     X:    -0.3169      Y:    -9.1891      Z:    -6.8685

  Dipole Moment: [e a0]
     X:    -0.0959      Y:     0.0349      Z:    -0.0569     Total:     0.1168

  Dipole Moment: [D]
     X:    -0.2437      Y:     0.0887      Z:    -0.1446     Total:     0.2969

*** tstop() called on ds3 at Tue Apr 28 20:12:23 2020
Module time:
	user time   =      62.13 seconds =       1.04 minutes
	system time =      26.21 seconds =       0.44 minutes
	total time  =         85 seconds =       1.42 minutes
Total time:
	user time   =      62.13 seconds =       1.04 minutes
	system time =      26.21 seconds =       0.44 minutes
	total time  =         85 seconds =       1.42 minutes
                                     G D M A

                                 by Anthony Stone

                           version 2.2.06, 22 June 2011

               Distributed Multipoles from Gaussian wavefunctions

Starting at 20:12:23 on 28 Apr 2020

Using SCF density matrix from file ./SSI/SSI-083VAL-094PHE-2-dimer.test.20915.fchk

                         Distributed Multipole Analysis

Standard DMA

Positions and radii in angstrom
Multipole moments in atomic units, ea_0^k for rank k

C          x =  1.482356  y =  2.685072  z =  2.171196 angstrom
           Maximum rank =  0   Radius =  0.650 angstrom
                   Q00  =  -0.244167

C          x =  0.366356  y =  2.355072  z =  3.163196 angstrom
           Maximum rank =  0   Radius =  0.650 angstrom
                   Q00  =  -0.226089

H          x =  2.201356  y =  3.374072  z =  2.609196 angstrom
           Maximum rank =  0   Radius =  0.325 angstrom
                   Q00  =   0.079225

H          x =  2.014356  y =  1.770072  z =  1.926196 angstrom
           Maximum rank =  0   Radius =  0.325 angstrom
                   Q00  =   0.076166

H          x =  1.065356  y =  3.122072  z =  1.263196 angstrom
           Maximum rank =  0   Radius =  0.325 angstrom
                   Q00  =   0.076389

H          x =  0.785356  y =  1.728072  z =  3.949196 angstrom
           Maximum rank =  0   Radius =  0.325 angstrom
                   Q00  =   0.076914

H          x = -0.035224  y =  3.269322  z =  3.624586 angstrom
           Maximum rank =  0   Radius =  0.325 angstrom
                   Q00  =   0.077432

H          x = -0.430094  y =  1.785462  z =  2.661996 angstrom
           Maximum rank =  0   Radius =  0.325 angstrom
                   Q00  =   0.085097

C          x = -2.218644  y =  0.045072  z = -2.116804 angstrom
           Maximum rank =  0   Radius =  0.650 angstrom
                   Q00  =  -0.198727

C          x =  1.035356  y = -0.118928  z = -0.170804 angstrom
           Maximum rank =  0   Radius =  0.650 angstrom
                   Q00  =  -0.068001

C          x = -0.051644  y =  0.376072  z = -0.880804 angstrom
           Maximum rank =  0   Radius =  0.650 angstrom
                   Q00  =  -0.088332

C          x =  1.145356  y = -1.481928  z =  0.078196 angstrom
           Maximum rank =  0   Radius =  0.650 angstrom
                   Q00  =  -0.080645

C          x = -1.029644  y = -0.487928  z = -1.360804 angstrom
           Maximum rank =  0   Radius =  0.650 angstrom
                   Q00  =  -0.102335

C          x =  0.167356  y = -2.348928  z = -0.390804 angstrom
           Maximum rank =  0   Radius =  0.650 angstrom
                   Q00  =  -0.084276

C          x = -0.916644  y = -1.849928  z = -1.102804 angstrom
           Maximum rank =  0   Radius =  0.650 angstrom
                   Q00  =   0.017685

H          x =  1.808356  y =  0.556072  z =  0.159196 angstrom
           Maximum rank =  0   Radius =  0.325 angstrom
                   Q00  =   0.066674

H          x = -0.131644  y =  1.438072  z = -1.066804 angstrom
           Maximum rank =  0   Radius =  0.325 angstrom
                   Q00  =   0.054618

H          x =  1.993356  y = -1.867928  z =  0.627196 angstrom
           Maximum rank =  0   Radius =  0.325 angstrom
                   Q00  =   0.060190

H          x =  0.249356  y = -3.410928  z = -0.196804 angstrom
           Maximum rank =  0   Radius =  0.325 angstrom
                   Q00  =   0.064457

H          x = -2.623644  y =  0.888072  z = -1.560804 angstrom
           Maximum rank =  0   Radius =  0.325 angstrom
                   Q00  =   0.097695

H          x = -2.983644  y = -0.721928  z = -2.146804 angstrom
           Maximum rank =  0   Radius =  0.325 angstrom
                   Q00  =   0.098647

H          x = -1.687644  y = -2.509928  z = -1.457804 angstrom
           Maximum rank =  0   Radius =  0.325 angstrom
                   Q00  =   0.057243

H          x = -1.989884  y =  0.418692  z = -3.125804 angstrom
           Maximum rank =  0   Radius =  0.325 angstrom
                   Q00  =   0.104141

Total multipoles referred to origin at
           x =   0.000000,  y =    0.000000,  z =    0.000000 angstrom
                   Q00  =  -0.000000

Finished at 20:12:23 on 28 Apr 2020

  DMA results are available in the Python driver through the
	  variable('DMA DISTRIBUTED MULTIPOLES')
  and
	  variable('DMA TOTAL MULTIPOLES')
  commands.

    Psi4 stopped on: Tuesday, 28 April 2020 08:12PM
    Psi4 wall time for execution: 0:01:25.13

*** Psi4 exiting successfully. Buy a developer a beer!
