                               Psi4 1.3.2 release

  ==> Input File <==

--------------------------------------------------------------------------
import numpy as np
set {scf_type pk
basis cc-pvdz
d_convergence 10
gdma_switch   0
gdma_limit    0
gdma_origin   [ 0.0,  0.0,  0.0 ]
}
molecule test {
    units Angstrom
    0 1
    --
    0 1
    C               -0.323946679824156     1.841230518567295     1.367726499147515
    C               -1.021946679824156     2.639230518567295     2.471726499147514
    H               -0.343946679824156     0.776230518567295     1.600726499147515
    H               -0.838946679824156     2.002230518567295     0.420726499147515
    H                0.707053320175844     2.170230518567295     1.245726499147515
    H               -0.918946679824156     3.704230518567295     2.259726499147515
    H               -0.573986679824156     2.417040518567295     3.451506499147515
    H               -2.091598679824156     2.382820518567295     2.481766499147514
    C                1.188053320175844    -1.879769481432705    -0.057273500852485
    C                0.354053320175844    -1.085769481432705    -1.036273500852485
    O                0.854053320175844    -0.219769481432705    -1.741273500852485
    N               -0.939946679824156    -1.361769481432705    -1.078273500852485
    H                0.901053320175844    -2.930769481432705    -0.128273500852485
    H                0.940053320175844    -1.526769481432705     0.942726499147514
    H               -1.522946679824156    -0.839769481432705    -1.713273500852485
    H               -1.357946679824156    -1.992769481432705    -0.400273500852485
    H                2.269383320175844    -1.791819481432705    -0.238933500852485

}
e, wfn = energy('scf', return_wfn=True)
gdma(wfn)
dmavals = variable('DMA DISTRIBUTED MULTIPOLES')
charges = np.array(dmavals)
print(charges)
np.save('SSI-072THR-175GLN-1-dimer.npy', np.array(charges))--------------------------------------------------------------------------

*** tstart() called on ds3
*** at Mon Apr 27 21:57:01 2020

   => Loading Basis Set <=

    Name: CC-PVDZ
    Role: ORBITAL
    Keyword: BASIS
    atoms 1-2, 9-10  entry C          line   138 file /theoryfs2/ds/metcalf/miniconda2/envs/tf2gpu/share/psi4/basis/cc-pvdz.gbs
    atoms 3-8, 13-17 entry H          line    22 file /theoryfs2/ds/metcalf/miniconda2/envs/tf2gpu/share/psi4/basis/cc-pvdz.gbs
    atoms 11         entry O          line   198 file /theoryfs2/ds/metcalf/miniconda2/envs/tf2gpu/share/psi4/basis/cc-pvdz.gbs
    atoms 12         entry N          line   168 file /theoryfs2/ds/metcalf/miniconda2/envs/tf2gpu/share/psi4/basis/cc-pvdz.gbs

         ---------------------------------------------------------
                                   SCF
               by Justin Turney, Rob Parrish, Andy Simmonett
                          and Daniel G. A. Smith
                              RHF Reference
                        1 Threads,    500 MiB Core
         ---------------------------------------------------------

  ==> Geometry <==

    Molecular point group: c1
    Full point group: C1

    Geometry (in Angstrom), charge = 0, multiplicity = 1:

       Center              X                  Y                   Z               Mass
    ------------   -----------------  -----------------  -----------------  -----------------
         C           -0.323946679824     1.841230518567     1.367726499148    12.000000000000
         C           -1.021946679824     2.639230518567     2.471726499148    12.000000000000
         H           -0.343946679824     0.776230518567     1.600726499148     1.007825032230
         H           -0.838946679824     2.002230518567     0.420726499148     1.007825032230
         H            0.707053320176     2.170230518567     1.245726499148     1.007825032230
         H           -0.918946679824     3.704230518567     2.259726499148     1.007825032230
         H           -0.573986679824     2.417040518567     3.451506499148     1.007825032230
         H           -2.091598679824     2.382820518567     2.481766499148     1.007825032230
         C            1.188053320176    -1.879769481433    -0.057273500852    12.000000000000
         C            0.354053320176    -1.085769481433    -1.036273500852    12.000000000000
         O            0.854053320176    -0.219769481433    -1.741273500852    15.994914619570
         N           -0.939946679824    -1.361769481433    -1.078273500852    14.003074004430
         H            0.901053320176    -2.930769481433    -0.128273500852     1.007825032230
         H            0.940053320176    -1.526769481433     0.942726499148     1.007825032230
         H           -1.522946679824    -0.839769481433    -1.713273500852     1.007825032230
         H           -1.357946679824    -1.992769481433    -0.400273500852     1.007825032230
         H            2.269383320176    -1.791819481433    -0.238933500852     1.007825032230

  Running in c1 symmetry.

  Rotational constants: A =      0.16247  B =      0.03468  C =      0.03427 [cm^-1]
  Rotational constants: A =   4870.81973  B =   1039.64539  C =   1027.42595 [MHz]
  Nuclear repulsion =  230.416803676329607

  Charge       = 0
  Multiplicity = 1
  Electrons    = 50
  Nalpha       = 25
  Nbeta        = 25

  ==> Algorithm <==

  SCF Algorithm Type is PK.
  DIIS enabled.
  MOM disabled.
  Fractional occupation disabled.
  Guess Type is SAD.
  Energy threshold   = 1.00e-06
  Density threshold  = 1.00e-10
  Integral threshold = 0.00e+00

  ==> Primary Basis <==

  Basis Set: CC-PVDZ
    Blend: CC-PVDZ
    Number of shells: 69
    Number of basis function: 139
    Number of Cartesian functions: 145
    Spherical Harmonics?: true
    Max angular momentum: 2

  ==> Pre-Iterations <==

   -------------------------------------------------------
    Irrep   Nso     Nmo     Nalpha   Nbeta   Ndocc  Nsocc
   -------------------------------------------------------
     A        139     139       0       0       0       0
   -------------------------------------------------------
    Total     139     139      25      25      25       0
   -------------------------------------------------------

  ==> Integral Setup <==

  Using integral reordering PK algorithm.
  Sizing the integral batches needed.
  Building batch lookup table.
   Calculation information:
      Number of atoms:                  17
      Number of AO shells:              69
      Number of primitives:            187
      Number of atomic orbitals:       145
      Number of basis functions:       139

      Integral cutoff                 1.00e-12
      Number of threads:                 1

	Batch   1 pq = [       0,    9730] index = [             0,47341315] size =     47341315
  Task number: 5
  Buffer size: 11059200
  Buffer per thread: 2
  We computed 2417331 shell quartets total.
  Whereas there are 2917320 unique shell quartets.

  ==> DiskJK: Disk-Based J/K Matrices <==

    J tasked:                  Yes
    K tasked:                  Yes
    wK tasked:                  No
    Memory [MiB]:              375
    Schwarz Cutoff:          1E-12

    OpenMP threads:              1

  Minimum eigenvalue in the overlap matrix is 4.5432870213E-03.
  Using Symmetric Orthogonalization.

  SCF Guess: Superposition of Atomic Densities via on-the-fly atomic UHF.

  ==> Iterations <==

                        Total Energy        Delta E     RMS |[F,P]|

   @RHF iter SAD:  -285.93844893441963   -2.85938e+02   0.00000e+00
   @RHF iter   1:  -286.99671879691999   -1.05827e+00   4.63600e-03 DIIS
   @RHF iter   2:  -287.17323306745152   -1.76514e-01   2.59151e-03 DIIS
   @RHF iter   3:  -287.22297326284257   -4.97402e-02   5.37415e-04 DIIS
   @RHF iter   4:  -287.22632070986884   -3.34745e-03   2.19306e-04 DIIS
   @RHF iter   5:  -287.22692053292565   -5.99823e-04   3.44078e-05 DIIS
   @RHF iter   6:  -287.22695118927658   -3.06564e-05   1.56054e-05 DIIS
   @RHF iter   7:  -287.22695607420695   -4.88493e-06   6.25788e-06 DIIS
   @RHF iter   8:  -287.22695714708937   -1.07288e-06   2.11088e-06 DIIS
   @RHF iter   9:  -287.22695727528895   -1.28200e-07   5.19930e-07 DIIS
   @RHF iter  10:  -287.22695728094726   -5.65831e-09   1.62679e-07 DIIS
   @RHF iter  11:  -287.22695728154798   -6.00721e-10   3.53864e-08 DIIS
   @RHF iter  12:  -287.22695728157896   -3.09797e-11   7.82267e-09 DIIS
   @RHF iter  13:  -287.22695728158027   -1.30740e-12   1.63425e-09 DIIS
   @RHF iter  14:  -287.22695728158118   -9.09495e-13   7.46462e-10 DIIS
   @RHF iter  15:  -287.22695728158112    5.68434e-14   3.16378e-10 DIIS
   @RHF iter  16:  -287.22695728158072    3.97904e-13   1.18754e-10 DIIS
   @RHF iter  17:  -287.22695728158135   -6.25278e-13   4.84405e-11 DIIS
  Energy and wave function converged.

  ==> Post-Iterations <==

    Orbital Energies [Eh]
    ---------------------

    Doubly Occupied:

       1A    -20.501712     2A    -15.587216     3A    -11.344561
       4A    -11.240924     5A    -11.218575     6A    -11.214120
       7A     -1.369131     8A     -1.215674     9A     -1.015851
      10A     -1.000173    11A     -0.834559    12A     -0.797714
      13A     -0.724927    14A     -0.652976    15A     -0.615295
      16A     -0.596642    17A     -0.594794    18A     -0.569837
      19A     -0.557226    20A     -0.521217    21A     -0.496809
      22A     -0.485539    23A     -0.482717    24A     -0.407963
      25A     -0.402688

    Virtual:

      26A      0.154885    27A      0.190284    28A      0.205170
      29A      0.209329    30A      0.229100    31A      0.248501
      32A      0.252677    33A      0.257468    34A      0.264931
      35A      0.281892    36A      0.293743    37A      0.348851
      38A      0.383313    39A      0.389831    40A      0.469410
      41A      0.543069    42A      0.594354    43A      0.599167
      44A      0.601319    45A      0.635045    46A      0.654614
      47A      0.673747    48A      0.695076    49A      0.707299
      50A      0.738512    51A      0.744300    52A      0.788138
      53A      0.836345    54A      0.873070    55A      0.875045
      56A      0.891974    57A      0.894695    58A      0.903669
      59A      0.912901    60A      0.914647    61A      0.920323
      62A      0.935515    63A      0.948389    64A      0.991360
      65A      1.012064    66A      1.033034    67A      1.067670
      68A      1.116110    69A      1.125885    70A      1.128299
      71A      1.141312    72A      1.244632    73A      1.326748
      74A      1.347026    75A      1.373120    76A      1.384707
      77A      1.419459    78A      1.468715    79A      1.475611
      80A      1.482038    81A      1.502596    82A      1.582330
      83A      1.656443    84A      1.667822    85A      1.680394
      86A      1.697775    87A      1.724790    88A      1.801153
      89A      1.848422    90A      1.859330    91A      1.876307
      92A      1.887109    93A      1.901176    94A      1.908998
      95A      1.925053    96A      1.944884    97A      1.949373
      98A      1.952774    99A      1.956736   100A      1.962339
     101A      1.974170   102A      2.011139   103A      2.043694
     104A      2.087199   105A      2.108492   106A      2.112436
     107A      2.162320   108A      2.234317   109A      2.262628
     110A      2.301489   111A      2.316742   112A      2.427779
     113A      2.448898   114A      2.460414   115A      2.461485
     116A      2.498531   117A      2.537208   118A      2.564692
     119A      2.571311   120A      2.603364   121A      2.625368
     122A      2.709361   123A      2.751753   124A      2.763281
     125A      2.790983   126A      2.798166   127A      2.846258
     128A      2.856615   129A      2.875811   130A      2.949259
     131A      2.961446   132A      2.994042   133A      3.094865
     134A      3.141859   135A      3.274027   136A      3.515246
     137A      3.540435   138A      3.872131   139A      3.912697

    Final Occupation by Irrep:
              A
    DOCC [    25 ]

  @RHF Final Energy:  -287.22695728158135

   => Energetics <=

    Nuclear Repulsion Energy =            230.4168036763296072
    One-Electron Energy =                -846.3898408148447743
    Two-Electron Energy =                 328.7460798569337612
    Total Energy =                       -287.2269572815813490

Computation Completed

Properties will be evaluated at   0.000000,   0.000000,   0.000000 [a0]

Properties computed using the SCF density matrix

  Nuclear Dipole Moment: [e a0]
     X:    -2.6469      Y:     4.1005      Z:     9.2965

  Electronic Dipole Moment: [e a0]
     X:     1.6932      Y:    -5.1167      Z:    -8.4592

  Dipole Moment: [e a0]
     X:    -0.9537      Y:    -1.0162      Z:     0.8373     Total:     1.6258

  Dipole Moment: [D]
     X:    -2.4241      Y:    -2.5829      Z:     2.1281     Total:     4.1324

*** tstop() called on ds3 at Mon Apr 27 21:57:23 2020
Module time:
	user time   =      14.95 seconds =       0.25 minutes
	system time =       6.73 seconds =       0.11 minutes
	total time  =         22 seconds =       0.37 minutes
Total time:
	user time   =      14.95 seconds =       0.25 minutes
	system time =       6.73 seconds =       0.11 minutes
	total time  =         22 seconds =       0.37 minutes
                                     G D M A

                                 by Anthony Stone

                           version 2.2.06, 22 June 2011

               Distributed Multipoles from Gaussian wavefunctions

Starting at 21:57:23 on 27 Apr 2020

Using SCF density matrix from file ./SSI/SSI-072THR-175GLN-1-dimer.test.27462.fchk

                         Distributed Multipole Analysis

Standard DMA

Positions and radii in angstrom
Multipole moments in atomic units, ea_0^k for rank k

C          x = -0.323947  y =  1.841231  z =  1.367727 angstrom
           Maximum rank =  0   Radius =  0.650 angstrom
                   Q00  =  -0.222611

C          x = -1.021947  y =  2.639231  z =  2.471727 angstrom
           Maximum rank =  0   Radius =  0.650 angstrom
                   Q00  =  -0.244903

H          x = -0.343947  y =  0.776231  z =  1.600727 angstrom
           Maximum rank =  0   Radius =  0.325 angstrom
                   Q00  =   0.063021

H          x = -0.838947  y =  2.002231  z =  0.420726 angstrom
           Maximum rank =  0   Radius =  0.325 angstrom
                   Q00  =   0.083566

H          x =  0.707053  y =  2.170231  z =  1.245726 angstrom
           Maximum rank =  0   Radius =  0.325 angstrom
                   Q00  =   0.086657

H          x = -0.918947  y =  3.704231  z =  2.259726 angstrom
           Maximum rank =  0   Radius =  0.325 angstrom
                   Q00  =   0.082232

H          x = -0.573987  y =  2.417041  z =  3.451506 angstrom
           Maximum rank =  0   Radius =  0.325 angstrom
                   Q00  =   0.077569

H          x = -2.091599  y =  2.382821  z =  2.481767 angstrom
           Maximum rank =  0   Radius =  0.325 angstrom
                   Q00  =   0.074196

C          x =  1.188053  y = -1.879769  z = -0.057274 angstrom
           Maximum rank =  0   Radius =  0.650 angstrom
                   Q00  =  -0.261859

C          x =  0.354053  y = -1.085769  z = -1.036274 angstrom
           Maximum rank =  0   Radius =  0.650 angstrom
                   Q00  =   0.827006

O          x =  0.854053  y = -0.219769  z = -1.741274 angstrom
           Maximum rank =  0   Radius =  0.650 angstrom
                   Q00  =  -0.790350

N          x = -0.939947  y = -1.361769  z = -1.078273 angstrom
           Maximum rank =  0   Radius =  0.650 angstrom
                   Q00  =  -0.536411

H          x =  0.901053  y = -2.930769  z = -0.128274 angstrom
           Maximum rank =  0   Radius =  0.325 angstrom
                   Q00  =   0.089576

H          x =  0.940053  y = -1.526769  z =  0.942726 angstrom
           Maximum rank =  0   Radius =  0.325 angstrom
                   Q00  =   0.115577

H          x = -1.522947  y = -0.839769  z = -1.713273 angstrom
           Maximum rank =  0   Radius =  0.325 angstrom
                   Q00  =   0.220755

H          x = -1.357947  y = -1.992769  z = -0.400274 angstrom
           Maximum rank =  0   Radius =  0.325 angstrom
                   Q00  =   0.204176

H          x =  2.269383  y = -1.791819  z = -0.238934 angstrom
           Maximum rank =  0   Radius =  0.325 angstrom
                   Q00  =   0.131804

Total multipoles referred to origin at
           x =   0.000000,  y =    0.000000,  z =    0.000000 angstrom
                   Q00  =  -0.000000

Finished at 21:57:23 on 27 Apr 2020

  DMA results are available in the Python driver through the
	  variable('DMA DISTRIBUTED MULTIPOLES')
  and
	  variable('DMA TOTAL MULTIPOLES')
  commands.

    Psi4 stopped on: Monday, 27 April 2020 09:57PM
    Psi4 wall time for execution: 0:00:21.71

*** Psi4 exiting successfully. Buy a developer a beer!
