                               Psi4 1.3.2 release

  ==> Input File <==

--------------------------------------------------------------------------
import numpy as np
set {scf_type pk
basis cc-pvdz
d_convergence 10
gdma_switch   0
gdma_limit    0
gdma_origin   [ 0.0,  0.0,  0.0 ]
}
molecule test {
    units Angstrom
    0 1
    --
    0 1
    C               -2.685182061360891     2.227426993900177    -2.464475773709037
    C               -1.832182061360891    -1.254573006099823    -2.039475773709037
    C               -2.017182061360891     0.919426993900177    -2.242475773709037
    C               -0.702182061360891     0.631426993900177    -2.055475773709037
    N               -2.706182061360892    -0.276573006099823    -2.220475773709038
    N               -0.613182061360891    -0.728573006099823    -1.944475773709037
    H               -2.138182061360891    -2.290573006099823    -1.986475773709037
    H                0.243817938639109    -1.242573006099823    -1.807475773709037
    H                0.168817938639109     1.268426993900177    -1.994475773709037
    H               -1.965182061360891     3.006426993900178    -2.236475773709037
    H               -3.515182061360891     2.279426993900178    -1.758475773709037
    H               -3.044522061360891     2.348646993900177    -3.497035773709038
    C                3.836817938639109    -0.424573006099823     2.901524226290963
    C               -0.177182061360891    -0.101573006099823     1.227524226290963
    C                0.641817938639109     1.025426993900177     1.273524226290963
    C                0.312817938639109    -1.315573006099823     1.687524226290963
    C                1.957817938639109     0.921426993900177     1.786524226290963
    C                1.616817938639109    -1.414573006099823     2.206524226290963
    C                2.453817938639109    -0.300573006099823     2.266524226290963
    H               -1.184182061360891    -0.035573006099823     0.834524226290963
    H                0.258817938639109     1.973426993900177     0.915524226290963
    H               -0.324182061360891    -2.186573006099823     1.642524226290963
    H                2.592817938639109     1.795426993900177     1.818524226290963
    H                1.984817938639109    -2.364573006099822     2.567524226290963
    H                4.106817938639109    -1.482573006099823     2.886524226290963
    H                3.738817938639109    -0.107573006099823     3.942524226290963
    H                4.642487938639109     0.124846993900177     2.392564226290963

}
e, wfn = energy('scf', return_wfn=True)
gdma(wfn)
dmavals = variable('DMA DISTRIBUTED MULTIPOLES')
charges = np.array(dmavals)
print(charges)
np.save('SSI-081HIE-202PHE-1-dimer.npy', np.array(charges))--------------------------------------------------------------------------

*** tstart() called on ds3
*** at Mon Apr 27 22:41:55 2020

   => Loading Basis Set <=

    Name: CC-PVDZ
    Role: ORBITAL
    Keyword: BASIS
    atoms 1-4, 13-19  entry C          line   138 file /theoryfs2/ds/metcalf/miniconda2/envs/tf2gpu/share/psi4/basis/cc-pvdz.gbs
    atoms 5-6         entry N          line   168 file /theoryfs2/ds/metcalf/miniconda2/envs/tf2gpu/share/psi4/basis/cc-pvdz.gbs
    atoms 7-12, 20-27 entry H          line    22 file /theoryfs2/ds/metcalf/miniconda2/envs/tf2gpu/share/psi4/basis/cc-pvdz.gbs

         ---------------------------------------------------------
                                   SCF
               by Justin Turney, Rob Parrish, Andy Simmonett
                          and Daniel G. A. Smith
                              RHF Reference
                        1 Threads,    500 MiB Core
         ---------------------------------------------------------

  ==> Geometry <==

    Molecular point group: c1
    Full point group: C1

    Geometry (in Angstrom), charge = 0, multiplicity = 1:

       Center              X                  Y                   Z               Mass
    ------------   -----------------  -----------------  -----------------  -----------------
         C           -2.685182061361     2.227426993900    -2.464475773709    12.000000000000
         C           -1.832182061361    -1.254573006100    -2.039475773709    12.000000000000
         C           -2.017182061361     0.919426993900    -2.242475773709    12.000000000000
         C           -0.702182061361     0.631426993900    -2.055475773709    12.000000000000
         N           -2.706182061361    -0.276573006100    -2.220475773709    14.003074004430
         N           -0.613182061361    -0.728573006100    -1.944475773709    14.003074004430
         H           -2.138182061361    -2.290573006100    -1.986475773709     1.007825032230
         H            0.243817938639    -1.242573006100    -1.807475773709     1.007825032230
         H            0.168817938639     1.268426993900    -1.994475773709     1.007825032230
         H           -1.965182061361     3.006426993900    -2.236475773709     1.007825032230
         H           -3.515182061361     2.279426993900    -1.758475773709     1.007825032230
         H           -3.044522061361     2.348646993900    -3.497035773709     1.007825032230
         C            3.836817938639    -0.424573006100     2.901524226291    12.000000000000
         C           -0.177182061361    -0.101573006100     1.227524226291    12.000000000000
         C            0.641817938639     1.025426993900     1.273524226291    12.000000000000
         C            0.312817938639    -1.315573006100     1.687524226291    12.000000000000
         C            1.957817938639     0.921426993900     1.786524226291    12.000000000000
         C            1.616817938639    -1.414573006100     2.206524226291    12.000000000000
         C            2.453817938639    -0.300573006100     2.266524226291    12.000000000000
         H           -1.184182061361    -0.035573006100     0.834524226291     1.007825032230
         H            0.258817938639     1.973426993900     0.915524226291     1.007825032230
         H           -0.324182061361    -2.186573006100     1.642524226291     1.007825032230
         H            2.592817938639     1.795426993900     1.818524226291     1.007825032230
         H            1.984817938639    -2.364573006100     2.567524226291     1.007825032230
         H            4.106817938639    -1.482573006100     2.886524226291     1.007825032230
         H            3.738817938639    -0.107573006100     3.942524226291     1.007825032230
         H            4.642487938639     0.124846993900     2.392564226291     1.007825032230

  Running in c1 symmetry.

  Rotational constants: A =      0.06200  B =      0.01122  C =      0.01035 [cm^-1]
  Rotational constants: A =   1858.66158  B =    336.48214  C =    310.21399 [MHz]
  Nuclear repulsion =  714.036053100676668

  Charge       = 0
  Multiplicity = 1
  Electrons    = 94
  Nalpha       = 47
  Nbeta        = 47

  ==> Algorithm <==

  SCF Algorithm Type is PK.
  DIIS enabled.
  MOM disabled.
  Fractional occupation disabled.
  Guess Type is SAD.
  Energy threshold   = 1.00e-06
  Density threshold  = 1.00e-10
  Integral threshold = 0.00e+00

  ==> Primary Basis <==

  Basis Set: CC-PVDZ
    Blend: CC-PVDZ
    Number of shells: 120
    Number of basis function: 252
    Number of Cartesian functions: 265
    Spherical Harmonics?: true
    Max angular momentum: 2

  ==> Pre-Iterations <==

   -------------------------------------------------------
    Irrep   Nso     Nmo     Nalpha   Nbeta   Ndocc  Nsocc
   -------------------------------------------------------
     A        252     252       0       0       0       0
   -------------------------------------------------------
    Total     252     252      47      47      47       0
   -------------------------------------------------------

  ==> Integral Setup <==

  Using integral reordering PK algorithm.
  Sizing the integral batches needed.
  Building batch lookup table.
   Calculation information:
      Number of atoms:                  27
      Number of AO shells:             120
      Number of primitives:            356
      Number of atomic orbitals:       265
      Number of basis functions:       252

      Integral cutoff                 1.00e-12
      Number of threads:                 1

	Batch   1 pq = [       0,    9405] index = [             0,44231715] size =     44231715
	Batch   2 pq = [    9405,   13301] index = [      44231715,88464951] size =     44233236
	Batch   3 pq = [   13301,   16290] index = [      88464951,132690195] size =     44225244
	Batch   4 pq = [   16290,   18810] index = [     132690195,176917455] size =     44227260
	Batch   5 pq = [   18810,   21030] index = [     176917455,221140965] size =     44223510
	Batch   6 pq = [   21030,   23037] index = [     221140965,265363203] size =     44222238
	Batch   7 pq = [   23037,   24883] index = [     265363203,309594286] size =     44231083
	Batch   8 pq = [   24883,   26601] index = [     309594286,353819901] size =     44225615
	Batch   9 pq = [   26601,   28214] index = [     353819901,398029005] size =     44209104
	Batch  10 pq = [   28214,   29740] index = [     398029005,442248670] size =     44219665
	Batch  11 pq = [   29740,   31191] index = [     442248670,486454836] size =     44206166
	Batch  12 pq = [   31191,   31878] index = [     486454836,508119381] size =     21664545
  Task number: 46
  Buffer size: 11059200
  Buffer per thread: 2
  We computed 23185160 shell quartets total.
  Whereas there are 26357430 unique shell quartets.

  ==> DiskJK: Disk-Based J/K Matrices <==

    J tasked:                  Yes
    K tasked:                  Yes
    wK tasked:                  No
    Memory [MiB]:              375
    Schwarz Cutoff:          1E-12

    OpenMP threads:              1

  Minimum eigenvalue in the overlap matrix is 3.1893508720E-04.
  Using Symmetric Orthogonalization.

  SCF Guess: Superposition of Atomic Densities via on-the-fly atomic UHF.

  ==> Iterations <==

                        Total Energy        Delta E     RMS |[F,P]|

   @RHF iter SAD:  -532.66373515313046   -5.32664e+02   0.00000e+00
   @RHF iter   1:  -533.35513100918251   -6.91396e-01   2.52809e-03 DIIS
   @RHF iter   2:  -533.58326727117128   -2.28136e-01   1.19855e-03 DIIS
   @RHF iter   3:  -533.62710667999011   -4.38394e-02   3.29481e-04 DIIS
   @RHF iter   4:  -533.63133970020647   -4.23302e-03   1.35737e-04 DIIS
   @RHF iter   5:  -533.63197908287748   -6.39383e-04   2.05942e-05 DIIS
   @RHF iter   6:  -533.63200342630535   -2.43434e-05   8.81441e-06 DIIS
   @RHF iter   7:  -533.63200783389891   -4.40759e-06   3.05002e-06 DIIS
   @RHF iter   8:  -533.63200875839038   -9.24491e-07   1.29330e-06 DIIS
   @RHF iter   9:  -533.63200895961552   -2.01225e-07   5.66184e-07 DIIS
   @RHF iter  10:  -533.63200899317417   -3.35586e-08   1.82984e-07 DIIS
   @RHF iter  11:  -533.63200899690980   -3.73564e-09   7.14314e-08 DIIS
   @RHF iter  12:  -533.63200899751200   -6.02199e-10   3.47801e-08 DIIS
   @RHF iter  13:  -533.63200899764922   -1.37220e-10   1.18985e-08 DIIS
   @RHF iter  14:  -533.63200899766741   -1.81899e-11   5.13462e-09 DIIS
   @RHF iter  15:  -533.63200899766389    3.52429e-12   2.39202e-09 DIIS
   @RHF iter  16:  -533.63200899767196   -8.07177e-12   8.54056e-10 DIIS
   @RHF iter  17:  -533.63200899766559    6.36646e-12   3.34424e-10 DIIS
   @RHF iter  18:  -533.63200899766935   -3.75167e-12   1.41395e-10 DIIS
   @RHF iter  19:  -533.63200899766582    3.52429e-12   5.84974e-11 DIIS
  Energy and wave function converged.

  ==> Post-Iterations <==

    Orbital Energies [Eh]
    ---------------------

    Doubly Occupied:

       1A    -15.614793     2A    -15.525863     3A    -11.289095
       4A    -11.247311     5A    -11.247202     6A    -11.241072
       7A    -11.239106     8A    -11.238347     9A    -11.238106
      10A    -11.236799    11A    -11.236540    12A    -11.232853
      13A    -11.220762    14A     -1.340624    15A     -1.153043
      16A     -1.150353    17A     -1.045456    18A     -1.032060
      19A     -1.007853    20A     -0.939472    21A     -0.934322
      22A     -0.828571    23A     -0.814678    24A     -0.794265
      25A     -0.765686    26A     -0.734002    27A     -0.691749
      28A     -0.633682    29A     -0.629658    30A     -0.608705
      31A     -0.603993    32A     -0.596184    33A     -0.582750
      34A     -0.579972    35A     -0.564741    36A     -0.552310
      37A     -0.537670    38A     -0.536721    39A     -0.520584
      40A     -0.488137    41A     -0.486717    42A     -0.482489
      43A     -0.411468    44A     -0.376521    45A     -0.332270
      46A     -0.325901    47A     -0.306358

    Virtual:

      48A      0.127260    49A      0.139146    50A      0.171007
      51A      0.187915    52A      0.188657    53A      0.194376
      54A      0.208724    55A      0.224576    56A      0.227801
      57A      0.229627    58A      0.238236    59A      0.251844
      60A      0.263206    61A      0.265878    62A      0.275198
      63A      0.285969    64A      0.294013    65A      0.309254
      66A      0.357821    67A      0.367002    68A      0.384145
      69A      0.394159    70A      0.424811    71A      0.446312
      72A      0.460725    73A      0.468551    74A      0.484631
      75A      0.488516    76A      0.505197    77A      0.554103
      78A      0.589095    79A      0.608381    80A      0.615964
      81A      0.630997    82A      0.640144    83A      0.662775
      84A      0.672836    85A      0.680109    86A      0.692875
      87A      0.705978    88A      0.713760    89A      0.726674
      90A      0.730777    91A      0.734851    92A      0.740773
      93A      0.742852    94A      0.746633    95A      0.756720
      96A      0.762392    97A      0.769900    98A      0.800740
      99A      0.812431   100A      0.826328   101A      0.835557
     102A      0.844005   103A      0.862038   104A      0.865911
     105A      0.868302   106A      0.878940   107A      0.880822
     108A      0.889730   109A      0.890819   110A      0.911363
     111A      0.916100   112A      0.918225   113A      0.934590
     114A      0.937162   115A      0.942527   116A      0.953804
     117A      0.966307   118A      0.992115   119A      0.993000
     120A      1.012184   121A      1.038349   122A      1.051749
     123A      1.082356   124A      1.089752   125A      1.113819
     126A      1.119522   127A      1.122514   128A      1.143904
     129A      1.150177   130A      1.156884   131A      1.160208
     132A      1.179781   133A      1.201103   134A      1.226775
     135A      1.233879   136A      1.247470   137A      1.252658
     138A      1.275874   139A      1.279572   140A      1.292422
     141A      1.304045   142A      1.318922   143A      1.325126
     144A      1.326464   145A      1.343563   146A      1.376654
     147A      1.418199   148A      1.450863   149A      1.456854
     150A      1.488700   151A      1.501438   152A      1.533823
     153A      1.541876   154A      1.549578   155A      1.576601
     156A      1.596197   157A      1.619581   158A      1.630261
     159A      1.659327   160A      1.683610   161A      1.696469
     162A      1.721613   163A      1.726471   164A      1.743448
     165A      1.777647   166A      1.784908   167A      1.790071
     168A      1.806251   169A      1.813611   170A      1.824351
     171A      1.866531   172A      1.871781   173A      1.879076
     174A      1.883997   175A      1.894810   176A      1.901871
     177A      1.922686   178A      1.924504   179A      1.932143
     180A      1.940673   181A      1.954253   182A      1.956336
     183A      1.968020   184A      1.972508   185A      1.976030
     186A      1.981044   187A      2.002448   188A      2.008670
     189A      2.028388   190A      2.053802   191A      2.064936
     192A      2.074630   193A      2.092107   194A      2.107929
     195A      2.124065   196A      2.138231   197A      2.146117
     198A      2.156666   199A      2.158489   200A      2.162571
     201A      2.176416   202A      2.194512   203A      2.212017
     204A      2.238859   205A      2.256846   206A      2.262021
     207A      2.282674   208A      2.288533   209A      2.321843
     210A      2.326683   211A      2.340687   212A      2.366833
     213A      2.411230   214A      2.439911   215A      2.454379
     216A      2.457268   217A      2.465100   218A      2.481645
     219A      2.505615   220A      2.522387   221A      2.553891
     222A      2.618148   223A      2.621012   224A      2.698642
     225A      2.725056   226A      2.738760   227A      2.751973
     228A      2.760435   229A      2.763330   230A      2.780653
     231A      2.791544   232A      2.798704   233A      2.803093
     234A      2.828348   235A      2.829251   236A      2.852778
     237A      2.858804   238A      2.895142   239A      2.912699
     240A      2.962522   241A      2.970874   242A      2.991805
     243A      3.036865   244A      3.117668   245A      3.138537
     246A      3.174611   247A      3.182998   248A      3.244776
     249A      3.281362   250A      3.492101   251A      3.811828
     252A      3.930862

    Final Occupation by Irrep:
              A
    DOCC [    47 ]

  @RHF Final Energy:  -533.63200899766582

   => Energetics <=

    Nuclear Repulsion Energy =            714.0360531006766678
    One-Electron Energy =               -2138.9424996585503322
    Two-Electron Energy =                 891.2744375602077298
    Total Energy =                       -533.6320089976658210

Computation Completed

Properties will be evaluated at   0.000000,   0.000000,   0.000000 [a0]

Properties computed using the SCF density matrix

  Nuclear Dipole Moment: [e a0]
     X:     5.2274      Y:     2.8965      Z:     3.4993

  Electronic Dipole Moment: [e a0]
     X:    -3.8271      Y:    -3.2219      Z:    -3.2584

  Dipole Moment: [e a0]
     X:     1.4003      Y:    -0.3254      Z:     0.2409     Total:     1.4576

  Dipole Moment: [D]
     X:     3.5591      Y:    -0.8271      Z:     0.6123     Total:     3.7049

*** tstop() called on ds3 at Mon Apr 27 22:48:25 2020
Module time:
	user time   =     199.03 seconds =       3.32 minutes
	system time =      92.40 seconds =       1.54 minutes
	total time  =        390 seconds =       6.50 minutes
Total time:
	user time   =     199.03 seconds =       3.32 minutes
	system time =      92.40 seconds =       1.54 minutes
	total time  =        390 seconds =       6.50 minutes
                                     G D M A

                                 by Anthony Stone

                           version 2.2.06, 22 June 2011

               Distributed Multipoles from Gaussian wavefunctions

Starting at 22:48:25 on 27 Apr 2020

Using SCF density matrix from file ./SSI/SSI-081HIE-202PHE-1-dimer.test.32216.fchk

                         Distributed Multipole Analysis

Standard DMA

Positions and radii in angstrom
Multipole moments in atomic units, ea_0^k for rank k

C          x = -2.685182  y =  2.227427  z = -2.464476 angstrom
           Maximum rank =  0   Radius =  0.650 angstrom
                   Q00  =  -0.183831

C          x = -1.832182  y = -1.254573  z = -2.039476 angstrom
           Maximum rank =  0   Radius =  0.650 angstrom
                   Q00  =   0.450327

C          x = -2.017182  y =  0.919427  z = -2.242476 angstrom
           Maximum rank =  0   Radius =  0.650 angstrom
                   Q00  =   0.212901

C          x = -0.702182  y =  0.631427  z = -2.055476 angstrom
           Maximum rank =  0   Radius =  0.650 angstrom
                   Q00  =  -0.009451

N          x = -2.706182  y = -0.276573  z = -2.220476 angstrom
           Maximum rank =  0   Radius =  0.650 angstrom
                   Q00  =  -0.766426

N          x = -0.613182  y = -0.728573  z = -1.944476 angstrom
           Maximum rank =  0   Radius =  0.650 angstrom
                   Q00  =  -0.451086

H          x = -2.138182  y = -2.290573  z = -1.986476 angstrom
           Maximum rank =  0   Radius =  0.325 angstrom
                   Q00  =   0.123739

H          x =  0.243818  y = -1.242573  z = -1.807476 angstrom
           Maximum rank =  0   Radius =  0.325 angstrom
                   Q00  =   0.224559

H          x =  0.168818  y =  1.268427  z = -1.994476 angstrom
           Maximum rank =  0   Radius =  0.325 angstrom
                   Q00  =   0.098403

H          x = -1.965182  y =  3.006427  z = -2.236476 angstrom
           Maximum rank =  0   Radius =  0.325 angstrom
                   Q00  =   0.089040

H          x = -3.515182  y =  2.279427  z = -1.758476 angstrom
           Maximum rank =  0   Radius =  0.325 angstrom
                   Q00  =   0.109424

H          x = -3.044522  y =  2.348647  z = -3.497036 angstrom
           Maximum rank =  0   Radius =  0.325 angstrom
                   Q00  =   0.107711

C          x =  3.836818  y = -0.424573  z =  2.901524 angstrom
           Maximum rank =  0   Radius =  0.650 angstrom
                   Q00  =  -0.205726

C          x = -0.177182  y = -0.101573  z =  1.227524 angstrom
           Maximum rank =  0   Radius =  0.650 angstrom
                   Q00  =  -0.082206

C          x =  0.641818  y =  1.025427  z =  1.273524 angstrom
           Maximum rank =  0   Radius =  0.650 angstrom
                   Q00  =  -0.084824

C          x =  0.312818  y = -1.315573  z =  1.687524 angstrom
           Maximum rank =  0   Radius =  0.650 angstrom
                   Q00  =  -0.023269

C          x =  1.957818  y =  0.921427  z =  1.786524 angstrom
           Maximum rank =  0   Radius =  0.650 angstrom
                   Q00  =  -0.077149

C          x =  1.616818  y = -1.414573  z =  2.206524 angstrom
           Maximum rank =  0   Radius =  0.650 angstrom
                   Q00  =  -0.050184

C          x =  2.453818  y = -0.300573  z =  2.266524 angstrom
           Maximum rank =  0   Radius =  0.650 angstrom
                   Q00  =  -0.111343

H          x = -1.184182  y = -0.035573  z =  0.834524 angstrom
           Maximum rank =  0   Radius =  0.325 angstrom
                   Q00  =   0.076616

H          x =  0.258818  y =  1.973427  z =  0.915524 angstrom
           Maximum rank =  0   Radius =  0.325 angstrom
                   Q00  =   0.067219

H          x = -0.324182  y = -2.186573  z =  1.642524 angstrom
           Maximum rank =  0   Radius =  0.325 angstrom
                   Q00  =   0.061357

H          x =  2.592818  y =  1.795427  z =  1.818524 angstrom
           Maximum rank =  0   Radius =  0.325 angstrom
                   Q00  =   0.058606

H          x =  1.984818  y = -2.364573  z =  2.567524 angstrom
           Maximum rank =  0   Radius =  0.325 angstrom
                   Q00  =   0.058070

H          x =  4.106818  y = -1.482573  z =  2.886524 angstrom
           Maximum rank =  0   Radius =  0.325 angstrom
                   Q00  =   0.095818

H          x =  3.738818  y = -0.107573  z =  3.942524 angstrom
           Maximum rank =  0   Radius =  0.325 angstrom
                   Q00  =   0.108402

H          x =  4.642488  y =  0.124847  z =  2.392564 angstrom
           Maximum rank =  0   Radius =  0.325 angstrom
                   Q00  =   0.103301

Total multipoles referred to origin at
           x =   0.000000,  y =    0.000000,  z =    0.000000 angstrom
                   Q00  =  -0.000000

Finished at 22:48:25 on 27 Apr 2020

  DMA results are available in the Python driver through the
	  variable('DMA DISTRIBUTED MULTIPOLES')
  and
	  variable('DMA TOTAL MULTIPOLES')
  commands.

    Psi4 stopped on: Monday, 27 April 2020 10:48PM
    Psi4 wall time for execution: 0:06:30.37

*** Psi4 exiting successfully. Buy a developer a beer!
