                               Psi4 1.3.2 release

  ==> Input File <==

--------------------------------------------------------------------------
import numpy as np
set {scf_type pk
basis cc-pvdz
d_convergence 10
gdma_switch   0
gdma_limit    0
gdma_origin   [ 0.0,  0.0,  0.0 ]
}
molecule test {
    units Angstrom
    1 1
    --
    1 1
    C               -0.848860229691985    -0.458706169443330     1.596139915681612
    C               -1.958860229691985    -1.369706169443330     2.103139915681612
    C               -1.070860229691985    -0.200706169443330    -0.859860084318389
    N               -1.215860229691984     0.266293830556670     0.373139915681611
    N               -0.578860229691985    -1.406706169443330    -1.069860084318389
    N               -1.401860229691985     0.551293830556670    -1.887860084318388
    H               -0.629860229691985     0.276293830556670     2.374139915681611
    H                0.056139770308015    -1.049706169443330     1.447139915681612
    H               -2.217860229691984    -2.111706169443330     1.347139915681612
    H               -2.837860229691985    -0.761706169443330     2.322139915681611
    H               -1.595860229691985     1.197293830556670     0.487139915681612
    H               -0.374860229691985    -2.028706169443330    -0.292860084318389
    H               -0.509860229691985    -1.772706169443330    -2.006860084318388
    H               -1.758860229691985     1.485293830556670    -1.759860084318388
    H               -1.302860229691984     0.197293830556670    -2.828860084318389
    H               -1.616700229691985    -1.871776169443330     3.020119915681611
    C                2.304139770308015     0.873293830556670     0.514139915681612
    C                2.767139770308016    -0.334706169443330    -0.298860084318389
    C                2.021139770308015     2.120293830556670    -0.322860084318388
    H                1.411139770308016     0.620293830556670     1.070139915681612
    H                3.073139770308015     1.114293830556670     1.251139915681612
    H                2.067139770308016    -0.470706169443330    -1.122860084318388
    H                2.908139770308016     2.418293830556670    -0.880860084318389
    H                1.215139770308015     1.902293830556670    -1.024860084318389
    H                2.757309770308015    -1.243356169443330     0.321019915681611
    H                3.786279770308016    -0.161836169443330    -0.674980084318389
    H                1.717939770308015     2.947793830556670     0.335399915681611

}
e, wfn = energy('scf', return_wfn=True)
gdma(wfn)
dmavals = variable('DMA DISTRIBUTED MULTIPOLES')
charges = np.array(dmavals)
print(charges)
np.save('SSI-132ARG-136ARG-1-dimer.npy', np.array(charges))--------------------------------------------------------------------------

*** tstart() called on ds3
*** at Sun Apr 26 18:47:45 2020

   => Loading Basis Set <=

    Name: CC-PVDZ
    Role: ORBITAL
    Keyword: BASIS
    atoms 1-3, 17-19  entry C          line   138 file /theoryfs2/ds/metcalf/miniconda2/envs/tf2gpu/share/psi4/basis/cc-pvdz.gbs
    atoms 4-6         entry N          line   168 file /theoryfs2/ds/metcalf/miniconda2/envs/tf2gpu/share/psi4/basis/cc-pvdz.gbs
    atoms 7-16, 20-27 entry H          line    22 file /theoryfs2/ds/metcalf/miniconda2/envs/tf2gpu/share/psi4/basis/cc-pvdz.gbs

         ---------------------------------------------------------
                                   SCF
               by Justin Turney, Rob Parrish, Andy Simmonett
                          and Daniel G. A. Smith
                              RHF Reference
                        1 Threads,    500 MiB Core
         ---------------------------------------------------------

  ==> Geometry <==

    Molecular point group: c1
    Full point group: C1

    Geometry (in Angstrom), charge = 1, multiplicity = 1:

       Center              X                  Y                   Z               Mass
    ------------   -----------------  -----------------  -----------------  -----------------
         C           -0.848860229692    -0.458706169443     1.596139915682    12.000000000000
         C           -1.958860229692    -1.369706169443     2.103139915682    12.000000000000
         C           -1.070860229692    -0.200706169443    -0.859860084318    12.000000000000
         N           -1.215860229692     0.266293830557     0.373139915682    14.003074004430
         N           -0.578860229692    -1.406706169443    -1.069860084318    14.003074004430
         N           -1.401860229692     0.551293830557    -1.887860084318    14.003074004430
         H           -0.629860229692     0.276293830557     2.374139915682     1.007825032230
         H            0.056139770308    -1.049706169443     1.447139915682     1.007825032230
         H           -2.217860229692    -2.111706169443     1.347139915682     1.007825032230
         H           -2.837860229692    -0.761706169443     2.322139915682     1.007825032230
         H           -1.595860229692     1.197293830557     0.487139915682     1.007825032230
         H           -0.374860229692    -2.028706169443    -0.292860084318     1.007825032230
         H           -0.509860229692    -1.772706169443    -2.006860084318     1.007825032230
         H           -1.758860229692     1.485293830557    -1.759860084318     1.007825032230
         H           -1.302860229692     0.197293830557    -2.828860084318     1.007825032230
         H           -1.616700229692    -1.871776169443     3.020119915682     1.007825032230
         C            2.304139770308     0.873293830557     0.514139915682    12.000000000000
         C            2.767139770308    -0.334706169443    -0.298860084318    12.000000000000
         C            2.021139770308     2.120293830557    -0.322860084318    12.000000000000
         H            1.411139770308     0.620293830557     1.070139915682     1.007825032230
         H            3.073139770308     1.114293830557     1.251139915682     1.007825032230
         H            2.067139770308    -0.470706169443    -1.122860084318     1.007825032230
         H            2.908139770308     2.418293830557    -0.880860084318     1.007825032230
         H            1.215139770308     1.902293830557    -1.024860084318     1.007825032230
         H            2.757309770308    -1.243356169443     0.321019915682     1.007825032230
         H            3.786279770308    -0.161836169443    -0.674980084318     1.007825032230
         H            1.717939770308     2.947793830557     0.335399915682     1.007825032230

  Running in c1 symmetry.

  Rotational constants: A =      0.05286  B =      0.02982  C =      0.02505 [cm^-1]
  Rotational constants: A =   1584.80927  B =    893.99293  C =    751.05149 [MHz]
  Nuclear repulsion =  500.824607134153666

  Charge       = 1
  Multiplicity = 1
  Electrons    = 74
  Nalpha       = 37
  Nbeta        = 37

  ==> Algorithm <==

  SCF Algorithm Type is PK.
  DIIS enabled.
  MOM disabled.
  Fractional occupation disabled.
  Guess Type is SAD.
  Energy threshold   = 1.00e-06
  Density threshold  = 1.00e-10
  Integral threshold = 0.00e+00

  ==> Primary Basis <==

  Basis Set: CC-PVDZ
    Blend: CC-PVDZ
    Number of shells: 108
    Number of basis function: 216
    Number of Cartesian functions: 225
    Spherical Harmonics?: true
    Max angular momentum: 2

  ==> Pre-Iterations <==

   -------------------------------------------------------
    Irrep   Nso     Nmo     Nalpha   Nbeta   Ndocc  Nsocc
   -------------------------------------------------------
     A        216     216       0       0       0       0
   -------------------------------------------------------
    Total     216     216      37      37      37       0
   -------------------------------------------------------

  ==> Integral Setup <==

  Using integral reordering PK algorithm.
  Sizing the integral batches needed.
  Building batch lookup table.
   Calculation information:
      Number of atoms:                  27
      Number of AO shells:             108
      Number of primitives:            288
      Number of atomic orbitals:       225
      Number of basis functions:       216

      Integral cutoff                 1.00e-12
      Number of threads:                 1

	Batch   1 pq = [       0,    9405] index = [             0,44231715] size =     44231715
	Batch   2 pq = [    9405,   13301] index = [      44231715,88464951] size =     44233236
	Batch   3 pq = [   13301,   16290] index = [      88464951,132690195] size =     44225244
	Batch   4 pq = [   16290,   18810] index = [     132690195,176917455] size =     44227260
	Batch   5 pq = [   18810,   21030] index = [     176917455,221140965] size =     44223510
	Batch   6 pq = [   21030,   23037] index = [     221140965,265363203] size =     44222238
	Batch   7 pq = [   23037,   23436] index = [     265363203,274634766] size =      9271563
  Task number: 25
  Buffer size: 11059200
  Buffer per thread: 2
  We computed 17689256 shell quartets total.
  Whereas there are 17325441 unique shell quartets.
     2.10 percent of shell quartets recomputed by reordering.

  ==> DiskJK: Disk-Based J/K Matrices <==

    J tasked:                  Yes
    K tasked:                  Yes
    wK tasked:                  No
    Memory [MiB]:              375
    Schwarz Cutoff:          1E-12

    OpenMP threads:              1

  Minimum eigenvalue in the overlap matrix is 3.4331134815E-03.
  Using Symmetric Orthogonalization.

  SCF Guess: Superposition of Atomic Densities via on-the-fly atomic UHF.

  ==> Iterations <==

                        Total Energy        Delta E     RMS |[F,P]|

   @RHF iter SAD:  -400.18745036385047   -4.00187e+02   0.00000e+00
   @RHF iter   1:  -400.62454953919331   -4.37099e-01   3.02116e-03 DIIS
   @RHF iter   2:  -400.85370841032278   -2.29159e-01   1.20235e-03 DIIS
   @RHF iter   3:  -400.88812888294160   -3.44205e-02   2.81199e-04 DIIS
   @RHF iter   4:  -400.89134515074164   -3.21627e-03   4.59490e-05 DIIS
   @RHF iter   5:  -400.89142787313256   -8.27224e-05   1.66909e-05 DIIS
   @RHF iter   6:  -400.89143821691113   -1.03438e-05   3.52625e-06 DIIS
   @RHF iter   7:  -400.89143888498745   -6.68076e-07   1.27348e-06 DIIS
   @RHF iter   8:  -400.89143894919334   -6.42059e-08   3.59422e-07 DIIS
   @RHF iter   9:  -400.89143895469635   -5.50301e-09   9.88584e-08 DIIS
   @RHF iter  10:  -400.89143895518265   -4.86295e-10   2.33549e-08 DIIS
   @RHF iter  11:  -400.89143895521534   -3.26850e-11   1.05505e-08 DIIS
   @RHF iter  12:  -400.89143895522278   -7.44649e-12   3.23180e-09 DIIS
   @RHF iter  13:  -400.89143895522176    1.02318e-12   1.03976e-09 DIIS
   @RHF iter  14:  -400.89143895522295   -1.19371e-12   3.23710e-10 DIIS
   @RHF iter  15:  -400.89143895522301   -5.68434e-14   7.12119e-11 DIIS
  Energy and wave function converged.

  ==> Post-Iterations <==

    Orbital Energies [Eh]
    ---------------------

    Doubly Occupied:

       1A    -15.787664     2A    -15.786975     3A    -15.781125
       4A    -11.588311     5A    -11.434853     6A    -11.367468
       7A    -11.328784     8A    -11.328186     9A    -11.326398
      10A     -1.544044    11A     -1.401279    12A     -1.390187
      13A     -1.186733    14A     -1.165234    15A     -1.061561
      16A     -1.035704    17A     -1.007911    18A     -0.977440
      19A     -0.932321    20A     -0.907476    21A     -0.859950
      22A     -0.853841    23A     -0.821883    24A     -0.795326
      25A     -0.761182    26A     -0.737292    27A     -0.708493
      28A     -0.700864    29A     -0.671815    30A     -0.658600
      31A     -0.652504    32A     -0.646499    33A     -0.612919
      34A     -0.582611    35A     -0.580184    36A     -0.578720
      37A     -0.573666

    Virtual:

      38A     -0.011404    39A      0.018099    40A      0.027325
      41A      0.037653    42A      0.056918    43A      0.077046
      44A      0.086480    45A      0.103766    46A      0.117830
      47A      0.123024    48A      0.137878    49A      0.140183
      50A      0.149462    51A      0.154457    52A      0.165351
      53A      0.172130    54A      0.195773    55A      0.200610
      56A      0.206299    57A      0.223863    58A      0.253006
      59A      0.286648    60A      0.297120    61A      0.309745
      62A      0.341921    63A      0.351145    64A      0.441561
      65A      0.450747    66A      0.464943    67A      0.475483
      68A      0.486504    69A      0.501514    70A      0.513662
      71A      0.528480    72A      0.537403    73A      0.548893
      74A      0.559315    75A      0.572069    76A      0.589109
      77A      0.634109    78A      0.653413    79A      0.675562
      80A      0.685055    81A      0.707766    82A      0.715216
      83A      0.731126    84A      0.733417    85A      0.743364
      86A      0.749810    87A      0.755581    88A      0.769771
      89A      0.771553    90A      0.774750    91A      0.776032
      92A      0.795420    93A      0.801666    94A      0.815828
      95A      0.821004    96A      0.840628    97A      0.841475
      98A      0.850410    99A      0.876389   100A      0.886373
     101A      0.899807   102A      0.906870   103A      0.928129
     104A      0.934023   105A      0.961768   106A      0.980285
     107A      1.001534   108A      1.021954   109A      1.033831
     110A      1.062770   111A      1.120079   112A      1.122983
     113A      1.159286   114A      1.184447   115A      1.202467
     116A      1.209545   117A      1.226468   118A      1.261428
     119A      1.276415   120A      1.318461   121A      1.347988
     122A      1.369100   123A      1.370576   124A      1.392092
     125A      1.419141   126A      1.468220   127A      1.488143
     128A      1.524025   129A      1.542437   130A      1.545694
     131A      1.568644   132A      1.577378   133A      1.595541
     134A      1.612296   135A      1.642724   136A      1.665598
     137A      1.671967   138A      1.694740   139A      1.717029
     140A      1.728064   141A      1.745454   142A      1.750098
     143A      1.763203   144A      1.768141   145A      1.780955
     146A      1.786932   147A      1.795635   148A      1.805002
     149A      1.806586   150A      1.823974   151A      1.839413
     152A      1.842695   153A      1.852188   154A      1.865004
     155A      1.876829   156A      1.884658   157A      1.890526
     158A      1.897670   159A      1.921550   160A      1.926607
     161A      1.930769   162A      1.957045   163A      1.974720
     164A      2.012666   165A      2.021168   166A      2.034739
     167A      2.070147   168A      2.073344   169A      2.124760
     170A      2.150534   171A      2.183464   172A      2.193599
     173A      2.204345   174A      2.217113   175A      2.228135
     176A      2.240245   177A      2.258475   178A      2.266214
     179A      2.285868   180A      2.329160   181A      2.335871
     182A      2.353206   183A      2.385921   184A      2.395227
     185A      2.410699   186A      2.439334   187A      2.454365
     188A      2.470236   189A      2.495806   190A      2.517433
     191A      2.534332   192A      2.572667   193A      2.616710
     194A      2.624496   195A      2.641080   196A      2.657194
     197A      2.670549   198A      2.695233   199A      2.698729
     200A      2.704218   201A      2.737548   202A      2.772099
     203A      2.782292   204A      2.822669   205A      2.836912
     206A      2.860737   207A      2.869217   208A      2.876423
     209A      2.890279   210A      2.957307   211A      3.000175
     212A      3.083462   213A      3.098395   214A      3.123751
     215A      3.590080   216A      3.666565

    Final Occupation by Irrep:
              A
    DOCC [    37 ]

  @RHF Final Energy:  -400.89143895522301

   => Energetics <=

    Nuclear Repulsion Energy =            500.8246071341536663
    One-Electron Energy =               -1523.1600859431387107
    Two-Electron Energy =                 621.4440398537619785
    Total Energy =                       -400.8914389552230659

Computation Completed

Properties will be evaluated at   0.000000,   0.000000,   0.000000 [a0]

Properties computed using the SCF density matrix

  Nuclear Dipole Moment: [e a0]
     X:     5.7726      Y:     0.6457      Z:     3.1795

  Electronic Dipole Moment: [e a0]
     X:    -7.6421      Y:    -1.0722      Z:    -4.2694

  Dipole Moment: [e a0]
     X:    -1.8694      Y:    -0.4265      Z:    -1.0900     Total:     2.2056

  Dipole Moment: [D]
     X:    -4.7516      Y:    -1.0840      Z:    -2.7704     Total:     5.6060

*** tstop() called on ds3 at Sun Apr 26 18:50:05 2020
Module time:
	user time   =     108.26 seconds =       1.80 minutes
	system time =      36.74 seconds =       0.61 minutes
	total time  =        140 seconds =       2.33 minutes
Total time:
	user time   =     108.26 seconds =       1.80 minutes
	system time =      36.74 seconds =       0.61 minutes
	total time  =        140 seconds =       2.33 minutes
                                     G D M A

                                 by Anthony Stone

                           version 2.2.06, 22 June 2011

               Distributed Multipoles from Gaussian wavefunctions

Starting at 18:50:5 on 26 Apr 2020

Using SCF density matrix from file ./SSI/SSI-132ARG-136ARG-1-dimer.test.17110.fchk

                         Distributed Multipole Analysis

Standard DMA

Positions and radii in angstrom
Multipole moments in atomic units, ea_0^k for rank k

C          x = -0.848860  y = -0.458706  z =  1.596140 angstrom
           Maximum rank =  0   Radius =  0.650 angstrom
                   Q00  =  -0.028778

C          x = -1.958860  y = -1.369706  z =  2.103140 angstrom
           Maximum rank =  0   Radius =  0.650 angstrom
                   Q00  =  -0.201083

C          x = -1.070860  y = -0.200706  z = -0.859860 angstrom
           Maximum rank =  0   Radius =  0.650 angstrom
                   Q00  =   1.081158

N          x = -1.215860  y =  0.266294  z =  0.373140 angstrom
           Maximum rank =  0   Radius =  0.650 angstrom
                   Q00  =  -0.498358

N          x = -0.578860  y = -1.406706  z = -1.069860 angstrom
           Maximum rank =  0   Radius =  0.650 angstrom
                   Q00  =  -0.582662

N          x = -1.401860  y =  0.551294  z = -1.887860 angstrom
           Maximum rank =  0   Radius =  0.650 angstrom
                   Q00  =  -0.593799

H          x = -0.629860  y =  0.276294  z =  2.374140 angstrom
           Maximum rank =  0   Radius =  0.325 angstrom
                   Q00  =   0.132804

H          x =  0.056140  y = -1.049706  z =  1.447140 angstrom
           Maximum rank =  0   Radius =  0.325 angstrom
                   Q00  =   0.074671

H          x = -2.217860  y = -2.111706  z =  1.347140 angstrom
           Maximum rank =  0   Radius =  0.325 angstrom
                   Q00  =   0.086721

H          x = -2.837860  y = -0.761706  z =  2.322140 angstrom
           Maximum rank =  0   Radius =  0.325 angstrom
                   Q00  =   0.109831

H          x = -1.595860  y =  1.197294  z =  0.487140 angstrom
           Maximum rank =  0   Radius =  0.325 angstrom
                   Q00  =   0.234998

H          x = -0.374860  y = -2.028706  z = -0.292860 angstrom
           Maximum rank =  0   Radius =  0.325 angstrom
                   Q00  =   0.276879

H          x = -0.509860  y = -1.772706  z = -2.006860 angstrom
           Maximum rank =  0   Radius =  0.325 angstrom
                   Q00  =   0.265443

H          x = -1.758860  y =  1.485294  z = -1.759860 angstrom
           Maximum rank =  0   Radius =  0.325 angstrom
                   Q00  =   0.269385

H          x = -1.302860  y =  0.197294  z = -2.828860 angstrom
           Maximum rank =  0   Radius =  0.325 angstrom
                   Q00  =   0.264629

H          x = -1.616700  y = -1.871776  z =  3.020120 angstrom
           Maximum rank =  0   Radius =  0.325 angstrom
                   Q00  =   0.124636

C          x =  2.304140  y =  0.873294  z =  0.514140 angstrom
           Maximum rank =  0   Radius =  0.650 angstrom
                   Q00  =  -0.095318

C          x =  2.767140  y = -0.334706  z = -0.298860 angstrom
           Maximum rank =  0   Radius =  0.650 angstrom
                   Q00  =  -0.235892

C          x =  2.021140  y =  2.120294  z = -0.322860 angstrom
           Maximum rank =  0   Radius =  0.650 angstrom
                   Q00  =  -0.234501

H          x =  1.411140  y =  0.620294  z =  1.070140 angstrom
           Maximum rank =  0   Radius =  0.325 angstrom
                   Q00  =   0.002109

H          x =  3.073140  y =  1.114294  z =  1.251140 angstrom
           Maximum rank =  0   Radius =  0.325 angstrom
                   Q00  =   0.075346

H          x =  2.067140  y = -0.470706  z = -1.122860 angstrom
           Maximum rank =  0   Radius =  0.325 angstrom
                   Q00  =   0.044861

H          x =  2.908140  y =  2.418294  z = -0.880860 angstrom
           Maximum rank =  0   Radius =  0.325 angstrom
                   Q00  =   0.106170

H          x =  1.215140  y =  1.902294  z = -1.024860 angstrom
           Maximum rank =  0   Radius =  0.325 angstrom
                   Q00  =   0.036865

H          x =  2.757310  y = -1.243356  z =  0.321020 angstrom
           Maximum rank =  0   Radius =  0.325 angstrom
                   Q00  =   0.081152

H          x =  3.786280  y = -0.161836  z = -0.674980 angstrom
           Maximum rank =  0   Radius =  0.325 angstrom
                   Q00  =   0.110361

H          x =  1.717940  y =  2.947794  z =  0.335400 angstrom
           Maximum rank =  0   Radius =  0.325 angstrom
                   Q00  =   0.092372

Total multipoles referred to origin at
           x =   0.000000,  y =    0.000000,  z =    0.000000 angstrom
                   Q00  =   1.000000

Finished at 18:50:5 on 26 Apr 2020

  DMA results are available in the Python driver through the
	  variable('DMA DISTRIBUTED MULTIPOLES')
  and
	  variable('DMA TOTAL MULTIPOLES')
  commands.

    Psi4 stopped on: Sunday, 26 April 2020 06:50PM
    Psi4 wall time for execution: 0:02:20.03

*** Psi4 exiting successfully. Buy a developer a beer!
