                               Psi4 1.3.2 release

  ==> Input File <==

--------------------------------------------------------------------------
import numpy as np
set {scf_type pk
basis cc-pvdz
d_convergence 10
gdma_switch   0
gdma_limit    0
gdma_origin   [ 0.0,  0.0,  0.0 ]
}
molecule test {
    units Angstrom
    0 1
    --
    0 1
    C                1.500666787007284    -1.633683428488966    -0.734240832478759
    C                1.551666787007284     0.706316571511034    -1.541240832478759
    N                0.927666787007284    -0.299683428488966    -0.944240832478759
    N                2.779666787007284     0.562316571511034    -2.003240832478759
    N                0.953666787007284     1.871316571511034    -1.668240832478759
    H                0.107666787007284    -0.068683428488966    -0.379240832478759
    H                1.864666787007284    -2.044683428488966    -1.679240832478759
    H                0.722666787007284    -2.301683428488966    -0.362240832478759
    H                3.285666787007284    -0.303683428488966    -1.894240832478759
    H                3.251666787007284     1.360316571511034    -2.434240832478760
    H                0.050666787007284     2.020316571511034    -1.245240832478759
    H                1.453666787007284     2.643316571511034    -2.082240832478759
    H                2.316146787007284    -1.603400428488966     0.003369167521241
    C               -2.828333212992717    -1.177683428488966     0.999759167521241
    C               -1.895333212992716    -0.267683428488966     1.776759167521241
    O               -0.816333212992716     0.066316571511034     1.239759167521241
    O               -2.251333212992717     0.126316571511034     2.908759167521240
    H               -3.434333212992716    -0.569683428488966     0.329759167521241
    H               -3.521333212992717    -1.669683428488966     1.664759167521241
    H               -2.272353212992716    -1.917787428488966     0.405509167521241

}
e, wfn = energy('scf', return_wfn=True)
gdma(wfn)
dmavals = variable('DMA DISTRIBUTED MULTIPOLES')
charges = np.array(dmavals)
print(charges)
np.save('SSI-061ARG-083GLU-2-dimer.npy', np.array(charges))--------------------------------------------------------------------------

*** tstart() called on ds3
*** at Tue Apr 28 10:44:37 2020

   => Loading Basis Set <=

    Name: CC-PVDZ
    Role: ORBITAL
    Keyword: BASIS
    atoms 1-2, 14-15  entry C          line   138 file /theoryfs2/ds/metcalf/miniconda2/envs/tf2gpu/share/psi4/basis/cc-pvdz.gbs
    atoms 3-5         entry N          line   168 file /theoryfs2/ds/metcalf/miniconda2/envs/tf2gpu/share/psi4/basis/cc-pvdz.gbs
    atoms 6-13, 18-20 entry H          line    22 file /theoryfs2/ds/metcalf/miniconda2/envs/tf2gpu/share/psi4/basis/cc-pvdz.gbs
    atoms 16-17       entry O          line   198 file /theoryfs2/ds/metcalf/miniconda2/envs/tf2gpu/share/psi4/basis/cc-pvdz.gbs

         ---------------------------------------------------------
                                   SCF
               by Justin Turney, Rob Parrish, Andy Simmonett
                          and Daniel G. A. Smith
                              RHF Reference
                        1 Threads,    500 MiB Core
         ---------------------------------------------------------

  ==> Geometry <==

    Molecular point group: c1
    Full point group: C1

    Geometry (in Angstrom), charge = 0, multiplicity = 1:

       Center              X                  Y                   Z               Mass
    ------------   -----------------  -----------------  -----------------  -----------------
         C            1.500666787007    -1.633683428489    -0.734240832479    12.000000000000
         C            1.551666787007     0.706316571511    -1.541240832479    12.000000000000
         N            0.927666787007    -0.299683428489    -0.944240832479    14.003074004430
         N            2.779666787007     0.562316571511    -2.003240832479    14.003074004430
         N            0.953666787007     1.871316571511    -1.668240832479    14.003074004430
         H            0.107666787007    -0.068683428489    -0.379240832479     1.007825032230
         H            1.864666787007    -2.044683428489    -1.679240832479     1.007825032230
         H            0.722666787007    -2.301683428489    -0.362240832479     1.007825032230
         H            3.285666787007    -0.303683428489    -1.894240832479     1.007825032230
         H            3.251666787007     1.360316571511    -2.434240832479     1.007825032230
         H            0.050666787007     2.020316571511    -1.245240832479     1.007825032230
         H            1.453666787007     2.643316571511    -2.082240832479     1.007825032230
         H            2.316146787007    -1.603400428489     0.003369167521     1.007825032230
         C           -2.828333212993    -1.177683428489     0.999759167521    12.000000000000
         C           -1.895333212993    -0.267683428489     1.776759167521    12.000000000000
         O           -0.816333212993     0.066316571511     1.239759167521    15.994914619570
         O           -2.251333212993     0.126316571511     2.908759167521    15.994914619570
         H           -3.434333212993    -0.569683428489     0.329759167521     1.007825032230
         H           -3.521333212993    -1.669683428489     1.664759167521     1.007825032230
         H           -2.272353212993    -1.917787428489     0.405509167521     1.007825032230

  Running in c1 symmetry.

  Rotational constants: A =      0.09850  B =      0.01930  C =      0.01767 [cm^-1]
  Rotational constants: A =   2952.86013  B =    578.67206  C =    529.76905 [MHz]
  Nuclear repulsion =  449.314054620466493

  Charge       = 0
  Multiplicity = 1
  Electrons    = 72
  Nalpha       = 36
  Nbeta        = 36

  ==> Algorithm <==

  SCF Algorithm Type is PK.
  DIIS enabled.
  MOM disabled.
  Fractional occupation disabled.
  Guess Type is SAD.
  Energy threshold   = 1.00e-06
  Density threshold  = 1.00e-10
  Integral threshold = 0.00e+00

  ==> Primary Basis <==

  Basis Set: CC-PVDZ
    Blend: CC-PVDZ
    Number of shells: 87
    Number of basis function: 181
    Number of Cartesian functions: 190
    Spherical Harmonics?: true
    Max angular momentum: 2

  ==> Pre-Iterations <==

   -------------------------------------------------------
    Irrep   Nso     Nmo     Nalpha   Nbeta   Ndocc  Nsocc
   -------------------------------------------------------
     A        181     181       0       0       0       0
   -------------------------------------------------------
    Total     181     181      36      36      36       0
   -------------------------------------------------------

  ==> Integral Setup <==

  Using integral reordering PK algorithm.
  Sizing the integral batches needed.
  Building batch lookup table.
   Calculation information:
      Number of atoms:                  20
      Number of AO shells:              87
      Number of primitives:            253
      Number of atomic orbitals:       190
      Number of basis functions:       181

      Integral cutoff                 1.00e-12
      Number of threads:                 1

	Batch   1 pq = [       0,    9405] index = [             0,44231715] size =     44231715
	Batch   2 pq = [    9405,   13301] index = [      44231715,88464951] size =     44233236
	Batch   3 pq = [   13301,   16471] index = [      88464951,135655156] size =     47190205
  Task number: 13
  Buffer size: 11059200
  Buffer per thread: 2
  We computed 5924011 shell quartets total.
  Whereas there are 7328706 unique shell quartets.

  ==> DiskJK: Disk-Based J/K Matrices <==

    J tasked:                  Yes
    K tasked:                  Yes
    wK tasked:                  No
    Memory [MiB]:              375
    Schwarz Cutoff:          1E-12

    OpenMP threads:              1

  Minimum eigenvalue in the overlap matrix is 3.8919811820E-03.
  Using Symmetric Orthogonalization.

  SCF Guess: Superposition of Atomic Densities via on-the-fly atomic UHF.

  ==> Iterations <==

                        Total Energy        Delta E     RMS |[F,P]|

   @RHF iter SAD:  -469.66560622072478   -4.69666e+02   0.00000e+00
   @RHF iter   1:  -470.67163879416438   -1.00603e+00   4.27465e-03 DIIS
   @RHF iter   2:  -470.90188008969886   -2.30241e-01   2.27016e-03 DIIS
   @RHF iter   3:  -470.96290018470103   -6.10201e-02   4.04691e-04 DIIS
   @RHF iter   4:  -470.96630568276760   -3.40550e-03   1.48064e-04 DIIS
   @RHF iter   5:  -470.96674467185557   -4.38989e-04   3.00557e-05 DIIS
   @RHF iter   6:  -470.96677037018043   -2.56983e-05   1.56874e-05 DIIS
   @RHF iter   7:  -470.96677544936443   -5.07918e-06   4.04642e-06 DIIS
   @RHF iter   8:  -470.96677623195620   -7.82592e-07   1.86077e-06 DIIS
   @RHF iter   9:  -470.96677636168761   -1.29731e-07   6.60537e-07 DIIS
   @RHF iter  10:  -470.96677638542553   -2.37379e-08   2.22527e-07 DIIS
   @RHF iter  11:  -470.96677638766857   -2.24304e-09   5.91247e-08 DIIS
   @RHF iter  12:  -470.96677638778334   -1.14767e-10   2.14368e-08 DIIS
   @RHF iter  13:  -470.96677638779568   -1.23350e-11   5.91497e-09 DIIS
   @RHF iter  14:  -470.96677638779659   -9.09495e-13   1.63886e-09 DIIS
   @RHF iter  15:  -470.96677638779744   -8.52651e-13   6.94153e-10 DIIS
   @RHF iter  16:  -470.96677638779789   -4.54747e-13   2.45847e-10 DIIS
   @RHF iter  17:  -470.96677638779465    3.24007e-12   1.04519e-10 DIIS
   @RHF iter  18:  -470.96677638779386    7.95808e-13   3.48488e-11 DIIS
  Energy and wave function converged.

  ==> Post-Iterations <==

    Orbital Energies [Eh]
    ---------------------

    Doubly Occupied:

       1A    -20.403643     2A    -20.379429     3A    -15.675711
       4A    -15.663307     5A    -15.631572     6A    -11.458804
       7A    -11.312650     8A    -11.242261     9A    -11.158941
      10A     -1.417636    11A     -1.281223    12A     -1.270885
      13A     -1.262464    14A     -1.166350    15A     -1.008857
      16A     -0.912201    17A     -0.910193    18A     -0.846404
      19A     -0.817222    20A     -0.737749    21A     -0.728567
      22A     -0.694874    23A     -0.656214    24A     -0.624931
      25A     -0.619091    26A     -0.588888    27A     -0.532861
      28A     -0.527774    29A     -0.522228    30A     -0.502381
      31A     -0.465965    32A     -0.444684    33A     -0.429130
      34A     -0.318471    35A     -0.295527    36A     -0.292545

    Virtual:

      37A      0.098375    38A      0.136813    39A      0.151226
      40A      0.168992    41A      0.195750    42A      0.199715
      43A      0.229996    44A      0.235294    45A      0.265405
      46A      0.284259    47A      0.303632    48A      0.334264
      49A      0.372643    50A      0.378523    51A      0.404810
      52A      0.455063    53A      0.458355    54A      0.477581
      55A      0.565659    56A      0.577120    57A      0.588180
      58A      0.618511    59A      0.641099    60A      0.649343
      61A      0.655395    62A      0.667575    63A      0.676388
      64A      0.697658    65A      0.715261    66A      0.754701
      67A      0.806600    68A      0.816699    69A      0.819691
      70A      0.835395    71A      0.838743    72A      0.858287
      73A      0.864425    74A      0.885316    75A      0.910135
      76A      0.915487    77A      0.926923    78A      0.938713
      79A      0.947448    80A      0.953258    81A      0.974229
      82A      0.995317    83A      1.015293    84A      1.039168
      85A      1.063107    86A      1.100895    87A      1.107989
      88A      1.127235    89A      1.174607    90A      1.224725
      91A      1.229874    92A      1.235617    93A      1.244856
      94A      1.268090    95A      1.306023    96A      1.326738
      97A      1.345607    98A      1.382811    99A      1.390389
     100A      1.428369   101A      1.464148   102A      1.467551
     103A      1.514822   104A      1.552606   105A      1.557429
     106A      1.581254   107A      1.596079   108A      1.623473
     109A      1.630151   110A      1.657020   111A      1.673978
     112A      1.714418   113A      1.734829   114A      1.740767
     115A      1.755234   116A      1.774859   117A      1.805113
     118A      1.833440   119A      1.859467   120A      1.869275
     121A      1.896026   122A      1.913528   123A      1.939202
     124A      1.952668   125A      1.970696   126A      1.979485
     127A      1.988058   128A      1.990861   129A      2.023552
     130A      2.044055   131A      2.091250   132A      2.125472
     133A      2.129396   134A      2.161306   135A      2.197062
     136A      2.232075   137A      2.261430   138A      2.295816
     139A      2.301146   140A      2.322747   141A      2.329793
     142A      2.360537   143A      2.368447   144A      2.429963
     145A      2.437237   146A      2.444478   147A      2.482534
     148A      2.502885   149A      2.558278   150A      2.572520
     151A      2.597056   152A      2.614816   153A      2.648556
     154A      2.685631   155A      2.707748   156A      2.724308
     157A      2.776067   158A      2.819350   159A      2.861084
     160A      2.868356   161A      2.901025   162A      2.909310
     163A      2.940033   164A      2.953893   165A      2.959293
     166A      3.035432   167A      3.108471   168A      3.135625
     169A      3.167709   170A      3.182633   171A      3.220156
     172A      3.234609   173A      3.294457   174A      3.499735
     175A      3.660105   176A      3.692534   177A      3.710044
     178A      3.764349   179A      3.936643   180A      3.986568
     181A      4.064813

    Final Occupation by Irrep:
              A
    DOCC [    36 ]

  @RHF Final Energy:  -470.96677638779386

   => Energetics <=

    Nuclear Repulsion Energy =            449.3140546204664929
    One-Electron Energy =               -1534.9584013774351661
    Two-Electron Energy =                 614.6775703691747594
    Total Energy =                       -470.9667763877938569

Computation Completed

Properties will be evaluated at   0.000000,   0.000000,   0.000000 [a0]

Properties computed using the SCF density matrix

  Nuclear Dipole Moment: [e a0]
     X:     3.5574      Y:    -4.1820      Z:    -7.1601

  Electronic Dipole Moment: [e a0]
     X:     1.1976      Y:     4.8619      Z:     1.4951

  Dipole Moment: [e a0]
     X:     4.7550      Y:     0.6799      Z:    -5.6650     Total:     7.4273

  Dipole Moment: [D]
     X:    12.0859      Y:     1.7280      Z:   -14.3991     Total:    18.8782

*** tstop() called on ds3 at Tue Apr 28 10:46:15 2020
Module time:
	user time   =      43.56 seconds =       0.73 minutes
	system time =      18.43 seconds =       0.31 minutes
	total time  =         98 seconds =       1.63 minutes
Total time:
	user time   =      43.56 seconds =       0.73 minutes
	system time =      18.43 seconds =       0.31 minutes
	total time  =         98 seconds =       1.63 minutes
                                     G D M A

                                 by Anthony Stone

                           version 2.2.06, 22 June 2011

               Distributed Multipoles from Gaussian wavefunctions

Starting at 10:46:15 on 28 Apr 2020

Using SCF density matrix from file ./SSI/SSI-061ARG-083GLU-2-dimer.test.13929.fchk

                         Distributed Multipole Analysis

Standard DMA

Positions and radii in angstrom
Multipole moments in atomic units, ea_0^k for rank k

C          x =  1.500667  y = -1.633683  z = -0.734241 angstrom
           Maximum rank =  0   Radius =  0.650 angstrom
                   Q00  =  -0.116921

C          x =  1.551667  y =  0.706317  z = -1.541241 angstrom
           Maximum rank =  0   Radius =  0.650 angstrom
                   Q00  =   1.070615

N          x =  0.927667  y = -0.299683  z = -0.944241 angstrom
           Maximum rank =  0   Radius =  0.650 angstrom
                   Q00  =  -0.490090

N          x =  2.779667  y =  0.562317  z = -2.003241 angstrom
           Maximum rank =  0   Radius =  0.650 angstrom
                   Q00  =  -0.583857

N          x =  0.953667  y =  1.871317  z = -1.668241 angstrom
           Maximum rank =  0   Radius =  0.650 angstrom
                   Q00  =  -0.587851

H          x =  0.107667  y = -0.068683  z = -0.379241 angstrom
           Maximum rank =  0   Radius =  0.325 angstrom
                   Q00  =   0.274655

H          x =  1.864667  y = -2.044683  z = -1.679241 angstrom
           Maximum rank =  0   Radius =  0.325 angstrom
                   Q00  =   0.079971

H          x =  0.722667  y = -2.301683  z = -0.362241 angstrom
           Maximum rank =  0   Radius =  0.325 angstrom
                   Q00  =   0.173663

H          x =  3.285667  y = -0.303683  z = -1.894241 angstrom
           Maximum rank =  0   Radius =  0.325 angstrom
                   Q00  =   0.261190

H          x =  3.251667  y =  1.360317  z = -2.434241 angstrom
           Maximum rank =  0   Radius =  0.325 angstrom
                   Q00  =   0.242000

H          x =  0.050667  y =  2.020317  z = -1.245241 angstrom
           Maximum rank =  0   Radius =  0.325 angstrom
                   Q00  =   0.279267

H          x =  1.453667  y =  2.643317  z = -2.082241 angstrom
           Maximum rank =  0   Radius =  0.325 angstrom
                   Q00  =   0.237040

H          x =  2.316147  y = -1.603400  z =  0.003369 angstrom
           Maximum rank =  0   Radius =  0.325 angstrom
                   Q00  =   0.102891

C          x = -2.828333  y = -1.177683  z =  0.999759 angstrom
           Maximum rank =  0   Radius =  0.650 angstrom
                   Q00  =  -0.280441

C          x = -1.895333  y = -0.267683  z =  1.776759 angstrom
           Maximum rank =  0   Radius =  0.650 angstrom
                   Q00  =   0.920636

O          x = -0.816333  y =  0.066317  z =  1.239759 angstrom
           Maximum rank =  0   Radius =  0.650 angstrom
                   Q00  =  -0.938031

O          x = -2.251333  y =  0.126317  z =  2.908759 angstrom
           Maximum rank =  0   Radius =  0.650 angstrom
                   Q00  =  -0.871227

H          x = -3.434333  y = -0.569683  z =  0.329759 angstrom
           Maximum rank =  0   Radius =  0.325 angstrom
                   Q00  =   0.088559

H          x = -3.521333  y = -1.669683  z =  1.664759 angstrom
           Maximum rank =  0   Radius =  0.325 angstrom
                   Q00  =   0.092307

H          x = -2.272353  y = -1.917787  z =  0.405509 angstrom
           Maximum rank =  0   Radius =  0.325 angstrom
                   Q00  =   0.045624

Total multipoles referred to origin at
           x =   0.000000,  y =    0.000000,  z =    0.000000 angstrom
                   Q00  =  -0.000000

Finished at 10:46:15 on 28 Apr 2020

  DMA results are available in the Python driver through the
	  variable('DMA DISTRIBUTED MULTIPOLES')
  and
	  variable('DMA TOTAL MULTIPOLES')
  commands.

    Psi4 stopped on: Tuesday, 28 April 2020 10:46AM
    Psi4 wall time for execution: 0:01:38.08

*** Psi4 exiting successfully. Buy a developer a beer!
