                               Psi4 1.3.2 release

  ==> Input File <==

--------------------------------------------------------------------------
import numpy as np
set {scf_type pk
basis cc-pvdz
d_convergence 10
gdma_switch   0
gdma_limit    0
gdma_origin   [ 0.0,  0.0,  0.0 ]
}
molecule test {
    units Angstrom
    0 1
    --
    0 1
    C                1.726336204509335    -0.109229019682410    -0.356029908617446
    C                2.628336204509335    -1.216229019682410    -0.892029908617447
    H                1.587336204509335    -0.229229019682410     0.717970091382554
    H                2.182336204509335     0.869770980317590    -0.514029908617446
    H                0.752336204509335    -0.143229019682410    -0.840029908617447
    H                3.641336204509335    -0.994229019682410    -0.554029908617446
    H                2.621161204509335    -1.231296019682410    -1.991902908617446
    H                2.355548204509335    -2.203563019682410    -0.491081908617446
    C               -2.066663795490665     0.102770980317590     0.117970091382554
    C               -2.292663795490665     1.222770980317590     1.121970091382553
    H               -1.635663795490665    -0.761229019682410     0.624970091382553
    H               -3.011663795490665    -0.213229019682410    -0.325029908617446
    H               -1.392663795490665     0.430770980317590    -0.672029908617446
    H               -3.091663795490665     0.938770980317590     1.797970091382554
    H               -2.565273795490665     2.160406980317590     0.615489091382553
    H               -1.387696795490665     1.375284980317590     1.728414091382554

}
e, wfn = energy('scf', return_wfn=True)
gdma(wfn)
dmavals = variable('DMA DISTRIBUTED MULTIPOLES')
charges = np.array(dmavals)
print(charges)
np.save('SSI-096ILE-127VAL-1-dimer.npy', np.array(charges))--------------------------------------------------------------------------

*** tstart() called on ds3
*** at Tue Apr 28 12:59:52 2020

   => Loading Basis Set <=

    Name: CC-PVDZ
    Role: ORBITAL
    Keyword: BASIS
    atoms 1-2, 9-10  entry C          line   138 file /theoryfs2/ds/metcalf/miniconda2/envs/tf2gpu/share/psi4/basis/cc-pvdz.gbs
    atoms 3-8, 11-16 entry H          line    22 file /theoryfs2/ds/metcalf/miniconda2/envs/tf2gpu/share/psi4/basis/cc-pvdz.gbs

         ---------------------------------------------------------
                                   SCF
               by Justin Turney, Rob Parrish, Andy Simmonett
                          and Daniel G. A. Smith
                              RHF Reference
                        1 Threads,    500 MiB Core
         ---------------------------------------------------------

  ==> Geometry <==

    Molecular point group: c1
    Full point group: C1

    Geometry (in Angstrom), charge = 0, multiplicity = 1:

       Center              X                  Y                   Z               Mass
    ------------   -----------------  -----------------  -----------------  -----------------
         C            1.726336204509    -0.109229019682    -0.356029908617    12.000000000000
         C            2.628336204509    -1.216229019682    -0.892029908617    12.000000000000
         H            1.587336204509    -0.229229019682     0.717970091383     1.007825032230
         H            2.182336204509     0.869770980318    -0.514029908617     1.007825032230
         H            0.752336204509    -0.143229019682    -0.840029908617     1.007825032230
         H            3.641336204509    -0.994229019682    -0.554029908617     1.007825032230
         H            2.621161204509    -1.231296019682    -1.991902908617     1.007825032230
         H            2.355548204509    -2.203563019682    -0.491081908617     1.007825032230
         C           -2.066663795491     0.102770980318     0.117970091383    12.000000000000
         C           -2.292663795491     1.222770980318     1.121970091383    12.000000000000
         H           -1.635663795491    -0.761229019682     0.624970091383     1.007825032230
         H           -3.011663795491    -0.213229019682    -0.325029908617     1.007825032230
         H           -1.392663795491     0.430770980318    -0.672029908617     1.007825032230
         H           -3.091663795491     0.938770980318     1.797970091383     1.007825032230
         H           -2.565273795491     2.160406980318     0.615489091383     1.007825032230
         H           -1.387696795491     1.375284980318     1.728414091383     1.007825032230

  Running in c1 symmetry.

  Rotational constants: A =      0.54364  B =      0.04588  C =      0.04388 [cm^-1]
  Rotational constants: A =  16298.05280  B =   1375.50582  C =   1315.44827 [MHz]
  Nuclear repulsion =  121.353011806879778

  Charge       = 0
  Multiplicity = 1
  Electrons    = 36
  Nalpha       = 18
  Nbeta        = 18

  ==> Algorithm <==

  SCF Algorithm Type is PK.
  DIIS enabled.
  MOM disabled.
  Fractional occupation disabled.
  Guess Type is SAD.
  Energy threshold   = 1.00e-06
  Density threshold  = 1.00e-10
  Integral threshold = 0.00e+00

  ==> Primary Basis <==

  Basis Set: CC-PVDZ
    Blend: CC-PVDZ
    Number of shells: 60
    Number of basis function: 116
    Number of Cartesian functions: 120
    Spherical Harmonics?: true
    Max angular momentum: 2

  ==> Pre-Iterations <==

   -------------------------------------------------------
    Irrep   Nso     Nmo     Nalpha   Nbeta   Ndocc  Nsocc
   -------------------------------------------------------
     A        116     116       0       0       0       0
   -------------------------------------------------------
    Total     116     116      18      18      18       0
   -------------------------------------------------------

  ==> Integral Setup <==

  Using integral reordering PK algorithm.
  Sizing the integral batches needed.
  Building batch lookup table.
   Calculation information:
      Number of atoms:                  16
      Number of AO shells:              60
      Number of primitives:            148
      Number of atomic orbitals:       120
      Number of basis functions:       116

      Integral cutoff                 1.00e-12
      Number of threads:                 1

	Batch   1 pq = [       0,    6786] index = [             0,23028291] size =     23028291
  Task number: 3
  Buffer size: 11059200
  Buffer per thread: 2
  We computed 1416289 shell quartets total.
  Whereas there are 1675365 unique shell quartets.

  ==> DiskJK: Disk-Based J/K Matrices <==

    J tasked:                  Yes
    K tasked:                  Yes
    wK tasked:                  No
    Memory [MiB]:              375
    Schwarz Cutoff:          1E-12

    OpenMP threads:              1

  Minimum eigenvalue in the overlap matrix is 7.1482461839E-03.
  Using Symmetric Orthogonalization.

  SCF Guess: Superposition of Atomic Densities via on-the-fly atomic UHF.

  ==> Iterations <==

                        Total Energy        Delta E     RMS |[F,P]|

   @RHF iter SAD:  -157.36582195687652   -1.57366e+02   0.00000e+00
   @RHF iter   1:  -158.30559786292514   -9.39776e-01   4.23179e-03 DIIS
   @RHF iter   2:  -158.43976097542699   -1.34163e-01   1.81019e-03 DIIS
   @RHF iter   3:  -158.46349638647916   -2.37354e-02   3.49753e-04 DIIS
   @RHF iter   4:  -158.46532809855682   -1.83171e-03   3.83796e-05 DIIS
   @RHF iter   5:  -158.46535129221476   -2.31937e-05   6.13779e-06 DIIS
   @RHF iter   6:  -158.46535186928648   -5.77072e-07   8.04651e-07 DIIS
   @RHF iter   7:  -158.46535187681914   -7.53266e-09   2.46347e-07 DIIS
   @RHF iter   8:  -158.46535187732732   -5.08180e-10   4.03841e-08 DIIS
   @RHF iter   9:  -158.46535187735137   -2.40448e-11   7.85389e-09 DIIS
   @RHF iter  10:  -158.46535187735256   -1.19371e-12   2.04978e-09 DIIS
   @RHF iter  11:  -158.46535187735284   -2.84217e-13   4.24284e-10 DIIS
   @RHF iter  12:  -158.46535187735259    2.55795e-13   1.26747e-10 DIIS
   @RHF iter  13:  -158.46535187735239    1.98952e-13   2.78138e-11 DIIS
  Energy and wave function converged.

  ==> Post-Iterations <==

    Orbital Energies [Eh]
    ---------------------

    Doubly Occupied:

       1A    -11.218820     2A    -11.217749     3A    -11.215741
       4A    -11.215700     5A     -1.020280     6A     -1.017795
       7A     -0.838998     8A     -0.834643     9A     -0.603851
      10A     -0.598521    11A     -0.596174    12A     -0.592986
      13A     -0.504889    14A     -0.501929    15A     -0.490993
      16A     -0.484909    17A     -0.483772    18A     -0.475335

    Virtual:

      19A      0.172558    20A      0.196090    21A      0.228751
      22A      0.235612    23A      0.239532    24A      0.250436
      25A      0.267045    26A      0.277912    27A      0.286037
      28A      0.289709    29A      0.305236    30A      0.357417
      31A      0.394218    32A      0.402352    33A      0.565692
      34A      0.594688    35A      0.598042    36A      0.605424
      37A      0.609735    38A      0.636847    39A      0.658899
      40A      0.688374    41A      0.694644    42A      0.803002
      43A      0.844986    44A      0.850665    45A      0.879289
      46A      0.885051    47A      0.892283    48A      0.894927
      49A      0.901327    50A      0.906664    51A      0.912821
      52A      0.924156    53A      0.939644    54A      0.950964
      55A      0.979092    56A      0.988922    57A      1.116050
      58A      1.121904    59A      1.129460    60A      1.154451
      61A      1.227196    62A      1.252744    63A      1.470950
      64A      1.475964    65A      1.486105    66A      1.494118
      67A      1.565807    68A      1.584496    69A      1.682650
      70A      1.687448    71A      1.694582    72A      1.706102
      73A      1.856030    74A      1.861835    75A      1.867594
      76A      1.886828    77A      1.897091    78A      1.899734
      79A      1.926906    80A      1.933162    81A      1.941252
      82A      1.944989    83A      1.948554    84A      1.950376
      85A      1.956505    86A      1.960251    87A      1.984616
      88A      2.022776    89A      2.107116    90A      2.114590
      91A      2.126395    92A      2.149023    93A      2.302010
      94A      2.307210    95A      2.315693    96A      2.323129
      97A      2.433987    98A      2.445265    99A      2.453737
     100A      2.470445   101A      2.561008   102A      2.568131
     103A      2.580990   104A      2.593136   105A      2.761332
     106A      2.763946   107A      2.781646   108A      2.789070
     109A      2.850021   110A      2.851171   111A      2.859019
     112A      2.868534   113A      2.934810   114A      2.956199
     115A      2.966259   116A      2.979728

    Final Occupation by Irrep:
              A
    DOCC [    18 ]

  @RHF Final Energy:  -158.46535187735239

   => Energetics <=

    Nuclear Repulsion Energy =            121.3530118068797776
    One-Electron Energy =                -451.8105563356187986
    Two-Electron Energy =                 171.9921926513866595
    Total Energy =                       -158.4653518773523899

Computation Completed

Properties will be evaluated at   0.000000,   0.000000,   0.000000 [a0]

Properties computed using the SCF density matrix

  Nuclear Dipole Moment: [e a0]
     X:     0.0520      Y:    -0.0009      Z:     0.0906

  Electronic Dipole Moment: [e a0]
     X:    -0.0584      Y:     0.0003      Z:    -0.0787

  Dipole Moment: [e a0]
     X:    -0.0065      Y:    -0.0007      Z:     0.0119     Total:     0.0136

  Dipole Moment: [D]
     X:    -0.0165      Y:    -0.0017      Z:     0.0302     Total:     0.0345

*** tstop() called on ds3 at Tue Apr 28 13:00:27 2020
Module time:
	user time   =       7.13 seconds =       0.12 minutes
	system time =       2.57 seconds =       0.04 minutes
	total time  =         35 seconds =       0.58 minutes
Total time:
	user time   =       7.13 seconds =       0.12 minutes
	system time =       2.57 seconds =       0.04 minutes
	total time  =         35 seconds =       0.58 minutes
                                     G D M A

                                 by Anthony Stone

                           version 2.2.06, 22 June 2011

               Distributed Multipoles from Gaussian wavefunctions

Starting at 13:0:28 on 28 Apr 2020

Using SCF density matrix from file ./SSI/SSI-096ILE-127VAL-1-dimer.test.15653.fchk

                         Distributed Multipole Analysis

Standard DMA

Positions and radii in angstrom
Multipole moments in atomic units, ea_0^k for rank k

C          x =  1.726336  y = -0.109229  z = -0.356030 angstrom
           Maximum rank =  0   Radius =  0.650 angstrom
                   Q00  =  -0.239496

C          x =  2.628336  y = -1.216229  z = -0.892030 angstrom
           Maximum rank =  0   Radius =  0.650 angstrom
                   Q00  =  -0.234185

H          x =  1.587336  y = -0.229229  z =  0.717970 angstrom
           Maximum rank =  0   Radius =  0.325 angstrom
                   Q00  =   0.077809

H          x =  2.182336  y =  0.869771  z = -0.514030 angstrom
           Maximum rank =  0   Radius =  0.325 angstrom
                   Q00  =   0.077875

H          x =  0.752336  y = -0.143229  z = -0.840030 angstrom
           Maximum rank =  0   Radius =  0.325 angstrom
                   Q00  =   0.084082

H          x =  3.641336  y = -0.994229  z = -0.554030 angstrom
           Maximum rank =  0   Radius =  0.325 angstrom
                   Q00  =   0.074536

H          x =  2.621161  y = -1.231296  z = -1.991903 angstrom
           Maximum rank =  0   Radius =  0.325 angstrom
                   Q00  =   0.079496

H          x =  2.355548  y = -2.203563  z = -0.491082 angstrom
           Maximum rank =  0   Radius =  0.325 angstrom
                   Q00  =   0.080200

C          x = -2.066664  y =  0.102771  z =  0.117970 angstrom
           Maximum rank =  0   Radius =  0.650 angstrom
                   Q00  =  -0.242330

C          x = -2.292664  y =  1.222771  z =  1.121970 angstrom
           Maximum rank =  0   Radius =  0.650 angstrom
                   Q00  =  -0.227240

H          x = -1.635664  y = -0.761229  z =  0.624970 angstrom
           Maximum rank =  0   Radius =  0.325 angstrom
                   Q00  =   0.077553

H          x = -3.011664  y = -0.213229  z = -0.325030 angstrom
           Maximum rank =  0   Radius =  0.325 angstrom
                   Q00  =   0.077014

H          x = -1.392664  y =  0.430771  z = -0.672030 angstrom
           Maximum rank =  0   Radius =  0.325 angstrom
                   Q00  =   0.080808

H          x = -3.091664  y =  0.938771  z =  1.797970 angstrom
           Maximum rank =  0   Radius =  0.325 angstrom
                   Q00  =   0.078169

H          x = -2.565274  y =  2.160407  z =  0.615489 angstrom
           Maximum rank =  0   Radius =  0.325 angstrom
                   Q00  =   0.078517

H          x = -1.387697  y =  1.375285  z =  1.728414 angstrom
           Maximum rank =  0   Radius =  0.325 angstrom
                   Q00  =   0.077191

Total multipoles referred to origin at
           x =   0.000000,  y =    0.000000,  z =    0.000000 angstrom
                   Q00  =  -0.000000

Finished at 13:0:28 on 28 Apr 2020

  DMA results are available in the Python driver through the
	  variable('DMA DISTRIBUTED MULTIPOLES')
  and
	  variable('DMA TOTAL MULTIPOLES')
  commands.

    Psi4 stopped on: Tuesday, 28 April 2020 01:00PM
    Psi4 wall time for execution: 0:00:35.45

*** Psi4 exiting successfully. Buy a developer a beer!
