                               Psi4 1.3.2 release

  ==> Input File <==

--------------------------------------------------------------------------
import numpy as np
set {scf_type pk
basis cc-pvdz
d_convergence 10
gdma_switch   0
gdma_limit    0
gdma_origin   [ 0.0,  0.0,  0.0 ]
}
molecule test {
    units Angstrom
    0 1
    --
    0 1
    C                1.114724483231860     1.808281205887937    -2.413938104326630
    C                1.593724483231860     1.117281205887937     0.053061895673370
    C                1.562724483231860     2.067281205887937    -1.024938104326630
    C                2.080724483231860     1.799281205887937     1.199061895673370
    C                2.072724483231860     3.226281205887937    -0.532938104326630
    C                1.172724483231860    -0.212718794112063     0.190061895673370
    C                1.275724483231860    -0.829718794112064     1.434061895673370
    C                1.773724483231860    -0.134718794112063     2.545061895673370
    C                2.167724483231861     1.188281205887937     2.439061895673370
    N                2.374724483231860     3.077281205887937     0.803061895673370
    H                0.766724483231860    -0.748718794112063    -0.656938104326630
    H                0.965724483231860    -1.852718794112063     1.556061895673370
    H                1.847724483231860    -0.641718794112063     3.497061895673370
    H                0.992724483231860     2.755281205887937    -2.942938104326630
    H                0.135724483231860     1.339281205887937    -2.351938104326630
    H                2.207724483231861     4.138281205887937    -1.106938104326630
    H                2.757724483231860     3.811281205887937     1.389061895673370
    H                2.568724483231860     1.714281205887937     3.277061895673370
    H                1.790163483231860     1.148681205887937    -2.978484104326630
    C               -2.971275516768140    -3.772718794112063     0.846061895673370
    C               -2.476275516768140    -1.347718794112063     0.460061895673370
    C               -2.615275516768139    -2.628718794112063    -0.057938104326630
    C               -2.172275516768140    -0.280718794112063    -0.372938104326630
    C               -2.039275516768140    -0.485718794112063    -1.736938104326630
    C               -2.553275516768140    -2.814718794112064    -1.433938104326630
    C               -2.218275516768140    -1.754718794112063    -2.267938104326630
    H               -2.573275516768140    -1.178718794112063     1.524061895673370
    H               -2.047275516768140     0.711281205887937     0.039061895673370
    H               -2.283275516768140    -3.784718794112063     1.691061895673370
    H               -2.856275516768140    -4.709718794112064     0.306061895673370
    H               -1.831275516768140     0.345281205887937    -2.393938104326630
    H               -2.724275516768140    -3.793718794112063    -1.858938104326630
    H               -2.141275516768140    -1.909718794112063    -3.335938104326630
    H               -4.002288516768139    -3.719398794112063     1.225756895673370

}
e, wfn = energy('scf', return_wfn=True)
gdma(wfn)
dmavals = variable('DMA DISTRIBUTED MULTIPOLES')
charges = np.array(dmavals)
print(charges)
np.save('SSI-051TRP-107PHE-1-dimer.npy', np.array(charges))--------------------------------------------------------------------------

*** tstart() called on ds3
*** at Mon Apr 27 17:05:25 2020

   => Loading Basis Set <=

    Name: CC-PVDZ
    Role: ORBITAL
    Keyword: BASIS
    atoms 1-9, 20-26   entry C          line   138 file /theoryfs2/ds/metcalf/miniconda2/envs/tf2gpu/share/psi4/basis/cc-pvdz.gbs
    atoms 10           entry N          line   168 file /theoryfs2/ds/metcalf/miniconda2/envs/tf2gpu/share/psi4/basis/cc-pvdz.gbs
    atoms 11-19, 27-34 entry H          line    22 file /theoryfs2/ds/metcalf/miniconda2/envs/tf2gpu/share/psi4/basis/cc-pvdz.gbs

         ---------------------------------------------------------
                                   SCF
               by Justin Turney, Rob Parrish, Andy Simmonett
                          and Daniel G. A. Smith
                              RHF Reference
                        1 Threads,    500 MiB Core
         ---------------------------------------------------------

  ==> Geometry <==

    Molecular point group: c1
    Full point group: C1

    Geometry (in Angstrom), charge = 0, multiplicity = 1:

       Center              X                  Y                   Z               Mass
    ------------   -----------------  -----------------  -----------------  -----------------
         C            1.114724483232     1.808281205888    -2.413938104327    12.000000000000
         C            1.593724483232     1.117281205888     0.053061895673    12.000000000000
         C            1.562724483232     2.067281205888    -1.024938104327    12.000000000000
         C            2.080724483232     1.799281205888     1.199061895673    12.000000000000
         C            2.072724483232     3.226281205888    -0.532938104327    12.000000000000
         C            1.172724483232    -0.212718794112     0.190061895673    12.000000000000
         C            1.275724483232    -0.829718794112     1.434061895673    12.000000000000
         C            1.773724483232    -0.134718794112     2.545061895673    12.000000000000
         C            2.167724483232     1.188281205888     2.439061895673    12.000000000000
         N            2.374724483232     3.077281205888     0.803061895673    14.003074004430
         H            0.766724483232    -0.748718794112    -0.656938104327     1.007825032230
         H            0.965724483232    -1.852718794112     1.556061895673     1.007825032230
         H            1.847724483232    -0.641718794112     3.497061895673     1.007825032230
         H            0.992724483232     2.755281205888    -2.942938104327     1.007825032230
         H            0.135724483232     1.339281205888    -2.351938104327     1.007825032230
         H            2.207724483232     4.138281205888    -1.106938104327     1.007825032230
         H            2.757724483232     3.811281205888     1.389061895673     1.007825032230
         H            2.568724483232     1.714281205888     3.277061895673     1.007825032230
         H            1.790163483232     1.148681205888    -2.978484104327     1.007825032230
         C           -2.971275516768    -3.772718794112     0.846061895673    12.000000000000
         C           -2.476275516768    -1.347718794112     0.460061895673    12.000000000000
         C           -2.615275516768    -2.628718794112    -0.057938104327    12.000000000000
         C           -2.172275516768    -0.280718794112    -0.372938104327    12.000000000000
         C           -2.039275516768    -0.485718794112    -1.736938104327    12.000000000000
         C           -2.553275516768    -2.814718794112    -1.433938104327    12.000000000000
         C           -2.218275516768    -1.754718794112    -2.267938104327    12.000000000000
         H           -2.573275516768    -1.178718794112     1.524061895673     1.007825032230
         H           -2.047275516768     0.711281205888     0.039061895673     1.007825032230
         H           -2.283275516768    -3.784718794112     1.691061895673     1.007825032230
         H           -2.856275516768    -4.709718794112     0.306061895673     1.007825032230
         H           -1.831275516768     0.345281205888    -2.393938104327     1.007825032230
         H           -2.724275516768    -3.793718794112    -1.858938104327     1.007825032230
         H           -2.141275516768    -1.909718794112    -3.335938104327     1.007825032230
         H           -4.002288516768    -3.719398794112     1.225756895673     1.007825032230

  Running in c1 symmetry.

  Rotational constants: A =      0.02693  B =      0.00887  C =      0.00717 [cm^-1]
  Rotational constants: A =    807.35044  B =    265.90088  C =    214.91774 [MHz]
  Nuclear repulsion = 1086.188643186482750

  Charge       = 0
  Multiplicity = 1
  Electrons    = 120
  Nalpha       = 60
  Nbeta        = 60

  ==> Algorithm <==

  SCF Algorithm Type is PK.
  DIIS enabled.
  MOM disabled.
  Fractional occupation disabled.
  Guess Type is SAD.
  Energy threshold   = 1.00e-06
  Density threshold  = 1.00e-10
  Integral threshold = 0.00e+00

  ==> Primary Basis <==

  Basis Set: CC-PVDZ
    Blend: CC-PVDZ
    Number of shells: 153
    Number of basis function: 323
    Number of Cartesian functions: 340
    Spherical Harmonics?: true
    Max angular momentum: 2

  ==> Pre-Iterations <==

   -------------------------------------------------------
    Irrep   Nso     Nmo     Nalpha   Nbeta   Ndocc  Nsocc
   -------------------------------------------------------
     A        323     323       0       0       0       0
   -------------------------------------------------------
    Total     323     323      60      60      60       0
   -------------------------------------------------------

  ==> Integral Setup <==

  Using integral reordering PK algorithm.
  Sizing the integral batches needed.
  Building batch lookup table.
   Calculation information:
      Number of atoms:                  34
      Number of AO shells:             153
      Number of primitives:            459
      Number of atomic orbitals:       340
      Number of basis functions:       323

      Integral cutoff                 1.00e-12
      Number of threads:                 1

	Batch   1 pq = [       0,    9405] index = [             0,44231715] size =     44231715
	Batch   2 pq = [    9405,   13301] index = [      44231715,88464951] size =     44233236
	Batch   3 pq = [   13301,   16290] index = [      88464951,132690195] size =     44225244
	Batch   4 pq = [   16290,   18810] index = [     132690195,176917455] size =     44227260
	Batch   5 pq = [   18810,   21030] index = [     176917455,221140965] size =     44223510
	Batch   6 pq = [   21030,   23037] index = [     221140965,265363203] size =     44222238
	Batch   7 pq = [   23037,   24883] index = [     265363203,309594286] size =     44231083
	Batch   8 pq = [   24883,   26601] index = [     309594286,353819901] size =     44225615
	Batch   9 pq = [   26601,   28214] index = [     353819901,398029005] size =     44209104
	Batch  10 pq = [   28214,   29740] index = [     398029005,442248670] size =     44219665
	Batch  11 pq = [   29740,   31191] index = [     442248670,486454836] size =     44206166
	Batch  12 pq = [   31191,   32578] index = [     486454836,530679331] size =     44224495
	Batch  13 pq = [   32578,   33908] index = [     530679331,574893186] size =     44213855
	Batch  14 pq = [   33908,   35188] index = [     574893186,619115266] size =     44222080
	Batch  15 pq = [   35188,   36423] index = [     619115266,663335676] size =     44220410
	Batch  16 pq = [   36423,   37617] index = [     663335676,707538153] size =     44202477
	Batch  17 pq = [   37617,   38775] index = [     707538153,751769700] size =     44231547
	Batch  18 pq = [   38775,   39899] index = [     751769700,795985050] size =     44215350
	Batch  19 pq = [   39899,   40992] index = [     795985050,840192528] size =     44207478
	Batch  20 pq = [   40992,   42057] index = [     840192528,884416653] size =     44224125
	Batch  21 pq = [   42057,   43095] index = [     884416653,928611060] size =     44194407
	Batch  22 pq = [   43095,   44109] index = [     928611060,972823995] size =     44212935
	Batch  23 pq = [   44109,   45100] index = [     972823995,1017027550] size =     44203555
	Batch  24 pq = [   45100,   46070] index = [    1017027550,1061245485] size =     44217935
	Batch  25 pq = [   46070,   47020] index = [    1061245485,1105463710] size =     44218225
	Batch  26 pq = [   47020,   47951] index = [    1105463710,1149673176] size =     44209466
	Batch  27 pq = [   47951,   48864] index = [    1149673176,1193869680] size =     44196504
	Batch  28 pq = [   48864,   49761] index = [    1193869680,1238103441] size =     44233761
	Batch  29 pq = [   49761,   50642] index = [    1238103441,1282331403] size =     44227962
	Batch  30 pq = [   50642,   51508] index = [    1282331403,1326562786] size =     44231383
	Batch  31 pq = [   51508,   52326] index = [    1326562786,1369031301] size =     42468515
  Task number: 124
  Buffer size: 11059200
  Buffer per thread: 2
  We computed 78075034 shell quartets total.
  Whereas there are 69401871 unique shell quartets.
    12.50 percent of shell quartets recomputed by reordering.

  ==> DiskJK: Disk-Based J/K Matrices <==

    J tasked:                  Yes
    K tasked:                  Yes
    wK tasked:                  No
    Memory [MiB]:              375
    Schwarz Cutoff:          1E-12

    OpenMP threads:              1

  Minimum eigenvalue in the overlap matrix is 2.4353816203E-04.
  Using Symmetric Orthogonalization.

  SCF Guess: Superposition of Atomic Densities via on-the-fly atomic UHF.

  ==> Iterations <==

                        Total Energy        Delta E     RMS |[F,P]|

   @RHF iter SAD:  -669.67003954031202   -6.69670e+02   0.00000e+00
   @RHF iter   1:  -669.94339932245953   -2.73360e-01   2.16906e-03 DIIS
   @RHF iter   2:  -670.23690080349456   -2.93501e-01   9.53306e-04 DIIS
   @RHF iter   3:  -670.28712039270533   -5.02196e-02   2.60851e-04 DIIS
   @RHF iter   4:  -670.29190610892829   -4.78572e-03   1.17113e-04 DIIS
   @RHF iter   5:  -670.29271194308217   -8.05834e-04   1.69224e-05 DIIS
   @RHF iter   6:  -670.29274606209742   -3.41190e-05   7.84632e-06 DIIS
   @RHF iter   7:  -670.29275363217903   -7.57008e-06   3.15913e-06 DIIS
   @RHF iter   8:  -670.29275568946946   -2.05729e-06   1.41230e-06 DIIS
   @RHF iter   9:  -670.29275617072130   -4.81252e-07   6.14729e-07 DIIS
   @RHF iter  10:  -670.29275627193090   -1.01210e-07   2.69758e-07 DIIS
   @RHF iter  11:  -670.29275629415974   -2.22288e-08   1.14249e-07 DIIS
   @RHF iter  12:  -670.29275629733297   -3.17323e-09   4.37224e-08 DIIS
   @RHF iter  13:  -670.29275629770200   -3.69027e-10   1.25842e-08 DIIS
   @RHF iter  14:  -670.29275629772781   -2.58069e-11   4.70980e-09 DIIS
   @RHF iter  15:  -670.29275629772508    2.72848e-12   2.12751e-09 DIIS
   @RHF iter  16:  -670.29275629772928   -4.20641e-12   1.00960e-09 DIIS
   @RHF iter  17:  -670.29275629772621    3.06954e-12   5.12714e-10 DIIS
   @RHF iter  18:  -670.29275629772792   -1.70530e-12   1.70014e-10 DIIS
   @RHF iter  19:  -670.29275629772951   -1.59162e-12   7.07809e-11 DIIS
  Energy and wave function converged.

  ==> Post-Iterations <==

    Orbital Energies [Eh]
    ---------------------

    Doubly Occupied:

       1A    -15.597693     2A    -11.260788     3A    -11.260186
       4A    -11.235860     5A    -11.231778     6A    -11.229223
       7A    -11.226583     8A    -11.225952     9A    -11.225698
      10A    -11.225575    11A    -11.224882    12A    -11.224183
      13A    -11.223531    14A    -11.222479    15A    -11.215761
      16A    -11.214872    17A    -11.213559    18A     -1.291380
      19A     -1.152365    20A     -1.124209    21A     -1.072679
      22A     -1.043161    23A     -1.009350    24A     -0.993722
      25A     -0.984591    26A     -0.930242    27A     -0.928154
      28A     -0.836249    29A     -0.821950    30A     -0.800415
      31A     -0.792587    32A     -0.749044    33A     -0.715826
      34A     -0.689187    35A     -0.659857    36A     -0.639678
      37A     -0.629628    38A     -0.625308    39A     -0.599589
      40A     -0.589900    41A     -0.586774    42A     -0.579271
      43A     -0.574174    44A     -0.566592    45A     -0.560899
      46A     -0.549903    47A     -0.535154    48A     -0.532877
      49A     -0.524760    50A     -0.491351    51A     -0.486363
      52A     -0.481153    53A     -0.477506    54A     -0.465909
      55A     -0.456954    56A     -0.369136    57A     -0.329088
      58A     -0.319913    59A     -0.291092    60A     -0.271343

    Virtual:

      61A      0.127885    62A      0.137425    63A      0.145743
      64A      0.175152    65A      0.179468    66A      0.183413
      67A      0.191914    68A      0.206217    69A      0.212520
      70A      0.223115    71A      0.228447    72A      0.237231
      73A      0.239516    74A      0.254936    75A      0.261062
      76A      0.268066    77A      0.273208    78A      0.284685
      79A      0.290010    80A      0.293612    81A      0.306304
      82A      0.354078    83A      0.372993    84A      0.379148
      85A      0.390101    86A      0.394440    87A      0.411010
      88A      0.425191    89A      0.446687    90A      0.459705
      91A      0.466674    92A      0.478161    93A      0.480013
      94A      0.487886    95A      0.502746    96A      0.503921
      97A      0.514458    98A      0.569036    99A      0.588473
     100A      0.605476   101A      0.610296   102A      0.628866
     103A      0.636570   104A      0.641674   105A      0.663760
     106A      0.670844   107A      0.682235   108A      0.694327
     109A      0.704307   110A      0.710491   111A      0.714429
     112A      0.718221   113A      0.725425   114A      0.737038
     115A      0.741341   116A      0.742857   117A      0.746460
     118A      0.747807   119A      0.751480   120A      0.753365
     121A      0.762205   122A      0.766649   123A      0.775029
     124A      0.788779   125A      0.790741   126A      0.796749
     127A      0.807242   128A      0.813918   129A      0.822331
     130A      0.832558   131A      0.847308   132A      0.866252
     133A      0.872084   134A      0.877173   135A      0.881535
     136A      0.886419   137A      0.892881   138A      0.897203
     139A      0.905023   140A      0.908860   141A      0.917217
     142A      0.920196   143A      0.929815   144A      0.932389
     145A      0.936906   146A      0.949941   147A      0.956735
     148A      0.963762   149A      0.982258   150A      0.991264
     151A      0.997016   152A      1.007138   153A      1.011877
     154A      1.027911   155A      1.039302   156A      1.063434
     157A      1.066894   158A      1.093459   159A      1.104060
     160A      1.124468   161A      1.133889   162A      1.138404
     163A      1.140525   164A      1.144836   165A      1.161592
     166A      1.167177   167A      1.176003   168A      1.180837
     169A      1.212382   170A      1.218434   171A      1.222213
     172A      1.236592   173A      1.241694   174A      1.244493
     175A      1.257199   176A      1.261734   177A      1.274550
     178A      1.279786   179A      1.287282   180A      1.296987
     181A      1.302902   182A      1.311562   183A      1.322473
     184A      1.334098   185A      1.335006   186A      1.341745
     187A      1.362647   188A      1.366587   189A      1.386770
     190A      1.417360   191A      1.429630   192A      1.457732
     193A      1.506707   194A      1.527084   195A      1.540390
     196A      1.564327   197A      1.573583   198A      1.588394
     199A      1.598224   200A      1.620955   201A      1.635002
     202A      1.651501   203A      1.669931   204A      1.678177
     205A      1.691255   206A      1.697903   207A      1.708952
     208A      1.738085   209A      1.745129   210A      1.755014
     211A      1.769825   212A      1.781642   213A      1.786882
     214A      1.792062   215A      1.809469   216A      1.811596
     217A      1.826133   218A      1.826889   219A      1.845159
     220A      1.872442   221A      1.877789   222A      1.883888
     223A      1.895833   224A      1.898074   225A      1.909418
     226A      1.916501   227A      1.922985   228A      1.928018
     229A      1.937254   230A      1.940232   231A      1.945911
     232A      1.949712   233A      1.956639   234A      1.960643
     235A      1.965418   236A      1.977664   237A      1.980119
     238A      1.997938   239A      2.012100   240A      2.018447
     241A      2.024679   242A      2.035597   243A      2.049027
     244A      2.053231   245A      2.065522   246A      2.087127
     247A      2.091514   248A      2.096504   249A      2.099723
     250A      2.107531   251A      2.119384   252A      2.124246
     253A      2.128389   254A      2.135727   255A      2.152994
     256A      2.163809   257A      2.170413   258A      2.173917
     259A      2.182462   260A      2.191556   261A      2.192363
     262A      2.202283   263A      2.234128   264A      2.250315
     265A      2.254513   266A      2.284067   267A      2.294298
     268A      2.300796   269A      2.307632   270A      2.315303
     271A      2.323943   272A      2.338613   273A      2.348094
     274A      2.352403   275A      2.373243   276A      2.411162
     277A      2.439273   278A      2.458267   279A      2.461624
     280A      2.476385   281A      2.479904   282A      2.519030
     283A      2.540494   284A      2.551851   285A      2.587881
     286A      2.617257   287A      2.637640   288A      2.652139
     289A      2.669438   290A      2.694297   291A      2.705669
     292A      2.743520   293A      2.767449   294A      2.775761
     295A      2.782559   296A      2.789976   297A      2.795291
     298A      2.803166   299A      2.810908   300A      2.817489
     301A      2.834650   302A      2.853439   303A      2.878051
     304A      2.889309   305A      2.906668   306A      2.916981
     307A      2.978510   308A      3.000588   309A      3.017435
     310A      3.036042   311A      3.054714   312A      3.062883
     313A      3.091186   314A      3.129444   315A      3.162026
     316A      3.214152   317A      3.217387   318A      3.313229
     319A      3.325890   320A      3.390180   321A      3.746029
     322A      3.964724   323A      3.988449

    Final Occupation by Irrep:
              A
    DOCC [    60 ]

  @RHF Final Energy:  -670.29275629772951

   => Energetics <=

    Nuclear Repulsion Energy =           1086.1886431864827500
    One-Electron Energy =               -3064.1870270153690399
    Two-Electron Energy =                1307.7056275311567788
    Total Energy =                       -670.2927562977295111

Computation Completed

Properties will be evaluated at   0.000000,   0.000000,   0.000000 [a0]

Properties computed using the SCF density matrix

  Nuclear Dipole Moment: [e a0]
     X:    -6.0313      Y:    -5.9858      Z:    -2.9280

  Electronic Dipole Moment: [e a0]
     X:     6.1636      Y:     6.6127      Z:     3.0787

  Dipole Moment: [e a0]
     X:     0.1323      Y:     0.6269      Z:     0.1507     Total:     0.6582

  Dipole Moment: [D]
     X:     0.3362      Y:     1.5935      Z:     0.3831     Total:     1.6731

*** tstop() called on ds3 at Mon Apr 27 17:30:05 2020
Module time:
	user time   =     720.33 seconds =      12.01 minutes
	system time =     240.77 seconds =       4.01 minutes
	total time  =       1480 seconds =      24.67 minutes
Total time:
	user time   =     720.33 seconds =      12.01 minutes
	system time =     240.77 seconds =       4.01 minutes
	total time  =       1480 seconds =      24.67 minutes
                                     G D M A

                                 by Anthony Stone

                           version 2.2.06, 22 June 2011

               Distributed Multipoles from Gaussian wavefunctions

Starting at 17:30:5 on 27 Apr 2020

Using SCF density matrix from file ./SSI/SSI-051TRP-107PHE-1-dimer.test.7462.fchk

                         Distributed Multipole Analysis

Standard DMA

Positions and radii in angstrom
Multipole moments in atomic units, ea_0^k for rank k

C          x =  1.114724  y =  1.808281  z = -2.413938 angstrom
           Maximum rank =  0   Radius =  0.650 angstrom
                   Q00  =  -0.204473

C          x =  1.593724  y =  1.117281  z =  0.053062 angstrom
           Maximum rank =  0   Radius =  0.650 angstrom
                   Q00  =  -0.066059

C          x =  1.562724  y =  2.067281  z = -1.024938 angstrom
           Maximum rank =  0   Radius =  0.650 angstrom
                   Q00  =  -0.114857

C          x =  2.080724  y =  1.799281  z =  1.199062 angstrom
           Maximum rank =  0   Radius =  0.650 angstrom
                   Q00  =   0.279038

C          x =  2.072724  y =  3.226281  z = -0.532938 angstrom
           Maximum rank =  0   Radius =  0.650 angstrom
                   Q00  =   0.067380

C          x =  1.172724  y = -0.212719  z =  0.190062 angstrom
           Maximum rank =  0   Radius =  0.650 angstrom
                   Q00  =  -0.087185

C          x =  1.275724  y = -0.829719  z =  1.434062 angstrom
           Maximum rank =  0   Radius =  0.650 angstrom
                   Q00  =  -0.106986

C          x =  1.773724  y = -0.134719  z =  2.545062 angstrom
           Maximum rank =  0   Radius =  0.650 angstrom
                   Q00  =  -0.031324

C          x =  2.167724  y =  1.188281  z =  2.439062 angstrom
           Maximum rank =  0   Radius =  0.650 angstrom
                   Q00  =  -0.123386

N          x =  2.374724  y =  3.077281  z =  0.803062 angstrom
           Maximum rank =  0   Radius =  0.650 angstrom
                   Q00  =  -0.500824

H          x =  0.766724  y = -0.748719  z = -0.656938 angstrom
           Maximum rank =  0   Radius =  0.325 angstrom
                   Q00  =   0.078770

H          x =  0.965724  y = -1.852719  z =  1.556062 angstrom
           Maximum rank =  0   Radius =  0.325 angstrom
                   Q00  =   0.058589

H          x =  1.847724  y = -0.641719  z =  3.497062 angstrom
           Maximum rank =  0   Radius =  0.325 angstrom
                   Q00  =   0.061999

H          x =  0.992724  y =  2.755281  z = -2.942938 angstrom
           Maximum rank =  0   Radius =  0.325 angstrom
                   Q00  =   0.100713

H          x =  0.135724  y =  1.339281  z = -2.351938 angstrom
           Maximum rank =  0   Radius =  0.325 angstrom
                   Q00  =   0.100469

H          x =  2.207724  y =  4.138281  z = -1.106938 angstrom
           Maximum rank =  0   Radius =  0.325 angstrom
                   Q00  =   0.100024

H          x =  2.757724  y =  3.811281  z =  1.389062 angstrom
           Maximum rank =  0   Radius =  0.325 angstrom
                   Q00  =   0.215315

H          x =  2.568724  y =  1.714281  z =  3.277062 angstrom
           Maximum rank =  0   Radius =  0.325 angstrom
                   Q00  =   0.070414

H          x =  1.790163  y =  1.148681  z = -2.978484 angstrom
           Maximum rank =  0   Radius =  0.325 angstrom
                   Q00  =   0.098908

C          x = -2.971276  y = -3.772719  z =  0.846062 angstrom
           Maximum rank =  0   Radius =  0.650 angstrom
                   Q00  =  -0.203151

C          x = -2.476276  y = -1.347719  z =  0.460062 angstrom
           Maximum rank =  0   Radius =  0.650 angstrom
                   Q00  =   0.007352

C          x = -2.615276  y = -2.628719  z = -0.057938 angstrom
           Maximum rank =  0   Radius =  0.650 angstrom
                   Q00  =  -0.096544

C          x = -2.172276  y = -0.280719  z = -0.372938 angstrom
           Maximum rank =  0   Radius =  0.650 angstrom
                   Q00  =  -0.060371

C          x = -2.039276  y = -0.485719  z = -1.736938 angstrom
           Maximum rank =  0   Radius =  0.650 angstrom
                   Q00  =  -0.106856

C          x = -2.553276  y = -2.814719  z = -1.433938 angstrom
           Maximum rank =  0   Radius =  0.650 angstrom
                   Q00  =  -0.089618

C          x = -2.218276  y = -1.754719  z = -2.267938 angstrom
           Maximum rank =  0   Radius =  0.650 angstrom
                   Q00  =  -0.052867

H          x = -2.573276  y = -1.178719  z =  1.524062 angstrom
           Maximum rank =  0   Radius =  0.325 angstrom
                   Q00  =   0.055789

H          x = -2.047276  y =  0.711281  z =  0.039062 angstrom
           Maximum rank =  0   Radius =  0.325 angstrom
                   Q00  =   0.071865

H          x = -2.283276  y = -3.784719  z =  1.691062 angstrom
           Maximum rank =  0   Radius =  0.325 angstrom
                   Q00  =   0.099178

H          x = -2.856276  y = -4.709719  z =  0.306062 angstrom
           Maximum rank =  0   Radius =  0.325 angstrom
                   Q00  =   0.095990

H          x = -1.831276  y =  0.345281  z = -2.393938 angstrom
           Maximum rank =  0   Radius =  0.325 angstrom
                   Q00  =   0.059883

H          x = -2.724276  y = -3.793719  z = -1.858938 angstrom
           Maximum rank =  0   Radius =  0.325 angstrom
                   Q00  =   0.056647

H          x = -2.141276  y = -1.909719  z = -3.335938 angstrom
           Maximum rank =  0   Radius =  0.325 angstrom
                   Q00  =   0.063475

H          x = -4.002289  y = -3.719399  z =  1.225757 angstrom
           Maximum rank =  0   Radius =  0.325 angstrom
                   Q00  =   0.102703

Total multipoles referred to origin at
           x =   0.000000,  y =    0.000000,  z =    0.000000 angstrom
                   Q00  =  -0.000000

Finished at 17:30:6 on 27 Apr 2020

  DMA results are available in the Python driver through the
	  variable('DMA DISTRIBUTED MULTIPOLES')
  and
	  variable('DMA TOTAL MULTIPOLES')
  commands.

    Psi4 stopped on: Monday, 27 April 2020 05:30PM
    Psi4 wall time for execution: 0:24:40.65

*** Psi4 exiting successfully. Buy a developer a beer!
