                               Psi4 1.3.2 release

  ==> Input File <==

--------------------------------------------------------------------------
import numpy as np
set {scf_type pk
basis cc-pvdz
d_convergence 10
gdma_switch   0
gdma_limit    0
gdma_origin   [ 0.0,  0.0,  0.0 ]
}
molecule test {
    units Angstrom
    0 1
    --
    0 1
    C               -1.582794197539648    -1.665256129177700    -0.450476619619429
    C               -2.049794197539648    -2.986256129177700     0.140523380380571
    H               -0.723794197539648    -1.828256129177700    -1.104476619619429
    H               -2.387794197539648    -1.202256129177700    -1.019476619619429
    H               -1.318794197539648    -0.955256129177700     0.336523380380571
    H               -2.891794197539648    -2.784256129177700     0.804523380380571
    H               -1.257894197539648    -3.482176129177700     0.721013380380571
    H               -2.394234197539648    -3.642336129177700    -0.672446619619429
    C                2.133205802460352     0.510743870822300     0.489523380380571
    C                0.867205802460352     1.225743870822300     0.120523380380571
    O                0.102205802460352     1.752743870822300     0.947523380380571
    N                0.620205802460352     1.251743870822300    -1.161476619619429
    H                2.906205802460352     0.769743870822300    -0.235476619619429
    H                1.954205802460352    -0.558256129177700     0.396523380380571
    H               -0.150794197539648     1.866743870822300    -1.434476619619429
    H                1.042205802460352     0.550743870822300    -1.756476619619429
    H                2.510265802460352     0.764773870822300     1.491163380380571

}
e, wfn = energy('scf', return_wfn=True)
gdma(wfn)
dmavals = variable('DMA DISTRIBUTED MULTIPOLES')
charges = np.array(dmavals)
print(charges)
np.save('SSI-018ILE-022GLN-1-dimer.npy', np.array(charges))--------------------------------------------------------------------------

*** tstart() called on ds3
*** at Tue Apr 28 20:04:42 2020

   => Loading Basis Set <=

    Name: CC-PVDZ
    Role: ORBITAL
    Keyword: BASIS
    atoms 1-2, 9-10  entry C          line   138 file /theoryfs2/ds/metcalf/miniconda2/envs/tf2gpu/share/psi4/basis/cc-pvdz.gbs
    atoms 3-8, 13-17 entry H          line    22 file /theoryfs2/ds/metcalf/miniconda2/envs/tf2gpu/share/psi4/basis/cc-pvdz.gbs
    atoms 11         entry O          line   198 file /theoryfs2/ds/metcalf/miniconda2/envs/tf2gpu/share/psi4/basis/cc-pvdz.gbs
    atoms 12         entry N          line   168 file /theoryfs2/ds/metcalf/miniconda2/envs/tf2gpu/share/psi4/basis/cc-pvdz.gbs

         ---------------------------------------------------------
                                   SCF
               by Justin Turney, Rob Parrish, Andy Simmonett
                          and Daniel G. A. Smith
                              RHF Reference
                        1 Threads,    500 MiB Core
         ---------------------------------------------------------

  ==> Geometry <==

    Molecular point group: c1
    Full point group: C1

    Geometry (in Angstrom), charge = 0, multiplicity = 1:

       Center              X                  Y                   Z               Mass
    ------------   -----------------  -----------------  -----------------  -----------------
         C           -1.582794197540    -1.665256129178    -0.450476619619    12.000000000000
         C           -2.049794197540    -2.986256129178     0.140523380381    12.000000000000
         H           -0.723794197540    -1.828256129178    -1.104476619619     1.007825032230
         H           -2.387794197540    -1.202256129178    -1.019476619619     1.007825032230
         H           -1.318794197540    -0.955256129178     0.336523380381     1.007825032230
         H           -2.891794197540    -2.784256129178     0.804523380381     1.007825032230
         H           -1.257894197540    -3.482176129178     0.721013380381     1.007825032230
         H           -2.394234197540    -3.642336129178    -0.672446619619     1.007825032230
         C            2.133205802460     0.510743870822     0.489523380381    12.000000000000
         C            0.867205802460     1.225743870822     0.120523380381    12.000000000000
         O            0.102205802460     1.752743870822     0.947523380381    15.994914619570
         N            0.620205802460     1.251743870822    -1.161476619619    14.003074004430
         H            2.906205802460     0.769743870822    -0.235476619619     1.007825032230
         H            1.954205802460    -0.558256129178     0.396523380381     1.007825032230
         H           -0.150794197540     1.866743870822    -1.434476619619     1.007825032230
         H            1.042205802460     0.550743870822    -1.756476619619     1.007825032230
         H            2.510265802460     0.764773870822     1.491163380381     1.007825032230

  Running in c1 symmetry.

  Rotational constants: A =      0.16043  B =      0.03631  C =      0.03568 [cm^-1]
  Rotational constants: A =   4809.57314  B =   1088.45423  C =   1069.54013 [MHz]
  Nuclear repulsion =  232.018215824776149

  Charge       = 0
  Multiplicity = 1
  Electrons    = 50
  Nalpha       = 25
  Nbeta        = 25

  ==> Algorithm <==

  SCF Algorithm Type is PK.
  DIIS enabled.
  MOM disabled.
  Fractional occupation disabled.
  Guess Type is SAD.
  Energy threshold   = 1.00e-06
  Density threshold  = 1.00e-10
  Integral threshold = 0.00e+00

  ==> Primary Basis <==

  Basis Set: CC-PVDZ
    Blend: CC-PVDZ
    Number of shells: 69
    Number of basis function: 139
    Number of Cartesian functions: 145
    Spherical Harmonics?: true
    Max angular momentum: 2

  ==> Pre-Iterations <==

   -------------------------------------------------------
    Irrep   Nso     Nmo     Nalpha   Nbeta   Ndocc  Nsocc
   -------------------------------------------------------
     A        139     139       0       0       0       0
   -------------------------------------------------------
    Total     139     139      25      25      25       0
   -------------------------------------------------------

  ==> Integral Setup <==

  Using integral reordering PK algorithm.
  Sizing the integral batches needed.
  Building batch lookup table.
   Calculation information:
      Number of atoms:                  17
      Number of AO shells:              69
      Number of primitives:            187
      Number of atomic orbitals:       145
      Number of basis functions:       139

      Integral cutoff                 1.00e-12
      Number of threads:                 1

	Batch   1 pq = [       0,    9730] index = [             0,47341315] size =     47341315
  Task number: 5
  Buffer size: 11059200
  Buffer per thread: 2
  We computed 2446543 shell quartets total.
  Whereas there are 2917320 unique shell quartets.

  ==> DiskJK: Disk-Based J/K Matrices <==

    J tasked:                  Yes
    K tasked:                  Yes
    wK tasked:                  No
    Memory [MiB]:              375
    Schwarz Cutoff:          1E-12

    OpenMP threads:              1

  Minimum eigenvalue in the overlap matrix is 4.4329969935E-03.
  Using Symmetric Orthogonalization.

  SCF Guess: Superposition of Atomic Densities via on-the-fly atomic UHF.

  ==> Iterations <==

                        Total Energy        Delta E     RMS |[F,P]|

   @RHF iter SAD:  -285.97397419784465   -2.85974e+02   0.00000e+00
   @RHF iter   1:  -286.98801629907871   -1.01404e+00   4.64649e-03 DIIS
   @RHF iter   2:  -287.16436436513504   -1.76348e-01   2.62082e-03 DIIS
   @RHF iter   3:  -287.21531113497821   -5.09468e-02   5.50539e-04 DIIS
   @RHF iter   4:  -287.21876487478329   -3.45374e-03   2.24725e-04 DIIS
   @RHF iter   5:  -287.21939663609953   -6.31761e-04   3.45985e-05 DIIS
   @RHF iter   6:  -287.21942797517193   -3.13391e-05   1.55016e-05 DIIS
   @RHF iter   7:  -287.21943291997047   -4.94480e-06   6.35337e-06 DIIS
   @RHF iter   8:  -287.21943407063918   -1.15067e-06   2.21887e-06 DIIS
   @RHF iter   9:  -287.21943421786500   -1.47226e-07   5.65369e-07 DIIS
   @RHF iter  10:  -287.21943422476863   -6.90363e-09   1.81257e-07 DIIS
   @RHF iter  11:  -287.21943422554841   -7.79778e-10   4.06333e-08 DIIS
   @RHF iter  12:  -287.21943422559121   -4.28031e-11   8.97531e-09 DIIS
   @RHF iter  13:  -287.21943422559252   -1.30740e-12   1.85068e-09 DIIS
   @RHF iter  14:  -287.21943422559212    3.97904e-13   7.76392e-10 DIIS
   @RHF iter  15:  -287.21943422559337   -1.25056e-12   2.67254e-10 DIIS
   @RHF iter  16:  -287.21943422559298    3.97904e-13   8.06360e-11 DIIS
  Energy and wave function converged.

  ==> Post-Iterations <==

    Orbital Energies [Eh]
    ---------------------

    Doubly Occupied:

       1A    -20.503117     2A    -15.588227     3A    -11.344402
       4A    -11.241204     5A    -11.219291     6A    -11.216861
       7A     -1.361789     8A     -1.221150     9A     -1.020131
      10A     -1.003914    11A     -0.836625    12A     -0.795217
      13A     -0.734275    14A     -0.650623    15A     -0.618205
      16A     -0.600547    17A     -0.595817    18A     -0.571563
      19A     -0.555372    20A     -0.515857    21A     -0.502675
      22A     -0.486354    23A     -0.482244    24A     -0.410750
      25A     -0.401125

    Virtual:

      26A      0.149911    27A      0.187635    28A      0.197841
      29A      0.212300    30A      0.229289    31A      0.248186
      32A      0.250565    33A      0.255823    34A      0.265839
      35A      0.289620    36A      0.295824    37A      0.307593
      38A      0.383077    39A      0.395603    40A      0.483469
      41A      0.532887    42A      0.595248    43A      0.600031
      44A      0.601762    45A      0.626468    46A      0.642376
      47A      0.680959    48A      0.685186    49A      0.710268
      50A      0.730966    51A      0.765987    52A      0.801681
      53A      0.834090    54A      0.857148    55A      0.872701
      56A      0.886680    57A      0.893898    58A      0.896535
      59A      0.909012    60A      0.912538    61A      0.918107
      62A      0.925328    63A      0.949315    64A      0.977061
      65A      1.017074    66A      1.052800    67A      1.073179
      68A      1.105187    69A      1.122096    70A      1.131745
      71A      1.143068    72A      1.233721    73A      1.301337
      74A      1.354642    75A      1.371011    76A      1.383390
      77A      1.435335    78A      1.470052    79A      1.481829
      80A      1.485852    81A      1.535602    82A      1.583420
      83A      1.656899    84A      1.660012    85A      1.680816
      86A      1.696212    87A      1.735768    88A      1.766989
      89A      1.835916    90A      1.856192    91A      1.868294
      92A      1.882776    93A      1.904081    94A      1.909403
      95A      1.913881    96A      1.946716    97A      1.949597
      98A      1.951261    99A      1.963139   100A      1.970244
     101A      1.994060   102A      2.012812   103A      2.053313
     104A      2.076398   105A      2.098505   106A      2.112735
     107A      2.172948   108A      2.242570   109A      2.278520
     110A      2.306760   111A      2.323627   112A      2.389048
     113A      2.436730   114A      2.452414   115A      2.465149
     116A      2.504941   117A      2.517621   118A      2.557077
     119A      2.571388   120A      2.601796   121A      2.656507
     122A      2.727150   123A      2.744596   124A      2.759258
     125A      2.787430   126A      2.797947   127A      2.854444
     128A      2.859901   129A      2.877345   130A      2.948497
     131A      2.964322   132A      2.980376   133A      3.089202
     134A      3.133245   135A      3.313303   136A      3.481443
     137A      3.536474   138A      3.845747   139A      3.889546

    Final Occupation by Irrep:
              A
    DOCC [    25 ]

  @RHF Final Energy:  -287.21943422559298

   => Energetics <=

    Nuclear Repulsion Energy =            232.0182158247761492
    One-Electron Energy =                -849.5206342745001393
    Two-Electron Energy =                 330.2829842241310416
    Total Energy =                       -287.2194342255929769

Computation Completed

Properties will be evaluated at   0.000000,   0.000000,   0.000000 [a0]

Properties computed using the SCF density matrix

  Nuclear Dipole Moment: [e a0]
     X:    -2.5439      Y:    -9.8394      Z:    -2.3105

  Electronic Dipole Moment: [e a0]
     X:     3.2870      Y:     9.1749      Z:     0.9969

  Dipole Moment: [e a0]
     X:     0.7431      Y:    -0.6645      Z:    -1.3136     Total:     1.6490

  Dipole Moment: [D]
     X:     1.8887      Y:    -1.6890      Z:    -3.3388     Total:     4.1913

*** tstop() called on ds3 at Tue Apr 28 20:05:05 2020
Module time:
	user time   =      15.63 seconds =       0.26 minutes
	system time =       6.86 seconds =       0.11 minutes
	total time  =         23 seconds =       0.38 minutes
Total time:
	user time   =      15.63 seconds =       0.26 minutes
	system time =       6.86 seconds =       0.11 minutes
	total time  =         23 seconds =       0.38 minutes
                                     G D M A

                                 by Anthony Stone

                           version 2.2.06, 22 June 2011

               Distributed Multipoles from Gaussian wavefunctions

Starting at 20:5:5 on 28 Apr 2020

Using SCF density matrix from file ./SSI/SSI-018ILE-022GLN-1-dimer.test.28418.fchk

                         Distributed Multipole Analysis

Standard DMA

Positions and radii in angstrom
Multipole moments in atomic units, ea_0^k for rank k

C          x = -1.582794  y = -1.665256  z = -0.450477 angstrom
           Maximum rank =  0   Radius =  0.650 angstrom
                   Q00  =  -0.233321

C          x = -2.049794  y = -2.986256  z =  0.140523 angstrom
           Maximum rank =  0   Radius =  0.650 angstrom
                   Q00  =  -0.233189

H          x = -0.723794  y = -1.828256  z = -1.104477 angstrom
           Maximum rank =  0   Radius =  0.325 angstrom
                   Q00  =   0.058813

H          x = -2.387794  y = -1.202256  z = -1.019477 angstrom
           Maximum rank =  0   Radius =  0.325 angstrom
                   Q00  =   0.079894

H          x = -1.318794  y = -0.955256  z =  0.336523 angstrom
           Maximum rank =  0   Radius =  0.325 angstrom
                   Q00  =   0.090442

H          x = -2.891794  y = -2.784256  z =  0.804523 angstrom
           Maximum rank =  0   Radius =  0.325 angstrom
                   Q00  =   0.082528

H          x = -1.257894  y = -3.482176  z =  0.721013 angstrom
           Maximum rank =  0   Radius =  0.325 angstrom
                   Q00  =   0.079025

H          x = -2.394234  y = -3.642336  z = -0.672447 angstrom
           Maximum rank =  0   Radius =  0.325 angstrom
                   Q00  =   0.074146

C          x =  2.133206  y =  0.510744  z =  0.489523 angstrom
           Maximum rank =  0   Radius =  0.650 angstrom
                   Q00  =  -0.265853

C          x =  0.867206  y =  1.225744  z =  0.120523 angstrom
           Maximum rank =  0   Radius =  0.650 angstrom
                   Q00  =   0.829635

O          x =  0.102206  y =  1.752744  z =  0.947523 angstrom
           Maximum rank =  0   Radius =  0.650 angstrom
                   Q00  =  -0.806766

N          x =  0.620206  y =  1.251744  z = -1.161477 angstrom
           Maximum rank =  0   Radius =  0.650 angstrom
                   Q00  =  -0.535566

H          x =  2.906206  y =  0.769744  z = -0.235477 angstrom
           Maximum rank =  0   Radius =  0.325 angstrom
                   Q00  =   0.090293

H          x =  1.954206  y = -0.558256  z =  0.396523 angstrom
           Maximum rank =  0   Radius =  0.325 angstrom
                   Q00  =   0.115108

H          x = -0.150794  y =  1.866744  z = -1.434477 angstrom
           Maximum rank =  0   Radius =  0.325 angstrom
                   Q00  =   0.227275

H          x =  1.042206  y =  0.550744  z = -1.756477 angstrom
           Maximum rank =  0   Radius =  0.325 angstrom
                   Q00  =   0.215410

H          x =  2.510266  y =  0.764774  z =  1.491163 angstrom
           Maximum rank =  0   Radius =  0.325 angstrom
                   Q00  =   0.132125

Total multipoles referred to origin at
           x =   0.000000,  y =    0.000000,  z =    0.000000 angstrom
                   Q00  =  -0.000000

Finished at 20:5:5 on 28 Apr 2020

  DMA results are available in the Python driver through the
	  variable('DMA DISTRIBUTED MULTIPOLES')
  and
	  variable('DMA TOTAL MULTIPOLES')
  commands.

    Psi4 stopped on: Tuesday, 28 April 2020 08:05PM
    Psi4 wall time for execution: 0:00:22.47

*** Psi4 exiting successfully. Buy a developer a beer!
