                               Psi4 1.3.2 release

  ==> Input File <==

--------------------------------------------------------------------------
import numpy as np
set {scf_type pk
basis cc-pvdz
d_convergence 10
gdma_switch   0
gdma_limit    0
gdma_origin   [ 0.0,  0.0,  0.0 ]
}
molecule test {
    units Angstrom
    1 1
    --
    1 1
    C                0.165725287931290    -1.591926507421438     1.018508987911744
    C                0.730725287931290    -2.080926507421438     2.358508987911744
    C                1.343725287931290    -1.373926507421438     0.022508987911744
    C               -0.966274712068710    -2.473926507421437     0.401508987911744
    H               -0.268274712068710    -0.619926507421437     1.203508987911744
    H                1.513725287931289    -1.393926507421438     2.685508987911745
    H                1.213725287931290    -3.036926507421438     2.171508987911744
    H                1.847725287931289    -2.323926507421437    -0.152491012088256
    H                0.958725287931290    -1.010926507421438    -0.924491012088256
    H                2.056725287931290    -0.661926507421438     0.435508987911744
    H               -1.836274712068710    -2.484926507421438     1.056508987911744
    H               -1.262274712068711    -2.055926507421437    -0.560491012088256
    H               -0.601274712068710    -3.489926507421437     0.252508987911744
    H               -0.008464712068710    -2.181790507421438     3.166858987911744
    C                1.523725287931289     2.095073492578563    -0.232491012088256
    C               -0.693274712068710     1.343073492578563    -0.887491012088256
    N                0.546725287931289     1.645073492578562    -1.201491012088255
    N               -1.133274712068711     1.538073492578562     0.342508987911744
    N               -1.492274712068711     0.825073492578562    -1.782491012088255
    H                0.844725287931290     1.553073492578562    -2.166491012088255
    H               -0.500274712068710     1.844073492578563     1.066508987911744
    H               -2.049274712068710     1.209073492578562     0.627508987911744
    H               -1.065274712068711     0.394073492578563    -2.596491012088256
    H               -2.457274712068710     0.630073492578562    -1.541491012088256
    H                2.475725287931290     1.651073492578563    -0.520491012088256
    H                1.301725287931289     1.712073492578563     0.765508987911744
    H                1.663615287931290     3.185326492578562    -0.190301012088256

}
e, wfn = energy('scf', return_wfn=True)
gdma(wfn)
dmavals = variable('DMA DISTRIBUTED MULTIPOLES')
charges = np.array(dmavals)
print(charges)
np.save('SSI-143LEU-160ARG-1-dimer.npy', np.array(charges))--------------------------------------------------------------------------

*** tstart() called on ds3
*** at Mon Apr 27 15:59:39 2020

   => Loading Basis Set <=

    Name: CC-PVDZ
    Role: ORBITAL
    Keyword: BASIS
    atoms 1-4, 15-16  entry C          line   138 file /theoryfs2/ds/metcalf/miniconda2/envs/tf2gpu/share/psi4/basis/cc-pvdz.gbs
    atoms 5-14, 20-27 entry H          line    22 file /theoryfs2/ds/metcalf/miniconda2/envs/tf2gpu/share/psi4/basis/cc-pvdz.gbs
    atoms 17-19       entry N          line   168 file /theoryfs2/ds/metcalf/miniconda2/envs/tf2gpu/share/psi4/basis/cc-pvdz.gbs

         ---------------------------------------------------------
                                   SCF
               by Justin Turney, Rob Parrish, Andy Simmonett
                          and Daniel G. A. Smith
                              RHF Reference
                        1 Threads,    500 MiB Core
         ---------------------------------------------------------

  ==> Geometry <==

    Molecular point group: c1
    Full point group: C1

    Geometry (in Angstrom), charge = 1, multiplicity = 1:

       Center              X                  Y                   Z               Mass
    ------------   -----------------  -----------------  -----------------  -----------------
         C            0.165725287931    -1.591926507421     1.018508987912    12.000000000000
         C            0.730725287931    -2.080926507421     2.358508987912    12.000000000000
         C            1.343725287931    -1.373926507421     0.022508987912    12.000000000000
         C           -0.966274712069    -2.473926507421     0.401508987912    12.000000000000
         H           -0.268274712069    -0.619926507421     1.203508987912     1.007825032230
         H            1.513725287931    -1.393926507421     2.685508987912     1.007825032230
         H            1.213725287931    -3.036926507421     2.171508987912     1.007825032230
         H            1.847725287931    -2.323926507421    -0.152491012088     1.007825032230
         H            0.958725287931    -1.010926507421    -0.924491012088     1.007825032230
         H            2.056725287931    -0.661926507421     0.435508987912     1.007825032230
         H           -1.836274712069    -2.484926507421     1.056508987912     1.007825032230
         H           -1.262274712069    -2.055926507421    -0.560491012088     1.007825032230
         H           -0.601274712069    -3.489926507421     0.252508987912     1.007825032230
         H           -0.008464712069    -2.181790507421     3.166858987912     1.007825032230
         C            1.523725287931     2.095073492579    -0.232491012088    12.000000000000
         C           -0.693274712069     1.343073492579    -0.887491012088    12.000000000000
         N            0.546725287931     1.645073492579    -1.201491012088    14.003074004430
         N           -1.133274712069     1.538073492579     0.342508987912    14.003074004430
         N           -1.492274712069     0.825073492579    -1.782491012088    14.003074004430
         H            0.844725287931     1.553073492579    -2.166491012088     1.007825032230
         H           -0.500274712069     1.844073492579     1.066508987912     1.007825032230
         H           -2.049274712069     1.209073492579     0.627508987912     1.007825032230
         H           -1.065274712069     0.394073492579    -2.596491012088     1.007825032230
         H           -2.457274712069     0.630073492579    -1.541491012088     1.007825032230
         H            2.475725287931     1.651073492579    -0.520491012088     1.007825032230
         H            1.301725287931     1.712073492579     0.765508987912     1.007825032230
         H            1.663615287931     3.185326492579    -0.190301012088     1.007825032230

  Running in c1 symmetry.

  Rotational constants: A =      0.06388  B =      0.02860  C =      0.02448 [cm^-1]
  Rotational constants: A =   1914.94871  B =    857.49097  C =    733.89672 [MHz]
  Nuclear repulsion =  504.781648859911627

  Charge       = 1
  Multiplicity = 1
  Electrons    = 74
  Nalpha       = 37
  Nbeta        = 37

  ==> Algorithm <==

  SCF Algorithm Type is PK.
  DIIS enabled.
  MOM disabled.
  Fractional occupation disabled.
  Guess Type is SAD.
  Energy threshold   = 1.00e-06
  Density threshold  = 1.00e-10
  Integral threshold = 0.00e+00

  ==> Primary Basis <==

  Basis Set: CC-PVDZ
    Blend: CC-PVDZ
    Number of shells: 108
    Number of basis function: 216
    Number of Cartesian functions: 225
    Spherical Harmonics?: true
    Max angular momentum: 2

  ==> Pre-Iterations <==

   -------------------------------------------------------
    Irrep   Nso     Nmo     Nalpha   Nbeta   Ndocc  Nsocc
   -------------------------------------------------------
     A        216     216       0       0       0       0
   -------------------------------------------------------
    Total     216     216      37      37      37       0
   -------------------------------------------------------

  ==> Integral Setup <==

  Using integral reordering PK algorithm.
  Sizing the integral batches needed.
  Building batch lookup table.
   Calculation information:
      Number of atoms:                  27
      Number of AO shells:             108
      Number of primitives:            288
      Number of atomic orbitals:       225
      Number of basis functions:       216

      Integral cutoff                 1.00e-12
      Number of threads:                 1

	Batch   1 pq = [       0,    9405] index = [             0,44231715] size =     44231715
	Batch   2 pq = [    9405,   13301] index = [      44231715,88464951] size =     44233236
	Batch   3 pq = [   13301,   16290] index = [      88464951,132690195] size =     44225244
	Batch   4 pq = [   16290,   18810] index = [     132690195,176917455] size =     44227260
	Batch   5 pq = [   18810,   21030] index = [     176917455,221140965] size =     44223510
	Batch   6 pq = [   21030,   23037] index = [     221140965,265363203] size =     44222238
	Batch   7 pq = [   23037,   23436] index = [     265363203,274634766] size =      9271563
  Task number: 25
  Buffer size: 11059200
  Buffer per thread: 2
  We computed 18201404 shell quartets total.
  Whereas there are 17325441 unique shell quartets.
     5.06 percent of shell quartets recomputed by reordering.

  ==> DiskJK: Disk-Based J/K Matrices <==

    J tasked:                  Yes
    K tasked:                  Yes
    wK tasked:                  No
    Memory [MiB]:              375
    Schwarz Cutoff:          1E-12

    OpenMP threads:              1

  Minimum eigenvalue in the overlap matrix is 3.3223264574E-03.
  Using Symmetric Orthogonalization.

  SCF Guess: Superposition of Atomic Densities via on-the-fly atomic UHF.

  ==> Iterations <==

                        Total Energy        Delta E     RMS |[F,P]|

   @RHF iter SAD:  -400.24716316021249   -4.00247e+02   0.00000e+00
   @RHF iter   1:  -400.61602450428273   -3.68861e-01   2.99149e-03 DIIS
   @RHF iter   2:  -400.84348405665708   -2.27460e-01   1.18441e-03 DIIS
   @RHF iter   3:  -400.87691874439162   -3.34347e-02   2.85547e-04 DIIS
   @RHF iter   4:  -400.88012451222806   -3.20577e-03   5.58403e-05 DIIS
   @RHF iter   5:  -400.88023077646693   -1.06264e-04   1.71077e-05 DIIS
   @RHF iter   6:  -400.88024290215202   -1.21257e-05   3.59503e-06 DIIS
   @RHF iter   7:  -400.88024358633703   -6.84185e-07   1.19640e-06 DIIS
   @RHF iter   8:  -400.88024364721230   -6.08753e-08   3.64231e-07 DIIS
   @RHF iter   9:  -400.88024365250249   -5.29019e-09   8.14933e-08 DIIS
   @RHF iter  10:  -400.88024365278125   -2.78760e-10   2.48473e-08 DIIS
   @RHF iter  11:  -400.88024365280205   -2.08047e-11   6.40207e-09 DIIS
   @RHF iter  12:  -400.88024365280188    1.70530e-13   1.73249e-09 DIIS
   @RHF iter  13:  -400.88024365280637   -4.49063e-12   6.00299e-10 DIIS
   @RHF iter  14:  -400.88024365280660   -2.27374e-13   2.06216e-10 DIIS
   @RHF iter  15:  -400.88024365280495    1.64846e-12   5.83597e-11 DIIS
  Energy and wave function converged.

  ==> Post-Iterations <==

    Orbital Energies [Eh]
    ---------------------

    Doubly Occupied:

       1A    -15.787539     2A    -15.787303     3A    -15.785584
       4A    -11.586115     5A    -11.438977     6A    -11.344428
       7A    -11.336267     8A    -11.330939     9A    -11.319013
      10A     -1.551578    11A     -1.408204    12A     -1.391723
      13A     -1.188784    14A     -1.144090    15A     -1.044201
      16A     -1.037696    17A     -1.035442    18A     -0.980049
      19A     -0.943831    20A     -0.882010    21A     -0.861377
      22A     -0.856247    23A     -0.828307    24A     -0.798253
      25A     -0.744277    26A     -0.740043    27A     -0.721880
      28A     -0.707162    29A     -0.693728    30A     -0.653255
      31A     -0.640247    32A     -0.627749    33A     -0.621366
      34A     -0.586684    35A     -0.574999    36A     -0.568575
      37A     -0.562370

    Virtual:

      38A     -0.015151    39A      0.022156    40A      0.023565
      41A      0.031476    42A      0.054825    43A      0.080440
      44A      0.085904    45A      0.109465    46A      0.115399
      47A      0.127975    48A      0.133095    49A      0.142602
      50A      0.151361    51A      0.160435    52A      0.175739
      53A      0.183715    54A      0.198251    55A      0.208898
      56A      0.212416    57A      0.227410    58A      0.248893
      59A      0.277034    60A      0.287184    61A      0.311939
      62A      0.340357    63A      0.344961    64A      0.404520
      65A      0.440329    66A      0.453002    67A      0.469389
      68A      0.480654    69A      0.504048    70A      0.520152
      71A      0.538167    72A      0.552729    73A      0.562883
      74A      0.576702    75A      0.599939    76A      0.633251
      77A      0.649001    78A      0.667847    79A      0.672847
      80A      0.681864    81A      0.695518    82A      0.702652
      83A      0.721894    84A      0.724730    85A      0.737271
      86A      0.751459    87A      0.757887    88A      0.768095
      89A      0.773578    90A      0.781761    91A      0.786563
      92A      0.797314    93A      0.807497    94A      0.819623
      95A      0.827434    96A      0.837622    97A      0.845044
      98A      0.860428    99A      0.872191   100A      0.884475
     101A      0.904080   102A      0.922059   103A      0.935921
     104A      0.954732   105A      0.956420   106A      0.980968
     107A      1.008903   108A      1.019024   109A      1.024849
     110A      1.052241   111A      1.107783   112A      1.113684
     113A      1.132921   114A      1.161399   115A      1.192324
     116A      1.222400   117A      1.233209   118A      1.257905
     119A      1.290346   120A      1.320758   121A      1.354355
     122A      1.393338   123A      1.417694   124A      1.434089
     125A      1.483585   126A      1.496183   127A      1.520743
     128A      1.536199   129A      1.548498   130A      1.568417
     131A      1.578675   132A      1.581988   133A      1.590828
     134A      1.608271   135A      1.617754   136A      1.637985
     137A      1.643646   138A      1.655322   139A      1.707063
     140A      1.714359   141A      1.723077   142A      1.737627
     143A      1.753408   144A      1.761749   145A      1.786927
     146A      1.796687   147A      1.804423   148A      1.816216
     149A      1.820355   150A      1.822683   151A      1.833423
     152A      1.850430   153A      1.857466   154A      1.859732
     155A      1.878032   156A      1.886192   157A      1.904662
     158A      1.910409   159A      1.928672   160A      1.964991
     161A      1.967855   162A      1.985852   163A      2.002789
     164A      2.016523   165A      2.023294   166A      2.027409
     167A      2.040539   168A      2.130737   169A      2.132083
     170A      2.166680   171A      2.170987   172A      2.177478
     173A      2.194940   174A      2.213767   175A      2.216238
     176A      2.236394   177A      2.246560   178A      2.251006
     179A      2.271542   180A      2.287501   181A      2.365480
     182A      2.374274   183A      2.388930   184A      2.414874
     185A      2.434627   186A      2.466843   187A      2.470206
     188A      2.509121   189A      2.519115   190A      2.524952
     191A      2.587739   192A      2.601141   193A      2.612287
     194A      2.612921   195A      2.649761   196A      2.672365
     197A      2.684314   198A      2.694003   199A      2.700743
     200A      2.719707   201A      2.731047   202A      2.744319
     203A      2.754273   204A      2.773595   205A      2.794197
     206A      2.827297   207A      2.866247   208A      2.902267
     209A      2.912317   210A      2.932631   211A      3.020146
     212A      3.070906   213A      3.097577   214A      3.118283
     215A      3.584837   216A      3.651895

    Final Occupation by Irrep:
              A
    DOCC [    37 ]

  @RHF Final Energy:  -400.88024365280495

   => Energetics <=

    Nuclear Repulsion Energy =            504.7816488599116269
    One-Electron Energy =               -1531.1032019144138303
    Two-Electron Energy =                 625.4413094016971399
    Total Energy =                       -400.8802436528050066

Computation Completed

Properties will be evaluated at   0.000000,   0.000000,   0.000000 [a0]

Properties computed using the SCF density matrix

  Nuclear Dipole Moment: [e a0]
     X:     3.5944      Y:    -6.6501      Z:     4.4876

  Electronic Dipole Moment: [e a0]
     X:    -4.4063      Y:     8.6692      Z:    -5.7601

  Dipole Moment: [e a0]
     X:    -0.8119      Y:     2.0191      Z:    -1.2726     Total:     2.5210

  Dipole Moment: [D]
     X:    -2.0637      Y:     5.1319      Z:    -3.2345     Total:     6.4076

*** tstop() called on ds3 at Mon Apr 27 16:02:37 2020
Module time:
	user time   =     115.62 seconds =       1.93 minutes
	system time =      46.42 seconds =       0.77 minutes
	total time  =        178 seconds =       2.97 minutes
Total time:
	user time   =     115.62 seconds =       1.93 minutes
	system time =      46.42 seconds =       0.77 minutes
	total time  =        178 seconds =       2.97 minutes
                                     G D M A

                                 by Anthony Stone

                           version 2.2.06, 22 June 2011

               Distributed Multipoles from Gaussian wavefunctions

Starting at 16:2:37 on 27 Apr 2020

Using SCF density matrix from file ./SSI/SSI-143LEU-160ARG-1-dimer.test.21680.fchk

                         Distributed Multipole Analysis

Standard DMA

Positions and radii in angstrom
Multipole moments in atomic units, ea_0^k for rank k

C          x =  0.165725  y = -1.591927  z =  1.018509 angstrom
           Maximum rank =  0   Radius =  0.650 angstrom
                   Q00  =  -0.012994

C          x =  0.730725  y = -2.080927  z =  2.358509 angstrom
           Maximum rank =  0   Radius =  0.650 angstrom
                   Q00  =  -0.228076

C          x =  1.343725  y = -1.373927  z =  0.022509 angstrom
           Maximum rank =  0   Radius =  0.650 angstrom
                   Q00  =  -0.253901

C          x = -0.966275  y = -2.473927  z =  0.401509 angstrom
           Maximum rank =  0   Radius =  0.650 angstrom
                   Q00  =  -0.240809

H          x = -0.268275  y = -0.619927  z =  1.203509 angstrom
           Maximum rank =  0   Radius =  0.325 angstrom
                   Q00  =  -0.041980

H          x =  1.513725  y = -1.393927  z =  2.685509 angstrom
           Maximum rank =  0   Radius =  0.325 angstrom
                   Q00  =   0.080881

H          x =  1.213725  y = -3.036927  z =  2.171509 angstrom
           Maximum rank =  0   Radius =  0.325 angstrom
                   Q00  =   0.093575

H          x =  1.847725  y = -2.323927  z = -0.152491 angstrom
           Maximum rank =  0   Radius =  0.325 angstrom
                   Q00  =   0.111307

H          x =  0.958725  y = -1.010927  z = -0.924491 angstrom
           Maximum rank =  0   Radius =  0.325 angstrom
                   Q00  =   0.044758

H          x =  2.056725  y = -0.661927  z =  0.435509 angstrom
           Maximum rank =  0   Radius =  0.325 angstrom
                   Q00  =   0.079044

H          x = -1.836275  y = -2.484927  z =  1.056509 angstrom
           Maximum rank =  0   Radius =  0.325 angstrom
                   Q00  =   0.095726

H          x = -1.262275  y = -2.055927  z = -0.560491 angstrom
           Maximum rank =  0   Radius =  0.325 angstrom
                   Q00  =   0.053396

H          x = -0.601275  y = -3.489927  z =  0.252509 angstrom
           Maximum rank =  0   Radius =  0.325 angstrom
                   Q00  =   0.108322

H          x = -0.008465  y = -2.181791  z =  3.166859 angstrom
           Maximum rank =  0   Radius =  0.325 angstrom
                   Q00  =   0.098619

C          x =  1.523725  y =  2.095073  z = -0.232491 angstrom
           Maximum rank =  0   Radius =  0.650 angstrom
                   Q00  =  -0.133512

C          x = -0.693275  y =  1.343073  z = -0.887491 angstrom
           Maximum rank =  0   Radius =  0.650 angstrom
                   Q00  =   1.081771

N          x =  0.546725  y =  1.645073  z = -1.201491 angstrom
           Maximum rank =  0   Radius =  0.650 angstrom
                   Q00  =  -0.469183

N          x = -1.133275  y =  1.538073  z =  0.342509 angstrom
           Maximum rank =  0   Radius =  0.650 angstrom
                   Q00  =  -0.583566

N          x = -1.492275  y =  0.825073  z = -1.782491 angstrom
           Maximum rank =  0   Radius =  0.650 angstrom
                   Q00  =  -0.596993

H          x =  0.844725  y =  1.553073  z = -2.166491 angstrom
           Maximum rank =  0   Radius =  0.325 angstrom
                   Q00  =   0.243592

H          x = -0.500275  y =  1.844073  z =  1.066509 angstrom
           Maximum rank =  0   Radius =  0.325 angstrom
                   Q00  =   0.270007

H          x = -2.049275  y =  1.209073  z =  0.627509 angstrom
           Maximum rank =  0   Radius =  0.325 angstrom
                   Q00  =   0.267916

H          x = -1.065275  y =  0.394073  z = -2.596491 angstrom
           Maximum rank =  0   Radius =  0.325 angstrom
                   Q00  =   0.267680

H          x = -2.457275  y =  0.630073  z = -1.541491 angstrom
           Maximum rank =  0   Radius =  0.325 angstrom
                   Q00  =   0.271134

H          x =  2.475725  y =  1.651073  z = -0.520491 angstrom
           Maximum rank =  0   Radius =  0.325 angstrom
                   Q00  =   0.150543

H          x =  1.301725  y =  1.712073  z =  0.765509 angstrom
           Maximum rank =  0   Radius =  0.325 angstrom
                   Q00  =   0.106086

H          x =  1.663615  y =  3.185326  z = -0.190301 angstrom
           Maximum rank =  0   Radius =  0.325 angstrom
                   Q00  =   0.136658

Total multipoles referred to origin at
           x =   0.000000,  y =    0.000000,  z =    0.000000 angstrom
                   Q00  =   1.000000

Finished at 16:2:37 on 27 Apr 2020

  DMA results are available in the Python driver through the
	  variable('DMA DISTRIBUTED MULTIPOLES')
  and
	  variable('DMA TOTAL MULTIPOLES')
  commands.

    Psi4 stopped on: Monday, 27 April 2020 04:02PM
    Psi4 wall time for execution: 0:02:58.98

*** Psi4 exiting successfully. Buy a developer a beer!
