                               Psi4 1.3.2 release

  ==> Input File <==

--------------------------------------------------------------------------
import numpy as np
set {scf_type pk
basis cc-pvdz
d_convergence 10
gdma_switch   0
gdma_limit    0
gdma_origin   [ 0.0,  0.0,  0.0 ]
}
molecule test {
    units Angstrom
    -1 1
    --
    -1 1
    C               -2.209193085736824    -1.587762568791895     0.753868706141943
    C               -2.787193085736825    -1.770762568791895    -0.677131293858057
    H               -3.021193085736825    -1.507762568791895     1.477868706141943
    H               -1.585193085736824    -2.441762568791895     1.014868706141943
    H               -1.607193085736824    -0.679762568791895     0.797868706141943
    H               -1.968193085736824    -1.846762568791895    -1.395131293858057
    H               -3.409073085736825    -0.899422568791895    -0.930171293858057
    H               -3.385073085736825    -2.693232568791895    -0.716941293858057
    C                0.672806914263175     0.171237431208105    -0.907131293858057
    C                1.969806914263175     0.284237431208105    -1.718131293858057
    C                0.791806914263175     0.826237431208105     0.474868706141943
    O                1.842806914263175     0.649237431208105     1.134868706141943
    O               -0.179193085736825     1.496237431208105     0.909868706141943
    H               -0.104193085736825     0.675237431208105    -1.478131293858057
    H                0.402806914263175    -0.878762568791895    -0.784131293858057
    H                2.812806914263176    -0.031762568791895    -1.105131293858057
    H                2.115806914263175     1.323237431208105    -2.019131293858057
    H                1.943986914263175    -0.341232568791895    -2.622631293858057

}
e, wfn = energy('scf', return_wfn=True)
gdma(wfn)
dmavals = variable('DMA DISTRIBUTED MULTIPOLES')
charges = np.array(dmavals)
print(charges)
np.save('SSI-003THR-182GLU-1-dimer.npy', np.array(charges))--------------------------------------------------------------------------

*** tstart() called on ds3
*** at Tue Apr 28 08:51:03 2020

   => Loading Basis Set <=

    Name: CC-PVDZ
    Role: ORBITAL
    Keyword: BASIS
    atoms 1-2, 9-11  entry C          line   138 file /theoryfs2/ds/metcalf/miniconda2/envs/tf2gpu/share/psi4/basis/cc-pvdz.gbs
    atoms 3-8, 14-18 entry H          line    22 file /theoryfs2/ds/metcalf/miniconda2/envs/tf2gpu/share/psi4/basis/cc-pvdz.gbs
    atoms 12-13      entry O          line   198 file /theoryfs2/ds/metcalf/miniconda2/envs/tf2gpu/share/psi4/basis/cc-pvdz.gbs

         ---------------------------------------------------------
                                   SCF
               by Justin Turney, Rob Parrish, Andy Simmonett
                          and Daniel G. A. Smith
                              RHF Reference
                        1 Threads,    500 MiB Core
         ---------------------------------------------------------

  ==> Geometry <==

    Molecular point group: c1
    Full point group: C1

    Geometry (in Angstrom), charge = -1, multiplicity = 1:

       Center              X                  Y                   Z               Mass
    ------------   -----------------  -----------------  -----------------  -----------------
         C           -2.209193085737    -1.587762568792     0.753868706142    12.000000000000
         C           -2.787193085737    -1.770762568792    -0.677131293858    12.000000000000
         H           -3.021193085737    -1.507762568792     1.477868706142     1.007825032230
         H           -1.585193085737    -2.441762568792     1.014868706142     1.007825032230
         H           -1.607193085737    -0.679762568792     0.797868706142     1.007825032230
         H           -1.968193085737    -1.846762568792    -1.395131293858     1.007825032230
         H           -3.409073085737    -0.899422568792    -0.930171293858     1.007825032230
         H           -3.385073085737    -2.693232568792    -0.716941293858     1.007825032230
         C            0.672806914263     0.171237431208    -0.907131293858    12.000000000000
         C            1.969806914263     0.284237431208    -1.718131293858    12.000000000000
         C            0.791806914263     0.826237431208     0.474868706142    12.000000000000
         O            1.842806914263     0.649237431208     1.134868706142    15.994914619570
         O           -0.179193085737     1.496237431208     0.909868706142    15.994914619570
         H           -0.104193085737     0.675237431208    -1.478131293858     1.007825032230
         H            0.402806914263    -0.878762568792    -0.784131293858     1.007825032230
         H            2.812806914263    -0.031762568792    -1.105131293858     1.007825032230
         H            2.115806914263     1.323237431208    -2.019131293858     1.007825032230
         H            1.943986914263    -0.341232568792    -2.622631293858     1.007825032230

  Running in c1 symmetry.

  Rotational constants: A =      0.10091  B =      0.03730  C =      0.03071 [cm^-1]
  Rotational constants: A =   3025.33851  B =   1118.14809  C =    920.62174 [MHz]
  Nuclear repulsion =  294.421290639482493

  Charge       = -1
  Multiplicity = 1
  Electrons    = 58
  Nalpha       = 29
  Nbeta        = 29

  ==> Algorithm <==

  SCF Algorithm Type is PK.
  DIIS enabled.
  MOM disabled.
  Fractional occupation disabled.
  Guess Type is SAD.
  Energy threshold   = 1.00e-06
  Density threshold  = 1.00e-10
  Integral threshold = 0.00e+00

  ==> Primary Basis <==

  Basis Set: CC-PVDZ
    Blend: CC-PVDZ
    Number of shells: 75
    Number of basis function: 153
    Number of Cartesian functions: 160
    Spherical Harmonics?: true
    Max angular momentum: 2

  ==> Pre-Iterations <==

   -------------------------------------------------------
    Irrep   Nso     Nmo     Nalpha   Nbeta   Ndocc  Nsocc
   -------------------------------------------------------
     A        153     153       0       0       0       0
   -------------------------------------------------------
    Total     153     153      29      29      29       0
   -------------------------------------------------------

  ==> Integral Setup <==

  Using integral reordering PK algorithm.
  Sizing the integral batches needed.
  Building batch lookup table.
   Calculation information:
      Number of atoms:                  18
      Number of AO shells:              75
      Number of primitives:            209
      Number of atomic orbitals:       160
      Number of basis functions:       153

      Integral cutoff                 1.00e-12
      Number of threads:                 1

	Batch   1 pq = [       0,    9405] index = [             0,44231715] size =     44231715
	Batch   2 pq = [    9405,   11781] index = [      44231715,69401871] size =     25170156
  Task number: 7
  Buffer size: 11059200
  Buffer per thread: 2
  We computed 3615780 shell quartets total.
  Whereas there are 4062675 unique shell quartets.

  ==> DiskJK: Disk-Based J/K Matrices <==

    J tasked:                  Yes
    K tasked:                  Yes
    wK tasked:                  No
    Memory [MiB]:              375
    Schwarz Cutoff:          1E-12

    OpenMP threads:              1

  Minimum eigenvalue in the overlap matrix is 4.1097084664E-03.
  Using Symmetric Orthogonalization.

  SCF Guess: Superposition of Atomic Densities via on-the-fly atomic UHF.

  ==> Iterations <==

                        Total Energy        Delta E     RMS |[F,P]|

   @RHF iter SAD:  -343.78494089589395   -3.43785e+02   0.00000e+00
   @RHF iter   1:  -345.22823045440970   -1.44329e+00   4.87825e-03 DIIS
   @RHF iter   2:  -345.44695872999756   -2.18728e-01   2.71522e-03 DIIS
   @RHF iter   3:  -345.51141693621298   -6.44582e-02   4.27911e-04 DIIS
   @RHF iter   4:  -345.51440187345361   -2.98494e-03   1.67840e-04 DIIS
   @RHF iter   5:  -345.51484877367199   -4.46900e-04   2.40630e-05 DIIS
   @RHF iter   6:  -345.51486215163129   -1.33780e-05   5.38565e-06 DIIS
   @RHF iter   7:  -345.51486276658096   -6.14950e-07   1.95048e-06 DIIS
   @RHF iter   8:  -345.51486282968563   -6.31047e-08   7.50710e-07 DIIS
   @RHF iter   9:  -345.51486283859253   -8.90691e-09   2.52772e-07 DIIS
   @RHF iter  10:  -345.51486284022957   -1.63703e-09   7.65738e-08 DIIS
   @RHF iter  11:  -345.51486284043165   -2.02078e-10   2.15588e-08 DIIS
   @RHF iter  12:  -345.51486284044859   -1.69393e-11   7.90431e-09 DIIS
   @RHF iter  13:  -345.51486284045245   -3.86535e-12   2.84264e-09 DIIS
   @RHF iter  14:  -345.51486284045200    4.54747e-13   9.68860e-10 DIIS
   @RHF iter  15:  -345.51486284045103    9.66338e-13   3.32847e-10 DIIS
   @RHF iter  16:  -345.51486284045342   -2.38742e-12   1.13014e-10 DIIS
   @RHF iter  17:  -345.51486284045370   -2.84217e-13   4.54626e-11 DIIS
  Energy and wave function converged.

  ==> Post-Iterations <==

    Orbital Energies [Eh]
    ---------------------

    Doubly Occupied:

       1A    -20.263661     2A    -20.263495     3A    -11.118057
       4A    -11.113622     5A    -11.094452     6A    -11.073506
       7A    -11.055971     8A     -1.149386     9A     -1.036227
      10A     -0.896851    11A     -0.871072    12A     -0.722761
      13A     -0.703115    14A     -0.509153    15A     -0.482028
      16A     -0.479917    17A     -0.458762    18A     -0.432364
      19A     -0.389706    20A     -0.378628    21A     -0.374933
      22A     -0.373488    23A     -0.362320    24A     -0.358545
      25A     -0.323213    26A     -0.301658    27A     -0.183800
      28A     -0.174307    29A     -0.162388

    Virtual:

      30A      0.291442    31A      0.327810    32A      0.343845
      33A      0.358002    34A      0.362456    35A      0.382394
      36A      0.396738    37A      0.408630    38A      0.420794
      39A      0.437287    40A      0.467454    41A      0.480649
      42A      0.502941    43A      0.558103    44A      0.605791
      45A      0.691890    46A      0.696532    47A      0.715948
      48A      0.722020    49A      0.740206    50A      0.760077
      51A      0.789868    52A      0.805934    53A      0.828605
      54A      0.898582    55A      0.942404    56A      0.963566
      57A      0.975990    58A      0.997192    59A      1.004529
      60A      1.009944    61A      1.014847    62A      1.036378
      63A      1.038379    64A      1.046796    65A      1.055055
      66A      1.060848    67A      1.069250    68A      1.084309
      69A      1.092960    70A      1.128027    71A      1.150502
      72A      1.156547    73A      1.236224    74A      1.240223
      75A      1.260717    76A      1.300409    77A      1.306669
      78A      1.371480    79A      1.408028    80A      1.484463
      81A      1.525545    82A      1.564422    83A      1.586514
      84A      1.592474    85A      1.605530    86A      1.619186
      87A      1.649740    88A      1.677621    89A      1.682415
      90A      1.738364    91A      1.763632    92A      1.785250
      93A      1.823431    94A      1.844397    95A      1.883834
      96A      1.916713    97A      1.976033    98A      1.984395
      99A      1.995328   100A      2.030503   101A      2.043984
     102A      2.049595   103A      2.060930   104A      2.065792
     105A      2.071360   106A      2.077953   107A      2.092311
     108A      2.116165   109A      2.132548   110A      2.146055
     111A      2.163033   112A      2.179626   113A      2.211582
     114A      2.228603   115A      2.246916   116A      2.271131
     117A      2.382803   118A      2.384217   119A      2.409010
     120A      2.430302   121A      2.461470   122A      2.482137
     123A      2.532695   124A      2.570865   125A      2.575644
     126A      2.593886   127A      2.659027   128A      2.687825
     129A      2.695950   130A      2.738049   131A      2.746007
     132A      2.819954   133A      2.872622   134A      2.913204
     135A      2.926471   136A      2.957469   137A      2.962985
     138A      2.991542   139A      3.007385   140A      3.051908
     141A      3.072215   142A      3.089093   143A      3.132271
     144A      3.249946   145A      3.284280   146A      3.299952
     147A      3.361843   148A      3.631656   149A      3.765907
     150A      3.818156   151A      4.051209   152A      4.077766
     153A      4.187274

    Final Occupation by Irrep:
              A
    DOCC [    29 ]

  @RHF Final Energy:  -345.51486284045370

   => Energetics <=

    Nuclear Repulsion Energy =            294.4212906394824927
    One-Electron Energy =               -1065.6575356586029102
    Two-Electron Energy =                 425.7213821786666585
    Total Energy =                       -345.5148628404537021

Computation Completed

Properties will be evaluated at   0.000000,   0.000000,   0.000000 [a0]

Properties computed using the SCF density matrix

  Nuclear Dipole Moment: [e a0]
     X:    -7.3087      Y:    -8.7288      Z:    -7.2657

  Electronic Dipole Moment: [e a0]
     X:     5.9657      Y:     6.9211      Z:     5.4156

  Dipole Moment: [e a0]
     X:    -1.3429      Y:    -1.8077      Z:    -1.8501     Total:     2.9145

  Dipole Moment: [D]
     X:    -3.4134      Y:    -4.5947      Z:    -4.7026     Total:     7.4079

*** tstop() called on ds3 at Tue Apr 28 08:51:38 2020
Module time:
	user time   =      24.87 seconds =       0.41 minutes
	system time =      10.66 seconds =       0.18 minutes
	total time  =         35 seconds =       0.58 minutes
Total time:
	user time   =      24.87 seconds =       0.41 minutes
	system time =      10.66 seconds =       0.18 minutes
	total time  =         35 seconds =       0.58 minutes
                                     G D M A

                                 by Anthony Stone

                           version 2.2.06, 22 June 2011

               Distributed Multipoles from Gaussian wavefunctions

Starting at 8:51:39 on 28 Apr 2020

Using SCF density matrix from file ./SSI/SSI-003THR-182GLU-1-dimer.test.16095.fchk

                         Distributed Multipole Analysis

Standard DMA

Positions and radii in angstrom
Multipole moments in atomic units, ea_0^k for rank k

C          x = -2.209193  y = -1.587763  z =  0.753869 angstrom
           Maximum rank =  0   Radius =  0.650 angstrom
                   Q00  =  -0.196385

C          x = -2.787193  y = -1.770763  z = -0.677131 angstrom
           Maximum rank =  0   Radius =  0.650 angstrom
                   Q00  =  -0.247134

H          x = -3.021193  y = -1.507763  z =  1.477869 angstrom
           Maximum rank =  0   Radius =  0.325 angstrom
                   Q00  =   0.054634

H          x = -1.585193  y = -2.441763  z =  1.014869 angstrom
           Maximum rank =  0   Radius =  0.325 angstrom
                   Q00  =   0.060601

H          x = -1.607193  y = -0.679763  z =  0.797869 angstrom
           Maximum rank =  0   Radius =  0.325 angstrom
                   Q00  =   0.109003

H          x = -1.968193  y = -1.846763  z = -1.395131 angstrom
           Maximum rank =  0   Radius =  0.325 angstrom
                   Q00  =   0.084308

H          x = -3.409073  y = -0.899423  z = -0.930171 angstrom
           Maximum rank =  0   Radius =  0.325 angstrom
                   Q00  =   0.076918

H          x = -3.385073  y = -2.693233  z = -0.716941 angstrom
           Maximum rank =  0   Radius =  0.325 angstrom
                   Q00  =   0.043615

C          x =  0.672807  y =  0.171237  z = -0.907131 angstrom
           Maximum rank =  0   Radius =  0.650 angstrom
                   Q00  =  -0.135086

C          x =  1.969807  y =  0.284237  z = -1.718131 angstrom
           Maximum rank =  0   Radius =  0.650 angstrom
                   Q00  =  -0.201667

C          x =  0.791807  y =  0.826237  z =  0.474869 angstrom
           Maximum rank =  0   Radius =  0.650 angstrom
                   Q00  =   0.973258

O          x =  1.842807  y =  0.649237  z =  1.134869 angstrom
           Maximum rank =  0   Radius =  0.650 angstrom
                   Q00  =  -0.935931

O          x = -0.179193  y =  1.496237  z =  0.909869 angstrom
           Maximum rank =  0   Radius =  0.650 angstrom
                   Q00  =  -0.930334

H          x = -0.104193  y =  0.675237  z = -1.478131 angstrom
           Maximum rank =  0   Radius =  0.325 angstrom
                   Q00  =   0.021942

H          x =  0.402807  y = -0.878763  z = -0.784131 angstrom
           Maximum rank =  0   Radius =  0.325 angstrom
                   Q00  =   0.050316

H          x =  2.812807  y = -0.031763  z = -1.105131 angstrom
           Maximum rank =  0   Radius =  0.325 angstrom
                   Q00  =   0.093028

H          x =  2.115807  y =  1.323237  z = -2.019131 angstrom
           Maximum rank =  0   Radius =  0.325 angstrom
                   Q00  =   0.059389

H          x =  1.943987  y = -0.341233  z = -2.622631 angstrom
           Maximum rank =  0   Radius =  0.325 angstrom
                   Q00  =   0.019522

Total multipoles referred to origin at
           x =   0.000000,  y =    0.000000,  z =    0.000000 angstrom
                   Q00  =  -1.000000

Finished at 8:51:39 on 28 Apr 2020

  DMA results are available in the Python driver through the
	  variable('DMA DISTRIBUTED MULTIPOLES')
  and
	  variable('DMA TOTAL MULTIPOLES')
  commands.

    Psi4 stopped on: Tuesday, 28 April 2020 08:51AM
    Psi4 wall time for execution: 0:00:35.40

*** Psi4 exiting successfully. Buy a developer a beer!
