                               Psi4 1.3.2 release

  ==> Input File <==

--------------------------------------------------------------------------
import numpy as np
set {scf_type pk
basis cc-pvdz
d_convergence 10
gdma_switch   0
gdma_limit    0
gdma_origin   [ 0.0,  0.0,  0.0 ]
}
molecule test {
    units Angstrom
    0 1
    --
    0 1
    C               -2.246621283586669    -1.363889237913517     0.089100112733495
    C               -2.977621283586669    -0.935889237913517    -1.176899887266505
    O               -2.809621283586669    -0.745889237913517     1.221100112733495
    H               -2.311621283586669    -2.446889237913517     0.200100112733495
    H               -1.196621283586669    -1.089889237913517     0.001100112733495
    H               -4.034621283586669    -1.176889237913517    -1.081899887266505
    H               -3.729621283586669    -1.026889237913517     1.309100112733495
    H               -2.539073283586669    -1.502442237913517    -2.011580887266505
    H               -2.892731283586669     0.146101762086483    -1.356032887266505
    C                2.471378716413331     1.070110762086483    -2.143899887266505
    C                0.186378716413331     1.249110762086483     0.889100112733495
    C                0.816378716413331     1.577110762086483    -0.309899887266505
    C                0.518378716413331     0.088110762086483     1.561100112733495
    C                1.760378716413331     0.713110762086483    -0.866899887266505
    C                1.471378716413331    -0.767889237913517     1.036100112733495
    C                2.090378716413331    -0.457889237913517    -0.175899887266505
    H               -0.545621283586669     1.917110762086483     1.317100112733495
    H                0.564378716413331     2.502110762086483    -0.806899887266505
    H                0.032378716413331    -0.147889237913517     2.497100112733496
    H                1.740378716413331    -1.666889237913517     1.572100112733495
    H                3.384378716413331     0.490110762086483    -2.194899887266505
    H                2.667378716413331     2.139110762086483    -2.101899887266505
    H                2.833378716413331    -1.133889237913517    -0.574899887266505
    H                1.914574716413331     0.880159762086483    -3.073355887266505

}
e, wfn = energy('scf', return_wfn=True)
gdma(wfn)
dmavals = variable('DMA DISTRIBUTED MULTIPOLES')
charges = np.array(dmavals)
print(charges)
np.save('SSI-098SER-112PHE-1-dimer.npy', np.array(charges))--------------------------------------------------------------------------

*** tstart() called on ds3
*** at Mon Apr 27 04:16:08 2020

   => Loading Basis Set <=

    Name: CC-PVDZ
    Role: ORBITAL
    Keyword: BASIS
    atoms 1-2, 10-16 entry C          line   138 file /theoryfs2/ds/metcalf/miniconda2/envs/tf2gpu/share/psi4/basis/cc-pvdz.gbs
    atoms 3          entry O          line   198 file /theoryfs2/ds/metcalf/miniconda2/envs/tf2gpu/share/psi4/basis/cc-pvdz.gbs
    atoms 4-9, 17-24 entry H          line    22 file /theoryfs2/ds/metcalf/miniconda2/envs/tf2gpu/share/psi4/basis/cc-pvdz.gbs

         ---------------------------------------------------------
                                   SCF
               by Justin Turney, Rob Parrish, Andy Simmonett
                          and Daniel G. A. Smith
                              RHF Reference
                        1 Threads,    500 MiB Core
         ---------------------------------------------------------

  ==> Geometry <==

    Molecular point group: c1
    Full point group: C1

    Geometry (in Angstrom), charge = 0, multiplicity = 1:

       Center              X                  Y                   Z               Mass
    ------------   -----------------  -----------------  -----------------  -----------------
         C           -2.246621283587    -1.363889237914     0.089100112733    12.000000000000
         C           -2.977621283587    -0.935889237914    -1.176899887267    12.000000000000
         O           -2.809621283587    -0.745889237914     1.221100112733    15.994914619570
         H           -2.311621283587    -2.446889237914     0.200100112733     1.007825032230
         H           -1.196621283587    -1.089889237914     0.001100112733     1.007825032230
         H           -4.034621283587    -1.176889237914    -1.081899887267     1.007825032230
         H           -3.729621283587    -1.026889237914     1.309100112733     1.007825032230
         H           -2.539073283587    -1.502442237914    -2.011580887267     1.007825032230
         H           -2.892731283587     0.146101762086    -1.356032887267     1.007825032230
         C            2.471378716413     1.070110762086    -2.143899887267    12.000000000000
         C            0.186378716413     1.249110762086     0.889100112733    12.000000000000
         C            0.816378716413     1.577110762086    -0.309899887267    12.000000000000
         C            0.518378716413     0.088110762086     1.561100112733    12.000000000000
         C            1.760378716413     0.713110762086    -0.866899887267    12.000000000000
         C            1.471378716413    -0.767889237914     1.036100112733    12.000000000000
         C            2.090378716413    -0.457889237914    -0.175899887267    12.000000000000
         H           -0.545621283587     1.917110762086     1.317100112733     1.007825032230
         H            0.564378716413     2.502110762086    -0.806899887267     1.007825032230
         H            0.032378716413    -0.147889237914     2.497100112733     1.007825032230
         H            1.740378716413    -1.666889237914     1.572100112733     1.007825032230
         H            3.384378716413     0.490110762086    -2.194899887267     1.007825032230
         H            2.667378716413     2.139110762086    -2.101899887267     1.007825032230
         H            2.833378716413    -1.133889237914    -0.574899887267     1.007825032230
         H            1.914574716413     0.880159762086    -3.073355887267     1.007825032230

  Running in c1 symmetry.

  Rotational constants: A =      0.06206  B =      0.02251  C =      0.02014 [cm^-1]
  Rotational constants: A =   1860.56332  B =    674.70526  C =    603.84854 [MHz]
  Nuclear repulsion =  500.893123764804727

  Charge       = 0
  Multiplicity = 1
  Electrons    = 76
  Nalpha       = 38
  Nbeta        = 38

  ==> Algorithm <==

  SCF Algorithm Type is PK.
  DIIS enabled.
  MOM disabled.
  Fractional occupation disabled.
  Guess Type is SAD.
  Energy threshold   = 1.00e-06
  Density threshold  = 1.00e-10
  Integral threshold = 0.00e+00

  ==> Primary Basis <==

  Basis Set: CC-PVDZ
    Blend: CC-PVDZ
    Number of shells: 102
    Number of basis function: 210
    Number of Cartesian functions: 220
    Spherical Harmonics?: true
    Max angular momentum: 2

  ==> Pre-Iterations <==

   -------------------------------------------------------
    Irrep   Nso     Nmo     Nalpha   Nbeta   Ndocc  Nsocc
   -------------------------------------------------------
     A        210     210       0       0       0       0
   -------------------------------------------------------
    Total     210     210      38      38      38       0
   -------------------------------------------------------

  ==> Integral Setup <==

  Using integral reordering PK algorithm.
  Sizing the integral batches needed.
  Building batch lookup table.
   Calculation information:
      Number of atoms:                  24
      Number of AO shells:             102
      Number of primitives:            290
      Number of atomic orbitals:       220
      Number of basis functions:       210

      Integral cutoff                 1.00e-12
      Number of threads:                 1

	Batch   1 pq = [       0,    9405] index = [             0,44231715] size =     44231715
	Batch   2 pq = [    9405,   13301] index = [      44231715,88464951] size =     44233236
	Batch   3 pq = [   13301,   16290] index = [      88464951,132690195] size =     44225244
	Batch   4 pq = [   16290,   18810] index = [     132690195,176917455] size =     44227260
	Batch   5 pq = [   18810,   21030] index = [     176917455,221140965] size =     44223510
	Batch   6 pq = [   21030,   22155] index = [     221140965,245433090] size =     24292125
  Task number: 23
  Buffer size: 11059200
  Buffer per thread: 2
  We computed 12569041 shell quartets total.
  Whereas there are 13799631 unique shell quartets.

  ==> DiskJK: Disk-Based J/K Matrices <==

    J tasked:                  Yes
    K tasked:                  Yes
    wK tasked:                  No
    Memory [MiB]:              375
    Schwarz Cutoff:          1E-12

    OpenMP threads:              1

  Minimum eigenvalue in the overlap matrix is 3.1074068495E-04.
  Using Symmetric Orthogonalization.

  SCF Guess: Superposition of Atomic Densities via on-the-fly atomic UHF.

  ==> Iterations <==

                        Total Energy        Delta E     RMS |[F,P]|

   @RHF iter SAD:  -422.66392634904446   -4.22664e+02   0.00000e+00
   @RHF iter   1:  -423.60048230661766   -9.36556e-01   2.95148e-03 DIIS
   @RHF iter   2:  -423.81014442778792   -2.09662e-01   1.31709e-03 DIIS
   @RHF iter   3:  -423.84555415473943   -3.54097e-02   2.82211e-04 DIIS
   @RHF iter   4:  -423.84834250806080   -2.78835e-03   8.35912e-05 DIIS
   @RHF iter   5:  -423.84851422985969   -1.71722e-04   1.76116e-05 DIIS
   @RHF iter   6:  -423.84852467552628   -1.04457e-05   4.97630e-06 DIIS
   @RHF iter   7:  -423.84852554691719   -8.71391e-07   1.60245e-06 DIIS
   @RHF iter   8:  -423.84852565849860   -1.11581e-07   6.04934e-07 DIIS
   @RHF iter   9:  -423.84852568043380   -2.19352e-08   2.40694e-07 DIIS
   @RHF iter  10:  -423.84852568512031   -4.68651e-09   1.05466e-07 DIIS
   @RHF iter  11:  -423.84852568662217   -1.50186e-09   4.16338e-08 DIIS
   @RHF iter  12:  -423.84852568685073   -2.28567e-10   1.99150e-08 DIIS
   @RHF iter  13:  -423.84852568688569   -3.49587e-11   6.93254e-09 DIIS
   @RHF iter  14:  -423.84852568688950   -3.80851e-12   1.87341e-09 DIIS
   @RHF iter  15:  -423.84852568689013   -6.25278e-13   7.17645e-10 DIIS
   @RHF iter  16:  -423.84852568688694    3.18323e-12   2.76803e-10 DIIS
   @RHF iter  17:  -423.84852568688962   -2.67164e-12   1.34069e-10 DIIS
   @RHF iter  18:  -423.84852568688575    3.86535e-12   5.93825e-11 DIIS
  Energy and wave function converged.

  ==> Post-Iterations <==

    Orbital Energies [Eh]
    ---------------------

    Doubly Occupied:

       1A    -20.541804     2A    -11.262626     3A    -11.239060
       4A    -11.231001     5A    -11.229029     6A    -11.228907
       7A    -11.227656     8A    -11.227106     9A    -11.222931
      10A    -11.215913    11A     -1.348786    12A     -1.150105
      13A     -1.043063    14A     -1.007690    15A     -1.000917
      16A     -0.929680    17A     -0.835093    18A     -0.822219
      19A     -0.791086    20A     -0.687578    21A     -0.675593
      22A     -0.630591    23A     -0.626362    24A     -0.618418
      25A     -0.591511    26A     -0.578656    27A     -0.571671
      28A     -0.555794    29A     -0.540232    30A     -0.535667
      31A     -0.519214    32A     -0.485238    33A     -0.481652
      34A     -0.477677    35A     -0.459734    36A     -0.425370
      37A     -0.329069    38A     -0.318172

    Virtual:

      39A      0.137953    40A      0.144751    41A      0.178492
      42A      0.191501    43A      0.208032    44A      0.218291
      45A      0.227188    46A      0.241951    47A      0.253142
      48A      0.259882    49A      0.269031    50A      0.277501
      51A      0.280186    52A      0.288572    53A      0.296150
      54A      0.312943    55A      0.369927    56A      0.375958
      57A      0.398814    58A      0.404190    59A      0.459895
      60A      0.469424    61A      0.482574    62A      0.499034
      63A      0.572134    64A      0.592518    65A      0.596481
      66A      0.620099    67A      0.629319    68A      0.671683
      69A      0.680040    70A      0.690137    71A      0.690685
      72A      0.705323    73A      0.730042    74A      0.744633
      75A      0.747478    76A      0.760832    77A      0.765406
      78A      0.774685    79A      0.778803    80A      0.787560
      81A      0.820407    82A      0.832146    83A      0.851737
      84A      0.863085    85A      0.868112    86A      0.874392
      87A      0.880157    88A      0.894667    89A      0.899565
      90A      0.902270    91A      0.904723    92A      0.920966
      93A      0.926674    94A      0.930990    95A      0.936704
      96A      0.943283    97A      0.947567    98A      0.987173
      99A      1.004399   100A      1.027903   101A      1.087107
     102A      1.124990   103A      1.131454   104A      1.144829
     105A      1.146854   106A      1.156401   107A      1.170536
     108A      1.212631   109A      1.239233   110A      1.244728
     111A      1.257069   112A      1.260900   113A      1.270913
     114A      1.293594   115A      1.304457   116A      1.320289
     117A      1.323187   118A      1.331570   119A      1.349787
     120A      1.390655   121A      1.426206   122A      1.478097
     123A      1.504181   124A      1.518688   125A      1.542224
     126A      1.560284   127A      1.601826   128A      1.617511
     129A      1.668595   130A      1.685518   131A      1.688632
     132A      1.693144   133A      1.737197   134A      1.750103
     135A      1.760679   136A      1.777566   137A      1.794807
     138A      1.830233   139A      1.858262   140A      1.875378
     141A      1.885459   142A      1.887839   143A      1.899057
     144A      1.906880   145A      1.914754   146A      1.922178
     147A      1.942764   148A      1.945742   149A      1.951635
     150A      1.957907   151A      1.963064   152A      1.972443
     153A      1.980871   154A      1.996940   155A      2.009028
     156A      2.018281   157A      2.042180   158A      2.058592
     159A      2.074133   160A      2.078230   161A      2.101592
     162A      2.118202   163A      2.151193   164A      2.163360
     165A      2.175842   166A      2.184428   167A      2.191096
     168A      2.203098   169A      2.247730   170A      2.275503
     171A      2.283384   172A      2.286415   173A      2.300410
     174A      2.309748   175A      2.330379   176A      2.347603
     177A      2.375351   178A      2.430826   179A      2.459614
     180A      2.477868   181A      2.514740   182A      2.538571
     183A      2.550723   184A      2.556015   185A      2.566385
     186A      2.618950   187A      2.744457   188A      2.763309
     189A      2.766086   190A      2.780649   191A      2.783015
     192A      2.805869   193A      2.814295   194A      2.824441
     195A      2.860887   196A      2.874826   197A      2.904845
     198A      2.956535   199A      2.995084   200A      3.027608
     201A      3.040499   202A      3.165879   203A      3.205518
     204A      3.304538   205A      3.326787   206A      3.417836
     207A      3.486822   208A      3.664079   209A      3.978577
     210A      4.118151

    Final Occupation by Irrep:
              A
    DOCC [    38 ]

  @RHF Final Energy:  -423.84852568688575

   => Energetics <=

    Nuclear Repulsion Energy =            500.8931237648047272
    One-Electron Energy =               -1568.1575560533765383
    Two-Electron Energy =                 643.4159066016859470
    Total Energy =                       -423.8485256868857505

Computation Completed

Properties will be evaluated at   0.000000,   0.000000,   0.000000 [a0]

Properties computed using the SCF density matrix

  Nuclear Dipole Moment: [e a0]
     X:    -3.8694      Y:    -1.9882      Z:    -5.9048

  Electronic Dipole Moment: [e a0]
     X:     3.6216      Y:     1.6645      Z:     5.4808

  Dipole Moment: [e a0]
     X:    -0.2477      Y:    -0.3237      Z:    -0.4239     Total:     0.5881

  Dipole Moment: [D]
     X:    -0.6297      Y:    -0.8228      Z:    -1.0775     Total:     1.4948

*** tstop() called on ds3 at Mon Apr 27 04:21:46 2020
Module time:
	user time   =      91.15 seconds =       1.52 minutes
	system time =      34.49 seconds =       0.57 minutes
	total time  =        338 seconds =       5.63 minutes
Total time:
	user time   =      91.15 seconds =       1.52 minutes
	system time =      34.49 seconds =       0.57 minutes
	total time  =        338 seconds =       5.63 minutes
                                     G D M A

                                 by Anthony Stone

                           version 2.2.06, 22 June 2011

               Distributed Multipoles from Gaussian wavefunctions

Starting at 4:21:46 on 27 Apr 2020

Using SCF density matrix from file ./SSI/SSI-098SER-112PHE-1-dimer.test.23076.fchk

                         Distributed Multipole Analysis

Standard DMA

Positions and radii in angstrom
Multipole moments in atomic units, ea_0^k for rank k

C          x = -2.246621  y = -1.363889  z =  0.089100 angstrom
           Maximum rank =  0   Radius =  0.650 angstrom
                   Q00  =   0.115783

C          x = -2.977621  y = -0.935889  z = -1.176900 angstrom
           Maximum rank =  0   Radius =  0.650 angstrom
                   Q00  =  -0.263369

O          x = -2.809621  y = -0.745889  z =  1.221100 angstrom
           Maximum rank =  0   Radius =  0.650 angstrom
                   Q00  =  -0.599593

H          x = -2.311621  y = -2.446889  z =  0.200100 angstrom
           Maximum rank =  0   Radius =  0.325 angstrom
                   Q00  =   0.025469

H          x = -1.196621  y = -1.089889  z =  0.001100 angstrom
           Maximum rank =  0   Radius =  0.325 angstrom
                   Q00  =   0.097970

H          x = -4.034621  y = -1.176889  z = -1.081900 angstrom
           Maximum rank =  0   Radius =  0.325 angstrom
                   Q00  =   0.067136

H          x = -3.729621  y = -1.026889  z =  1.309100 angstrom
           Maximum rank =  0   Radius =  0.325 angstrom
                   Q00  =   0.378373

H          x = -2.539073  y = -1.502442  z = -2.011581 angstrom
           Maximum rank =  0   Radius =  0.325 angstrom
                   Q00  =   0.079285

H          x = -2.892731  y =  0.146102  z = -1.356033 angstrom
           Maximum rank =  0   Radius =  0.325 angstrom
                   Q00  =   0.090349

C          x =  2.471379  y =  1.070111  z = -2.143900 angstrom
           Maximum rank =  0   Radius =  0.650 angstrom
                   Q00  =  -0.197200

C          x =  0.186379  y =  1.249111  z =  0.889100 angstrom
           Maximum rank =  0   Radius =  0.650 angstrom
                   Q00  =  -0.014050

C          x =  0.816379  y =  1.577111  z = -0.309900 angstrom
           Maximum rank =  0   Radius =  0.650 angstrom
                   Q00  =  -0.100095

C          x =  0.518379  y =  0.088111  z =  1.561100 angstrom
           Maximum rank =  0   Radius =  0.650 angstrom
                   Q00  =  -0.065225

C          x =  1.760379  y =  0.713111  z = -0.866900 angstrom
           Maximum rank =  0   Radius =  0.650 angstrom
                   Q00  =  -0.101848

C          x =  1.471379  y = -0.767889  z =  1.036100 angstrom
           Maximum rank =  0   Radius =  0.650 angstrom
                   Q00  =  -0.083533

C          x =  2.090379  y = -0.457889  z = -0.175900 angstrom
           Maximum rank =  0   Radius =  0.650 angstrom
                   Q00  =  -0.036226

H          x = -0.545621  y =  1.917111  z =  1.317100 angstrom
           Maximum rank =  0   Radius =  0.325 angstrom
                   Q00  =   0.067849

H          x =  0.564379  y =  2.502111  z = -0.806900 angstrom
           Maximum rank =  0   Radius =  0.325 angstrom
                   Q00  =   0.055216

H          x =  0.032379  y = -0.147889  z =  2.497100 angstrom
           Maximum rank =  0   Radius =  0.325 angstrom
                   Q00  =   0.067029

H          x =  1.740379  y = -1.666889  z =  1.572100 angstrom
           Maximum rank =  0   Radius =  0.325 angstrom
                   Q00  =   0.063044

H          x =  3.384379  y =  0.490111  z = -2.194900 angstrom
           Maximum rank =  0   Radius =  0.325 angstrom
                   Q00  =   0.098249

H          x =  2.667379  y =  2.139111  z = -2.101900 angstrom
           Maximum rank =  0   Radius =  0.325 angstrom
                   Q00  =   0.097719

H          x =  2.833379  y = -1.133889  z = -0.574900 angstrom
           Maximum rank =  0   Radius =  0.325 angstrom
                   Q00  =   0.056345

H          x =  1.914575  y =  0.880160  z = -3.073356 angstrom
           Maximum rank =  0   Radius =  0.325 angstrom
                   Q00  =   0.101323

Total multipoles referred to origin at
           x =   0.000000,  y =    0.000000,  z =    0.000000 angstrom
                   Q00  =  -0.000000

Finished at 4:21:47 on 27 Apr 2020

  DMA results are available in the Python driver through the
	  variable('DMA DISTRIBUTED MULTIPOLES')
  and
	  variable('DMA TOTAL MULTIPOLES')
  commands.

    Psi4 stopped on: Monday, 27 April 2020 04:21AM
    Psi4 wall time for execution: 0:05:38.27

*** Psi4 exiting successfully. Buy a developer a beer!
