                               Psi4 1.3.2 release

  ==> Input File <==

--------------------------------------------------------------------------
import numpy as np
set {scf_type pk
basis cc-pvdz
d_convergence 10
gdma_switch   0
gdma_limit    0
gdma_origin   [ 0.0,  0.0,  0.0 ]
}
molecule test {
    units Angstrom
    0 1
    --
    0 1
    C               -3.209162059302305     0.101085394925047     1.102092766591523
    C                0.327837940697695    -0.063914605074953    -1.349907233408477
    C                0.103837940697695    -1.038914605074953    -0.387907233408477
    C               -0.570162059302305     0.967085394925047    -1.489907233408476
    C               -1.052162059302306    -1.000914605074953     0.383092766591523
    C               -1.725162059302306     1.008085394925047    -0.729907233408477
    C               -1.993162059302305     0.020085394925047     0.210092766591523
    H                1.223837940697695    -0.088914605074953    -1.955907233408477
    H                0.835837940697695    -1.801914605074953    -0.230907233408477
    H               -0.376162059302305     1.732085394925047    -2.223907233408477
    H               -1.214162059302305    -1.764914605074953     1.132092766591523
    H               -2.404162059302305     1.840085394925047    -0.845907233408477
    H               -3.563162059302305    -0.910914605074953     1.297092766591524
    H               -4.008162059302305     0.642085394925047     0.591092766591523
    H               -2.989792059302305     0.581995394925047     2.066772766591523
    C                3.372837940697695     0.694085394925047     0.822092766591523
    C                3.953837940697695    -0.705914605074953     0.990092766591523
    H                2.875837940697695     0.792085394925047    -0.140907233408477
    H                2.634837940697695     0.875085394925047     1.602092766591523
    H                4.163837940697695     1.441085394925047     0.902092766591523
    H                3.143837940697695    -1.427914605074953     0.920092766591523
    H                4.364837940697694    -0.754914605074953     1.997092766591523
    H                4.736497940697694    -0.926034605074953     0.249152766591523

}
e, wfn = energy('scf', return_wfn=True)
gdma(wfn)
dmavals = variable('DMA DISTRIBUTED MULTIPOLES')
charges = np.array(dmavals)
print(charges)
np.save('SSI-021PHE-260ILE-1-dimer.npy', np.array(charges))--------------------------------------------------------------------------

*** tstart() called on ds3
*** at Tue Apr 28 03:21:31 2020

   => Loading Basis Set <=

    Name: CC-PVDZ
    Role: ORBITAL
    Keyword: BASIS
    atoms 1-7, 16-17  entry C          line   138 file /theoryfs2/ds/metcalf/miniconda2/envs/tf2gpu/share/psi4/basis/cc-pvdz.gbs
    atoms 8-15, 18-23 entry H          line    22 file /theoryfs2/ds/metcalf/miniconda2/envs/tf2gpu/share/psi4/basis/cc-pvdz.gbs

         ---------------------------------------------------------
                                   SCF
               by Justin Turney, Rob Parrish, Andy Simmonett
                          and Daniel G. A. Smith
                              RHF Reference
                        1 Threads,    500 MiB Core
         ---------------------------------------------------------

  ==> Geometry <==

    Molecular point group: c1
    Full point group: C1

    Geometry (in Angstrom), charge = 0, multiplicity = 1:

       Center              X                  Y                   Z               Mass
    ------------   -----------------  -----------------  -----------------  -----------------
         C           -3.209162059302     0.101085394925     1.102092766592    12.000000000000
         C            0.327837940698    -0.063914605075    -1.349907233408    12.000000000000
         C            0.103837940698    -1.038914605075    -0.387907233408    12.000000000000
         C           -0.570162059302     0.967085394925    -1.489907233408    12.000000000000
         C           -1.052162059302    -1.000914605075     0.383092766592    12.000000000000
         C           -1.725162059302     1.008085394925    -0.729907233408    12.000000000000
         C           -1.993162059302     0.020085394925     0.210092766592    12.000000000000
         H            1.223837940698    -0.088914605075    -1.955907233408     1.007825032230
         H            0.835837940698    -1.801914605075    -0.230907233408     1.007825032230
         H           -0.376162059302     1.732085394925    -2.223907233408     1.007825032230
         H           -1.214162059302    -1.764914605075     1.132092766592     1.007825032230
         H           -2.404162059302     1.840085394925    -0.845907233408     1.007825032230
         H           -3.563162059302    -0.910914605075     1.297092766592     1.007825032230
         H           -4.008162059302     0.642085394925     0.591092766592     1.007825032230
         H           -2.989792059302     0.581995394925     2.066772766592     1.007825032230
         C            3.372837940698     0.694085394925     0.822092766592    12.000000000000
         C            3.953837940698    -0.705914605075     0.990092766592    12.000000000000
         H            2.875837940698     0.792085394925    -0.140907233408     1.007825032230
         H            2.634837940698     0.875085394925     1.602092766592     1.007825032230
         H            4.163837940698     1.441085394925     0.902092766592     1.007825032230
         H            3.143837940698    -1.427914605075     0.920092766592     1.007825032230
         H            4.364837940698    -0.754914605075     1.997092766592     1.007825032230
         H            4.736497940698    -0.926034605075     0.249152766592     1.007825032230

  Running in c1 symmetry.

  Rotational constants: A =      0.08707  B =      0.02240  C =      0.02057 [cm^-1]
  Rotational constants: A =   2610.40757  B =    671.52786  C =    616.82150 [MHz]
  Nuclear repulsion =  406.587514375271496

  Charge       = 0
  Multiplicity = 1
  Electrons    = 68
  Nalpha       = 34
  Nbeta        = 34

  ==> Algorithm <==

  SCF Algorithm Type is PK.
  DIIS enabled.
  MOM disabled.
  Fractional occupation disabled.
  Guess Type is SAD.
  Energy threshold   = 1.00e-06
  Density threshold  = 1.00e-10
  Integral threshold = 0.00e+00

  ==> Primary Basis <==

  Basis Set: CC-PVDZ
    Blend: CC-PVDZ
    Number of shells: 96
    Number of basis function: 196
    Number of Cartesian functions: 205
    Spherical Harmonics?: true
    Max angular momentum: 2

  ==> Pre-Iterations <==

   -------------------------------------------------------
    Irrep   Nso     Nmo     Nalpha   Nbeta   Ndocc  Nsocc
   -------------------------------------------------------
     A        196     196       0       0       0       0
   -------------------------------------------------------
    Total     196     196      34      34      34       0
   -------------------------------------------------------

  ==> Integral Setup <==

  Using integral reordering PK algorithm.
  Sizing the integral batches needed.
  Building batch lookup table.
   Calculation information:
      Number of atoms:                  23
      Number of AO shells:              96
      Number of primitives:            268
      Number of atomic orbitals:       205
      Number of basis functions:       196

      Integral cutoff                 1.00e-12
      Number of threads:                 1

	Batch   1 pq = [       0,    9405] index = [             0,44231715] size =     44231715
	Batch   2 pq = [    9405,   13301] index = [      44231715,88464951] size =     44233236
	Batch   3 pq = [   13301,   16290] index = [      88464951,132690195] size =     44225244
	Batch   4 pq = [   16290,   18810] index = [     132690195,176917455] size =     44227260
	Batch   5 pq = [   18810,   19306] index = [     176917455,186370471] size =      9453016
  Task number: 17
  Buffer size: 11059200
  Buffer per thread: 2
  We computed 9302852 shell quartets total.
  Whereas there are 10841496 unique shell quartets.

  ==> DiskJK: Disk-Based J/K Matrices <==

    J tasked:                  Yes
    K tasked:                  Yes
    wK tasked:                  No
    Memory [MiB]:              375
    Schwarz Cutoff:          1E-12

    OpenMP threads:              1

  Minimum eigenvalue in the overlap matrix is 3.0092019322E-04.
  Using Symmetric Orthogonalization.

  SCF Guess: Superposition of Atomic Densities via on-the-fly atomic UHF.

  ==> Iterations <==

                        Total Energy        Delta E     RMS |[F,P]|

   @RHF iter SAD:  -347.93279224160642   -3.47933e+02   0.00000e+00
   @RHF iter   1:  -348.76454662578556   -8.31754e-01   2.91802e-03 DIIS
   @RHF iter   2:  -348.95908048532772   -1.94534e-01   1.21488e-03 DIIS
   @RHF iter   3:  -348.98985052696071   -3.07700e-02   2.57676e-04 DIIS
   @RHF iter   4:  -348.99232725765842   -2.47673e-03   4.73269e-05 DIIS
   @RHF iter   5:  -348.99239079211770   -6.35345e-05   1.46797e-05 DIIS
   @RHF iter   6:  -348.99239649568756   -5.70357e-06   3.68731e-06 DIIS
   @RHF iter   7:  -348.99239690519903   -4.09511e-07   1.38484e-06 DIIS
   @RHF iter   8:  -348.99239696509915   -5.99001e-08   3.41107e-07 DIIS
   @RHF iter   9:  -348.99239697491458   -9.81544e-09   1.59010e-07 DIIS
   @RHF iter  10:  -348.99239697738727   -2.47269e-09   7.18242e-08 DIIS
   @RHF iter  11:  -348.99239697811942   -7.32143e-10   2.50461e-08 DIIS
   @RHF iter  12:  -348.99239697819598   -7.65681e-11   1.09390e-08 DIIS
   @RHF iter  13:  -348.99239697820104   -5.05906e-12   3.93146e-09 DIIS
   @RHF iter  14:  -348.99239697820428   -3.24007e-12   1.00461e-09 DIIS
   @RHF iter  15:  -348.99239697820406    2.27374e-13   4.27493e-10 DIIS
   @RHF iter  16:  -348.99239697820354    5.11591e-13   1.78438e-10 DIIS
   @RHF iter  17:  -348.99239697820474   -1.19371e-12   7.58275e-11 DIIS
  Energy and wave function converged.

  ==> Post-Iterations <==

    Orbital Energies [Eh]
    ---------------------

    Doubly Occupied:

       1A    -11.241211     2A    -11.233470     3A    -11.231427
       4A    -11.230911     5A    -11.230629     6A    -11.228690
       7A    -11.228354     8A    -11.215195     9A    -11.210463
      10A     -1.155611    11A     -1.045828    12A     -1.016573
      13A     -1.013125    14A     -0.932706    15A     -0.832786
      16A     -0.826057    17A     -0.796556    18A     -0.693323
      19A     -0.633296    20A     -0.630015    21A     -0.597274
      22A     -0.595664    23A     -0.582255    24A     -0.576645
      25A     -0.563330    26A     -0.537155    27A     -0.496683
      28A     -0.490342    29A     -0.486420    30A     -0.483156
      31A     -0.481661    32A     -0.478027    33A     -0.333147
      34A     -0.322975

    Virtual:

      35A      0.136529    36A      0.139729    37A      0.171979
      38A      0.192951    39A      0.209112    40A      0.217978
      41A      0.235704    42A      0.243917    43A      0.253781
      44A      0.260241    45A      0.266393    46A      0.278022
      47A      0.280814    48A      0.288564    49A      0.327356
      50A      0.345699    51A      0.372940    52A      0.375614
      53A      0.409230    54A      0.455981    55A      0.466359
      56A      0.481883    57A      0.489646    58A      0.556496
      59A      0.584859    60A      0.597565    61A      0.606376
      62A      0.616988    63A      0.636164    64A      0.656036
      65A      0.677249    66A      0.685310    67A      0.692515
      68A      0.707869    69A      0.725967    70A      0.739071
      71A      0.744885    72A      0.750851    73A      0.762679
      74A      0.769549    75A      0.782535    76A      0.823333
      77A      0.843411    78A      0.849360    79A      0.857245
      80A      0.871349    81A      0.877507    82A      0.879945
      83A      0.893709    84A      0.896229    85A      0.899600
      86A      0.912386    87A      0.917225    88A      0.926060
      89A      0.930377    90A      0.938713    91A      0.951411
      92A      0.978779    93A      0.990222    94A      1.003514
      95A      1.024581    96A      1.058680    97A      1.118657
      98A      1.124676    99A      1.135813   100A      1.150153
     101A      1.154558   102A      1.161631   103A      1.199171
     104A      1.229192   105A      1.238960   106A      1.249834
     107A      1.254862   108A      1.276236   109A      1.300163
     110A      1.312787   111A      1.329898   112A      1.333095
     113A      1.413484   114A      1.473870   115A      1.489301
     116A      1.514505   117A      1.518768   118A      1.560847
     119A      1.574910   120A      1.607304   121A      1.661739
     122A      1.682921   123A      1.697091   124A      1.703036
     125A      1.739814   126A      1.746502   127A      1.776159
     128A      1.793079   129A      1.811787   130A      1.853783
     131A      1.870120   132A      1.872161   133A      1.891398
     134A      1.892135   135A      1.897821   136A      1.915450
     137A      1.920258   138A      1.928112   139A      1.942199
     140A      1.945969   141A      1.947153   142A      1.958573
     143A      1.961514   144A      1.973595   145A      1.976901
     146A      1.986891   147A      1.993429   148A      2.007628
     149A      2.050827   150A      2.070206   151A      2.080473
     152A      2.101263   153A      2.109768   154A      2.135791
     155A      2.146951   156A      2.158393   157A      2.173960
     158A      2.181650   159A      2.188978   160A      2.261034
     161A      2.282922   162A      2.294065   163A      2.295465
     164A      2.301044   165A      2.315451   166A      2.326036
     167A      2.349983   168A      2.458905   169A      2.464527
     170A      2.481834   171A      2.484623   172A      2.495883
     173A      2.544472   174A      2.571675   175A      2.587088
     176A      2.626861   177A      2.745362   178A      2.764811
     179A      2.767803   180A      2.780043   181A      2.791611
     182A      2.806147   183A      2.824790   184A      2.842959
     185A      2.853062   186A      2.865735   187A      2.879838
     188A      2.962466   189A      2.972844   190A      2.998392
     191A      3.017710   192A      3.034722   193A      3.162402
     194A      3.208159   195A      3.317778   196A      3.987160

    Final Occupation by Irrep:
              A
    DOCC [    34 ]

  @RHF Final Energy:  -348.99239697820474

   => Energetics <=

    Nuclear Repulsion Energy =            406.5875143752714962
    One-Electron Energy =               -1275.8578994249730840
    Two-Electron Energy =                 520.2779880714969067
    Total Energy =                       -348.9923969782047379

Computation Completed

Properties will be evaluated at   0.000000,   0.000000,   0.000000 [a0]

Properties computed using the SCF density matrix

  Nuclear Dipole Moment: [e a0]
     X:     8.8345      Y:     0.2147      Z:     5.0249

  Electronic Dipole Moment: [e a0]
     X:    -8.9727      Y:    -0.1717      Z:    -4.9209

  Dipole Moment: [e a0]
     X:    -0.1382      Y:     0.0429      Z:     0.1040     Total:     0.1782

  Dipole Moment: [D]
     X:    -0.3513      Y:     0.1091      Z:     0.2643     Total:     0.4529

*** tstop() called on ds3 at Tue Apr 28 03:23:03 2020
Module time:
	user time   =      67.50 seconds =       1.12 minutes
	system time =      28.24 seconds =       0.47 minutes
	total time  =         92 seconds =       1.53 minutes
Total time:
	user time   =      67.50 seconds =       1.12 minutes
	system time =      28.24 seconds =       0.47 minutes
	total time  =         92 seconds =       1.53 minutes
                                     G D M A

                                 by Anthony Stone

                           version 2.2.06, 22 June 2011

               Distributed Multipoles from Gaussian wavefunctions

Starting at 3:23:3 on 28 Apr 2020

Using SCF density matrix from file ./SSI/SSI-021PHE-260ILE-1-dimer.test.10941.fchk

                         Distributed Multipole Analysis

Standard DMA

Positions and radii in angstrom
Multipole moments in atomic units, ea_0^k for rank k

C          x = -3.209162  y =  0.101085  z =  1.102093 angstrom
           Maximum rank =  0   Radius =  0.650 angstrom
                   Q00  =  -0.205475

C          x =  0.327838  y = -0.063915  z = -1.349907 angstrom
           Maximum rank =  0   Radius =  0.650 angstrom
                   Q00  =  -0.096296

C          x =  0.103838  y = -1.038915  z = -0.387907 angstrom
           Maximum rank =  0   Radius =  0.650 angstrom
                   Q00  =  -0.076772

C          x = -0.570162  y =  0.967085  z = -1.489907 angstrom
           Maximum rank =  0   Radius =  0.650 angstrom
                   Q00  =  -0.006797

C          x = -1.052162  y = -1.000915  z =  0.383093 angstrom
           Maximum rank =  0   Radius =  0.650 angstrom
                   Q00  =  -0.078494

C          x = -1.725162  y =  1.008085  z = -0.729907 angstrom
           Maximum rank =  0   Radius =  0.650 angstrom
                   Q00  =  -0.037308

C          x = -1.993162  y =  0.020085  z =  0.210093 angstrom
           Maximum rank =  0   Radius =  0.650 angstrom
                   Q00  =  -0.101007

H          x =  1.223838  y = -0.088915  z = -1.955907 angstrom
           Maximum rank =  0   Radius =  0.325 angstrom
                   Q00  =   0.061388

H          x =  0.835838  y = -1.801915  z = -0.230907 angstrom
           Maximum rank =  0   Radius =  0.325 angstrom
                   Q00  =   0.064425

H          x = -0.376162  y =  1.732085  z = -2.223907 angstrom
           Maximum rank =  0   Radius =  0.325 angstrom
                   Q00  =   0.060943

H          x = -1.214162  y = -1.764915  z =  1.132093 angstrom
           Maximum rank =  0   Radius =  0.325 angstrom
                   Q00  =   0.054954

H          x = -2.404162  y =  1.840085  z = -0.845907 angstrom
           Maximum rank =  0   Radius =  0.325 angstrom
                   Q00  =   0.054694

H          x = -3.563162  y = -0.910915  z =  1.297093 angstrom
           Maximum rank =  0   Radius =  0.325 angstrom
                   Q00  =   0.098765

H          x = -4.008162  y =  0.642085  z =  0.591093 angstrom
           Maximum rank =  0   Radius =  0.325 angstrom
                   Q00  =   0.099854

H          x = -2.989792  y =  0.581995  z =  2.066773 angstrom
           Maximum rank =  0   Radius =  0.325 angstrom
                   Q00  =   0.105692

C          x =  3.372838  y =  0.694085  z =  0.822093 angstrom
           Maximum rank =  0   Radius =  0.650 angstrom
                   Q00  =  -0.231899

C          x =  3.953838  y = -0.705915  z =  0.990093 angstrom
           Maximum rank =  0   Radius =  0.650 angstrom
                   Q00  =  -0.233682

H          x =  2.875838  y =  0.792085  z = -0.140907 angstrom
           Maximum rank =  0   Radius =  0.325 angstrom
                   Q00  =   0.081123

H          x =  2.634838  y =  0.875085  z =  1.602093 angstrom
           Maximum rank =  0   Radius =  0.325 angstrom
                   Q00  =   0.081981

H          x =  4.163838  y =  1.441085  z =  0.902093 angstrom
           Maximum rank =  0   Radius =  0.325 angstrom
                   Q00  =   0.074237

H          x =  3.143838  y = -1.427915  z =  0.920093 angstrom
           Maximum rank =  0   Radius =  0.325 angstrom
                   Q00  =   0.074793

H          x =  4.364838  y = -0.754915  z =  1.997093 angstrom
           Maximum rank =  0   Radius =  0.325 angstrom
                   Q00  =   0.076293

H          x =  4.736498  y = -0.926035  z =  0.249153 angstrom
           Maximum rank =  0   Radius =  0.325 angstrom
                   Q00  =   0.078586

Total multipoles referred to origin at
           x =   0.000000,  y =    0.000000,  z =    0.000000 angstrom
                   Q00  =  -0.000000

Finished at 3:23:3 on 28 Apr 2020

  DMA results are available in the Python driver through the
	  variable('DMA DISTRIBUTED MULTIPOLES')
  and
	  variable('DMA TOTAL MULTIPOLES')
  commands.

    Psi4 stopped on: Tuesday, 28 April 2020 03:23AM
    Psi4 wall time for execution: 0:01:32.79

*** Psi4 exiting successfully. Buy a developer a beer!
