                               Psi4 1.3.2 release

  ==> Input File <==

--------------------------------------------------------------------------
import numpy as np
set {scf_type pk
basis cc-pvdz
d_convergence 10
gdma_switch   0
gdma_limit    0
gdma_origin   [ 0.0,  0.0,  0.0 ]
}
molecule test {
    units Angstrom
    0 1
    --
    0 1
    C                2.400033744104209    -1.325196722347884     0.156070731108970
    C               -0.025966255895792    -0.550196722347884    -0.485929268891030
    C                1.039033744104208    -1.514196722347884    -0.444929268891030
    C               -1.105966255895792    -1.144196722347884    -1.192929268891030
    C                0.582033744104208    -2.607196722347884    -1.121929268891030
    C               -0.182966255895792     0.750803277652116     0.011070731108970
    C               -1.391966255895792     1.413803277652116    -0.203929268891030
    C               -2.438966255895791     0.798803277652116    -0.908929268891030
    C               -2.307966255895792    -0.486196722347884    -1.406929268891030
    N               -0.699966255895792    -2.396196722347884    -1.563929268891030
    H                0.628033744104208     1.228803277652116     0.532070731108970
    H               -1.528966255895792     2.415803277652116     0.179070731108970
    H               -3.365966255895791     1.336803277652116    -1.057929268891030
    H                2.651033744104208    -2.178196722347884     0.788070731108970
    H                2.387033744104209    -0.430196722347884     0.780070731108970
    H                1.156033744104208    -3.503196722347884    -1.313929268891030
    H               -1.279966255895792    -3.088196722347885    -2.051929268891030
    H               -3.106966255895792    -0.963196722347884    -1.949929268891030
    H                3.154553744104208    -1.203756722347884    -0.635098868891030
    C                1.449033744104208     2.911803277652115     2.449070731108970
    C                1.905033744104208     3.476803277652116     3.794070731108969
    H                2.300033744104208     2.510803277652116     1.898070731108970
    H                0.733033744104208     2.111803277652116     2.630070731108970
    H                0.947033744104208     3.673803277652116     1.852070731108970
    H                1.049033744104209     3.931803277652116     4.285070731108969
    H                2.679293744104208     4.248213277652116     3.669788731108970
    H                2.258543744104208     2.665173277652116     4.446980731108970

}
e, wfn = energy('scf', return_wfn=True)
gdma(wfn)
dmavals = variable('DMA DISTRIBUTED MULTIPOLES')
charges = np.array(dmavals)
print(charges)
np.save('SSI-101TRP-132VAL-1-dimer.npy', np.array(charges))--------------------------------------------------------------------------

*** tstart() called on ds3
*** at Tue Apr 28 09:18:28 2020

   => Loading Basis Set <=

    Name: CC-PVDZ
    Role: ORBITAL
    Keyword: BASIS
    atoms 1-9, 20-21   entry C          line   138 file /theoryfs2/ds/metcalf/miniconda2/envs/tf2gpu/share/psi4/basis/cc-pvdz.gbs
    atoms 10           entry N          line   168 file /theoryfs2/ds/metcalf/miniconda2/envs/tf2gpu/share/psi4/basis/cc-pvdz.gbs
    atoms 11-19, 22-27 entry H          line    22 file /theoryfs2/ds/metcalf/miniconda2/envs/tf2gpu/share/psi4/basis/cc-pvdz.gbs

         ---------------------------------------------------------
                                   SCF
               by Justin Turney, Rob Parrish, Andy Simmonett
                          and Daniel G. A. Smith
                              RHF Reference
                        1 Threads,    500 MiB Core
         ---------------------------------------------------------

  ==> Geometry <==

    Molecular point group: c1
    Full point group: C1

    Geometry (in Angstrom), charge = 0, multiplicity = 1:

       Center              X                  Y                   Z               Mass
    ------------   -----------------  -----------------  -----------------  -----------------
         C            2.400033744104    -1.325196722348     0.156070731109    12.000000000000
         C           -0.025966255896    -0.550196722348    -0.485929268891    12.000000000000
         C            1.039033744104    -1.514196722348    -0.444929268891    12.000000000000
         C           -1.105966255896    -1.144196722348    -1.192929268891    12.000000000000
         C            0.582033744104    -2.607196722348    -1.121929268891    12.000000000000
         C           -0.182966255896     0.750803277652     0.011070731109    12.000000000000
         C           -1.391966255896     1.413803277652    -0.203929268891    12.000000000000
         C           -2.438966255896     0.798803277652    -0.908929268891    12.000000000000
         C           -2.307966255896    -0.486196722348    -1.406929268891    12.000000000000
         N           -0.699966255896    -2.396196722348    -1.563929268891    14.003074004430
         H            0.628033744104     1.228803277652     0.532070731109     1.007825032230
         H           -1.528966255896     2.415803277652     0.179070731109     1.007825032230
         H           -3.365966255896     1.336803277652    -1.057929268891     1.007825032230
         H            2.651033744104    -2.178196722348     0.788070731109     1.007825032230
         H            2.387033744104    -0.430196722348     0.780070731109     1.007825032230
         H            1.156033744104    -3.503196722348    -1.313929268891     1.007825032230
         H           -1.279966255896    -3.088196722348    -2.051929268891     1.007825032230
         H           -3.106966255896    -0.963196722348    -1.949929268891     1.007825032230
         H            3.154553744104    -1.203756722348    -0.635098868891     1.007825032230
         C            1.449033744104     2.911803277652     2.449070731109    12.000000000000
         C            1.905033744104     3.476803277652     3.794070731109    12.000000000000
         H            2.300033744104     2.510803277652     1.898070731109     1.007825032230
         H            0.733033744104     2.111803277652     2.630070731109     1.007825032230
         H            0.947033744104     3.673803277652     1.852070731109     1.007825032230
         H            1.049033744104     3.931803277652     4.285070731109     1.007825032230
         H            2.679293744104     4.248213277652     3.669788731109     1.007825032230
         H            2.258543744104     2.665173277652     4.446980731109     1.007825032230

  Running in c1 symmetry.

  Rotational constants: A =      0.04095  B =      0.01593  C =      0.01167 [cm^-1]
  Rotational constants: A =   1227.70196  B =    477.43468  C =    349.99455 [MHz]
  Nuclear repulsion =  641.645256570780248

  Charge       = 0
  Multiplicity = 1
  Electrons    = 88
  Nalpha       = 44
  Nbeta        = 44

  ==> Algorithm <==

  SCF Algorithm Type is PK.
  DIIS enabled.
  MOM disabled.
  Fractional occupation disabled.
  Guess Type is SAD.
  Energy threshold   = 1.00e-06
  Density threshold  = 1.00e-10
  Integral threshold = 0.00e+00

  ==> Primary Basis <==

  Basis Set: CC-PVDZ
    Blend: CC-PVDZ
    Number of shells: 117
    Number of basis function: 243
    Number of Cartesian functions: 255
    Spherical Harmonics?: true
    Max angular momentum: 2

  ==> Pre-Iterations <==

   -------------------------------------------------------
    Irrep   Nso     Nmo     Nalpha   Nbeta   Ndocc  Nsocc
   -------------------------------------------------------
     A        243     243       0       0       0       0
   -------------------------------------------------------
    Total     243     243      44      44      44       0
   -------------------------------------------------------

  ==> Integral Setup <==

  Using integral reordering PK algorithm.
  Sizing the integral batches needed.
  Building batch lookup table.
   Calculation information:
      Number of atoms:                  27
      Number of AO shells:             117
      Number of primitives:            339
      Number of atomic orbitals:       255
      Number of basis functions:       243

      Integral cutoff                 1.00e-12
      Number of threads:                 1

	Batch   1 pq = [       0,    9405] index = [             0,44231715] size =     44231715
	Batch   2 pq = [    9405,   13301] index = [      44231715,88464951] size =     44233236
	Batch   3 pq = [   13301,   16290] index = [      88464951,132690195] size =     44225244
	Batch   4 pq = [   16290,   18810] index = [     132690195,176917455] size =     44227260
	Batch   5 pq = [   18810,   21030] index = [     176917455,221140965] size =     44223510
	Batch   6 pq = [   21030,   23037] index = [     221140965,265363203] size =     44222238
	Batch   7 pq = [   23037,   24883] index = [     265363203,309594286] size =     44231083
	Batch   8 pq = [   24883,   26601] index = [     309594286,353819901] size =     44225615
	Batch   9 pq = [   26601,   28214] index = [     353819901,398029005] size =     44209104
	Batch  10 pq = [   28214,   29646] index = [     398029005,439457481] size =     41428476
  Task number: 40
  Buffer size: 11059200
  Buffer per thread: 2
  We computed 19803409 shell quartets total.
  Whereas there are 23829156 unique shell quartets.

  ==> DiskJK: Disk-Based J/K Matrices <==

    J tasked:                  Yes
    K tasked:                  Yes
    wK tasked:                  No
    Memory [MiB]:              375
    Schwarz Cutoff:          1E-12

    OpenMP threads:              1

  Minimum eigenvalue in the overlap matrix is 2.2866865364E-04.
  Using Symmetric Orthogonalization.

  SCF Guess: Superposition of Atomic Densities via on-the-fly atomic UHF.

  ==> Iterations <==

                        Total Energy        Delta E     RMS |[F,P]|

   @RHF iter SAD:  -479.03912398407135   -4.79039e+02   0.00000e+00
   @RHF iter   1:  -479.48785460570167   -4.48731e-01   2.60090e-03 DIIS
   @RHF iter   2:  -479.72052391535226   -2.32669e-01   1.15269e-03 DIIS
   @RHF iter   3:  -479.76206173711341   -4.15378e-02   3.03873e-04 DIIS
   @RHF iter   4:  -479.76588542879409   -3.82369e-03   1.39660e-04 DIIS
   @RHF iter   5:  -479.76653528406490   -6.49855e-04   2.01869e-05 DIIS
   @RHF iter   6:  -479.76656468446544   -2.94004e-05   9.31800e-06 DIIS
   @RHF iter   7:  -479.76657069349164   -6.00903e-06   3.85928e-06 DIIS
   @RHF iter   8:  -479.76657242467934   -1.73119e-06   1.54989e-06 DIIS
   @RHF iter   9:  -479.76657278643040   -3.61751e-07   6.90820e-07 DIIS
   @RHF iter  10:  -479.76657285823512   -7.18047e-08   3.13716e-07 DIIS
   @RHF iter  11:  -479.76657287558567   -1.73505e-08   1.17204e-07 DIIS
   @RHF iter  12:  -479.76657287794836   -2.36270e-09   3.79273e-08 DIIS
   @RHF iter  13:  -479.76657287811082   -1.62458e-10   9.89404e-09 DIIS
   @RHF iter  14:  -479.76657287812020   -9.37916e-12   3.99581e-09 DIIS
   @RHF iter  15:  -479.76657287812270   -2.50111e-12   2.16323e-09 DIIS
   @RHF iter  16:  -479.76657287812094    1.76215e-12   9.41397e-10 DIIS
   @RHF iter  17:  -479.76657287811463    6.30962e-12   3.82600e-10 DIIS
   @RHF iter  18:  -479.76657287811713   -2.50111e-12   1.56572e-10 DIIS
   @RHF iter  19:  -479.76657287811986   -2.72848e-12   5.29948e-11 DIIS
  Energy and wave function converged.

  ==> Post-Iterations <==

    Orbital Energies [Eh]
    ---------------------

    Doubly Occupied:

       1A    -15.601573     2A    -11.261507     3A    -11.260831
       4A    -11.228038     5A    -11.227292     6A    -11.226794
       7A    -11.226322     8A    -11.219691     9A    -11.218994
      10A    -11.218383    11A    -11.216899    12A    -11.216263
      13A     -1.294125    14A     -1.125469    15A     -1.071461
      16A     -1.018312    17A     -0.994810    18A     -0.984842
      19A     -0.930148    20A     -0.840129    21A     -0.835885
      22A     -0.800691    23A     -0.751278    24A     -0.717579
      25A     -0.660377    26A     -0.640502    27A     -0.602958
      28A     -0.598155    29A     -0.596476    30A     -0.591453
      31A     -0.587996    32A     -0.566238    33A     -0.552827
      34A     -0.536553    35A     -0.524057    36A     -0.501933
      37A     -0.492670    38A     -0.486080    39A     -0.485073
      40A     -0.468409    41A     -0.458772    42A     -0.371717
      43A     -0.293045    44A     -0.271571

    Virtual:

      45A      0.126154    46A      0.172679    47A      0.174647
      48A      0.180152    49A      0.197597    50A      0.203061
      51A      0.218518    52A      0.222987    53A      0.225159
      54A      0.245202    55A      0.257451    56A      0.264437
      57A      0.276723    58A      0.288507    59A      0.297718
      60A      0.303847    61A      0.320696    62A      0.328038
      63A      0.373174    64A      0.388390    65A      0.396476
      66A      0.418797    67A      0.435783    68A      0.448117
      69A      0.472498    70A      0.484760    71A      0.502837
      72A      0.522105    73A      0.593038    74A      0.597521
      75A      0.599099    76A      0.628779    77A      0.639666
      78A      0.647689    79A      0.659418    80A      0.681070
      81A      0.687437    82A      0.693884    83A      0.696355
      84A      0.702545    85A      0.722310    86A      0.730108
      87A      0.741805    88A      0.744615    89A      0.751397
      90A      0.757822    91A      0.758721    92A      0.773115
      93A      0.779856    94A      0.793598    95A      0.804811
      96A      0.842842    97A      0.850039    98A      0.876309
      99A      0.879710   100A      0.891001   101A      0.892588
     102A      0.895286   103A      0.898961   104A      0.904380
     105A      0.910764   106A      0.916296   107A      0.919694
     108A      0.925945   109A      0.931244   110A      0.954530
     111A      0.959227   112A      0.973417   113A      0.992350
     114A      1.008602   115A      1.015969   116A      1.021610
     117A      1.050204   118A      1.082858   119A      1.098629
     120A      1.120188   121A      1.135864   122A      1.138587
     123A      1.143448   124A      1.150391   125A      1.174276
     126A      1.195672   127A      1.212300   128A      1.227821
     129A      1.230799   130A      1.243939   131A      1.252244
     132A      1.279647   133A      1.283681   134A      1.299791
     135A      1.309146   136A      1.330274   137A      1.339819
     138A      1.360768   139A      1.374423   140A      1.448326
     141A      1.456716   142A      1.478063   143A      1.484680
     144A      1.538408   145A      1.554192   146A      1.570811
     147A      1.584925   148A      1.611388   149A      1.629906
     150A      1.638035   151A      1.657406   152A      1.682994
     153A      1.690605   154A      1.695294   155A      1.703735
     156A      1.737436   157A      1.753537   158A      1.763486
     159A      1.784335   160A      1.814040   161A      1.826392
     162A      1.838222   163A      1.863104   164A      1.866007
     165A      1.891138   166A      1.897474   167A      1.900058
     168A      1.903169   169A      1.912505   170A      1.914948
     171A      1.926578   172A      1.938456   173A      1.942311
     174A      1.951528   175A      1.955325   176A      1.959018
     177A      1.964865   178A      1.986615   179A      2.005598
     180A      2.008099   181A      2.013009   182A      2.027703
     183A      2.043922   184A      2.081969   185A      2.084850
     186A      2.088059   187A      2.099745   188A      2.106383
     189A      2.109948   190A      2.121421   191A      2.135114
     192A      2.150262   193A      2.173896   194A      2.177441
     195A      2.195223   196A      2.241455   197A      2.264958
     198A      2.282209   199A      2.301327   200A      2.309245
     201A      2.322719   202A      2.333474   203A      2.344622
     204A      2.396791   205A      2.400347   206A      2.417995
     207A      2.452561   208A      2.461035   209A      2.464584
     210A      2.476127   211A      2.536203   212A      2.559254
     213A      2.575348   214A      2.591028   215A      2.597168
     216A      2.637074   217A      2.673869   218A      2.692405
     219A      2.738689   220A      2.759031   221A      2.776010
     222A      2.776281   223A      2.783132   224A      2.797626
     225A      2.811371   226A      2.826664   227A      2.847635
     228A      2.856165   229A      2.864073   230A      2.869257
     231A      2.925635   232A      2.945662   233A      2.961065
     234A      2.978332   235A      3.035340   236A      3.056176
     237A      3.073069   238A      3.121026   239A      3.212259
     240A      3.303992   241A      3.377581   242A      3.733934
     243A      3.953396

    Final Occupation by Irrep:
              A
    DOCC [    44 ]

  @RHF Final Energy:  -479.76657287811986

   => Energetics <=

    Nuclear Repulsion Energy =            641.6452565707802478
    One-Electron Energy =               -1921.2753063748177738
    Two-Electron Energy =                 799.8634769259176664
    Total Energy =                       -479.7665728781198595

Computation Completed

Properties will be evaluated at   0.000000,   0.000000,   0.000000 [a0]

Properties computed using the SCF density matrix

  Nuclear Dipole Moment: [e a0]
     X:     9.9971      Y:    11.9656      Z:    13.1784

  Electronic Dipole Moment: [e a0]
     X:   -10.0257      Y:   -12.7048      Z:   -13.4841

  Dipole Moment: [e a0]
     X:    -0.0286      Y:    -0.7392      Z:    -0.3058     Total:     0.8005

  Dipole Moment: [D]
     X:    -0.0726      Y:    -1.8789      Z:    -0.7772     Total:     2.0346

*** tstop() called on ds3 at Tue Apr 28 09:22:28 2020
Module time:
	user time   =     176.79 seconds =       2.95 minutes
	system time =      74.39 seconds =       1.24 minutes
	total time  =        240 seconds =       4.00 minutes
Total time:
	user time   =     176.79 seconds =       2.95 minutes
	system time =      74.39 seconds =       1.24 minutes
	total time  =        240 seconds =       4.00 minutes
                                     G D M A

                                 by Anthony Stone

                           version 2.2.06, 22 June 2011

               Distributed Multipoles from Gaussian wavefunctions

Starting at 9:22:28 on 28 Apr 2020

Using SCF density matrix from file ./SSI/SSI-101TRP-132VAL-1-dimer.test.10105.fchk

                         Distributed Multipole Analysis

Standard DMA

Positions and radii in angstrom
Multipole moments in atomic units, ea_0^k for rank k

C          x =  2.400034  y = -1.325197  z =  0.156071 angstrom
           Maximum rank =  0   Radius =  0.650 angstrom
                   Q00  =  -0.218554

C          x = -0.025966  y = -0.550197  z = -0.485929 angstrom
           Maximum rank =  0   Radius =  0.650 angstrom
                   Q00  =  -0.047829

C          x =  1.039034  y = -1.514197  z = -0.444929 angstrom
           Maximum rank =  0   Radius =  0.650 angstrom
                   Q00  =  -0.125405

C          x = -1.105966  y = -1.144197  z = -1.192929 angstrom
           Maximum rank =  0   Radius =  0.650 angstrom
                   Q00  =   0.293160

C          x =  0.582034  y = -2.607197  z = -1.121929 angstrom
           Maximum rank =  0   Radius =  0.650 angstrom
                   Q00  =   0.071725

C          x = -0.182966  y =  0.750803  z =  0.011071 angstrom
           Maximum rank =  0   Radius =  0.650 angstrom
                   Q00  =  -0.095594

C          x = -1.391966  y =  1.413803  z = -0.203929 angstrom
           Maximum rank =  0   Radius =  0.650 angstrom
                   Q00  =  -0.088263

C          x = -2.438966  y =  0.798803  z = -0.908929 angstrom
           Maximum rank =  0   Radius =  0.650 angstrom
                   Q00  =  -0.068005

C          x = -2.307966  y = -0.486197  z = -1.406929 angstrom
           Maximum rank =  0   Radius =  0.650 angstrom
                   Q00  =  -0.120740

N          x = -0.699966  y = -2.396197  z = -1.563929 angstrom
           Maximum rank =  0   Radius =  0.650 angstrom
                   Q00  =  -0.495801

H          x =  0.628034  y =  1.228803  z =  0.532071 angstrom
           Maximum rank =  0   Radius =  0.325 angstrom
                   Q00  =   0.067627

H          x = -1.528966  y =  2.415803  z =  0.179071 angstrom
           Maximum rank =  0   Radius =  0.325 angstrom
                   Q00  =   0.057750

H          x = -3.365966  y =  1.336803  z = -1.057929 angstrom
           Maximum rank =  0   Radius =  0.325 angstrom
                   Q00  =   0.063170

H          x =  2.651034  y = -2.178197  z =  0.788071 angstrom
           Maximum rank =  0   Radius =  0.325 angstrom
                   Q00  =   0.105080

H          x =  2.387034  y = -0.430197  z =  0.780071 angstrom
           Maximum rank =  0   Radius =  0.325 angstrom
                   Q00  =   0.108401

H          x =  1.156034  y = -3.503197  z = -1.313929 angstrom
           Maximum rank =  0   Radius =  0.325 angstrom
                   Q00  =   0.095998

H          x = -1.279966  y = -3.088197  z = -2.051929 angstrom
           Maximum rank =  0   Radius =  0.325 angstrom
                   Q00  =   0.219856

H          x = -3.106966  y = -0.963197  z = -1.949929 angstrom
           Maximum rank =  0   Radius =  0.325 angstrom
                   Q00  =   0.072287

H          x =  3.154554  y = -1.203757  z = -0.635099 angstrom
           Maximum rank =  0   Radius =  0.325 angstrom
                   Q00  =   0.101024

C          x =  1.449034  y =  2.911803  z =  2.449071 angstrom
           Maximum rank =  0   Radius =  0.650 angstrom
                   Q00  =  -0.258285

C          x =  1.905034  y =  3.476803  z =  3.794071 angstrom
           Maximum rank =  0   Radius =  0.650 angstrom
                   Q00  =  -0.218421

H          x =  2.300034  y =  2.510803  z =  1.898071 angstrom
           Maximum rank =  0   Radius =  0.325 angstrom
                   Q00  =   0.075966

H          x =  0.733034  y =  2.111803  z =  2.630071 angstrom
           Maximum rank =  0   Radius =  0.325 angstrom
                   Q00  =   0.080050

H          x =  0.947034  y =  3.673803  z =  1.852071 angstrom
           Maximum rank =  0   Radius =  0.325 angstrom
                   Q00  =   0.082403

H          x =  1.049034  y =  3.931803  z =  4.285071 angstrom
           Maximum rank =  0   Radius =  0.325 angstrom
                   Q00  =   0.081253

H          x =  2.679294  y =  4.248213  z =  3.669789 angstrom
           Maximum rank =  0   Radius =  0.325 angstrom
                   Q00  =   0.080961

H          x =  2.258544  y =  2.665173  z =  4.446981 angstrom
           Maximum rank =  0   Radius =  0.325 angstrom
                   Q00  =   0.080187

Total multipoles referred to origin at
           x =   0.000000,  y =    0.000000,  z =    0.000000 angstrom
                   Q00  =  -0.000000

Finished at 9:22:28 on 28 Apr 2020

  DMA results are available in the Python driver through the
	  variable('DMA DISTRIBUTED MULTIPOLES')
  and
	  variable('DMA TOTAL MULTIPOLES')
  commands.

    Psi4 stopped on: Tuesday, 28 April 2020 09:22AM
    Psi4 wall time for execution: 0:03:59.73

*** Psi4 exiting successfully. Buy a developer a beer!
