                               Psi4 1.3.2 release

  ==> Input File <==

--------------------------------------------------------------------------
import numpy as np
set {scf_type pk
basis cc-pvdz
d_convergence 10
gdma_switch   0
gdma_limit    0
gdma_origin   [ 0.0,  0.0,  0.0 ]
}
molecule test {
    units Angstrom
    0 1
    --
    0 1
    C                1.993242686497490     0.846642242532217     2.186531613214930
    C               -1.020757313502510     0.939642242532217    -0.136468386785070
    C                0.258242686497490     1.163642242532217     0.391531613214930
    C               -1.945757313502510     0.170642242532217     0.576531613214930
    C                0.618242686497490     0.621642242532217     1.627531613214930
    C               -1.587757313502510    -0.368357757467783     1.813531613214930
    C               -0.312757313502510    -0.140357757467783     2.333531613214930
    H               -1.293757313502510     1.362642242532217    -1.093468386785071
    H                0.970242686497490     1.758642242532217    -0.160468386785070
    H               -2.929757313502510    -0.011357757467783     0.166531613214930
    H               -2.265757313502510    -0.969357757467783     2.390531613214930
    H                1.970242686497490     0.735642242532217     3.272531613214929
    H                2.277242686497490     1.873642242532217     1.963531613214930
    H               -0.057757313502510    -0.540357757467783     3.301531613214930
    H                2.764022686497490     0.187310242532217     1.760877693214929
    C                0.851242686497490    -1.182357757467783    -2.266468386785070
    C                1.248242686497490    -0.040357757467783    -3.203468386785071
    C               -0.547757313502510    -1.732357757467783    -2.493468386785070
    H                1.565242686497490    -1.996357757467783    -2.392468386785070
    H                0.928242686497490    -0.844357757467783    -1.233468386785070
    H                0.582242686497490     0.805642242532217    -3.017468386785070
    H               -1.271757313502510    -0.924357757467783    -2.392468386785070
    H               -0.623757313502510    -2.158357757467782    -3.493468386785070
    H                1.191232686497490    -0.369684757467783    -4.251463386785070
    H                2.264512686497490     0.290671242532217    -2.943425386785071
    H               -0.765317313502510    -2.515131757467783    -1.751893386785070

}
e, wfn = energy('scf', return_wfn=True)
gdma(wfn)
dmavals = variable('DMA DISTRIBUTED MULTIPOLES')
charges = np.array(dmavals)
print(charges)
np.save('SSI-051PHE-091ARG-2-dimer.npy', np.array(charges))--------------------------------------------------------------------------

*** tstart() called on ds3
*** at Sun Apr 26 17:35:10 2020

   => Loading Basis Set <=

    Name: CC-PVDZ
    Role: ORBITAL
    Keyword: BASIS
    atoms 1-7, 16-18  entry C          line   138 file /theoryfs2/ds/metcalf/miniconda2/envs/tf2gpu/share/psi4/basis/cc-pvdz.gbs
    atoms 8-15, 19-26 entry H          line    22 file /theoryfs2/ds/metcalf/miniconda2/envs/tf2gpu/share/psi4/basis/cc-pvdz.gbs

         ---------------------------------------------------------
                                   SCF
               by Justin Turney, Rob Parrish, Andy Simmonett
                          and Daniel G. A. Smith
                              RHF Reference
                        1 Threads,    500 MiB Core
         ---------------------------------------------------------

  ==> Geometry <==

    Molecular point group: c1
    Full point group: C1

    Geometry (in Angstrom), charge = 0, multiplicity = 1:

       Center              X                  Y                   Z               Mass
    ------------   -----------------  -----------------  -----------------  -----------------
         C            1.993242686497     0.846642242532     2.186531613215    12.000000000000
         C           -1.020757313503     0.939642242532    -0.136468386785    12.000000000000
         C            0.258242686497     1.163642242532     0.391531613215    12.000000000000
         C           -1.945757313503     0.170642242532     0.576531613215    12.000000000000
         C            0.618242686497     0.621642242532     1.627531613215    12.000000000000
         C           -1.587757313503    -0.368357757468     1.813531613215    12.000000000000
         C           -0.312757313503    -0.140357757468     2.333531613215    12.000000000000
         H           -1.293757313503     1.362642242532    -1.093468386785     1.007825032230
         H            0.970242686497     1.758642242532    -0.160468386785     1.007825032230
         H           -2.929757313503    -0.011357757468     0.166531613215     1.007825032230
         H           -2.265757313503    -0.969357757468     2.390531613215     1.007825032230
         H            1.970242686497     0.735642242532     3.272531613215     1.007825032230
         H            2.277242686497     1.873642242532     1.963531613215     1.007825032230
         H           -0.057757313503    -0.540357757468     3.301531613215     1.007825032230
         H            2.764022686497     0.187310242532     1.760877693215     1.007825032230
         C            0.851242686497    -1.182357757468    -2.266468386785    12.000000000000
         C            1.248242686497    -0.040357757468    -3.203468386785    12.000000000000
         C           -0.547757313503    -1.732357757468    -2.493468386785    12.000000000000
         H            1.565242686497    -1.996357757468    -2.392468386785     1.007825032230
         H            0.928242686497    -0.844357757468    -1.233468386785     1.007825032230
         H            0.582242686497     0.805642242532    -3.017468386785     1.007825032230
         H           -1.271757313503    -0.924357757468    -2.392468386785     1.007825032230
         H           -0.623757313503    -2.158357757468    -3.493468386785     1.007825032230
         H            1.191232686497    -0.369684757468    -4.251463386785     1.007825032230
         H            2.264512686497     0.290671242532    -2.943425386785     1.007825032230
         H           -0.765317313503    -2.515131757468    -1.751893386785     1.007825032230

  Running in c1 symmetry.

  Rotational constants: A =      0.05574  B =      0.02498  C =      0.02037 [cm^-1]
  Rotational constants: A =   1671.04785  B =    748.78880  C =    610.74708 [MHz]
  Nuclear repulsion =  501.668290471725186

  Charge       = 0
  Multiplicity = 1
  Electrons    = 76
  Nalpha       = 38
  Nbeta        = 38

  ==> Algorithm <==

  SCF Algorithm Type is PK.
  DIIS enabled.
  MOM disabled.
  Fractional occupation disabled.
  Guess Type is SAD.
  Energy threshold   = 1.00e-06
  Density threshold  = 1.00e-10
  Integral threshold = 0.00e+00

  ==> Primary Basis <==

  Basis Set: CC-PVDZ
    Blend: CC-PVDZ
    Number of shells: 108
    Number of basis function: 220
    Number of Cartesian functions: 230
    Spherical Harmonics?: true
    Max angular momentum: 2

  ==> Pre-Iterations <==

   -------------------------------------------------------
    Irrep   Nso     Nmo     Nalpha   Nbeta   Ndocc  Nsocc
   -------------------------------------------------------
     A        220     220       0       0       0       0
   -------------------------------------------------------
    Total     220     220      38      38      38       0
   -------------------------------------------------------

  ==> Integral Setup <==

  Using integral reordering PK algorithm.
  Sizing the integral batches needed.
  Building batch lookup table.
   Calculation information:
      Number of atoms:                  26
      Number of AO shells:             108
      Number of primitives:            300
      Number of atomic orbitals:       230
      Number of basis functions:       220

      Integral cutoff                 1.00e-12
      Number of threads:                 1

	Batch   1 pq = [       0,    9405] index = [             0,44231715] size =     44231715
	Batch   2 pq = [    9405,   13301] index = [      44231715,88464951] size =     44233236
	Batch   3 pq = [   13301,   16290] index = [      88464951,132690195] size =     44225244
	Batch   4 pq = [   16290,   18810] index = [     132690195,176917455] size =     44227260
	Batch   5 pq = [   18810,   21030] index = [     176917455,221140965] size =     44223510
	Batch   6 pq = [   21030,   23037] index = [     221140965,265363203] size =     44222238
	Batch   7 pq = [   23037,   24310] index = [     265363203,295500205] size =     30137002
  Task number: 27
  Buffer size: 11059200
  Buffer per thread: 2
  We computed 17125501 shell quartets total.
  Whereas there are 17325441 unique shell quartets.

  ==> DiskJK: Disk-Based J/K Matrices <==

    J tasked:                  Yes
    K tasked:                  Yes
    wK tasked:                  No
    Memory [MiB]:              375
    Schwarz Cutoff:          1E-12

    OpenMP threads:              1

  Minimum eigenvalue in the overlap matrix is 3.1739209751E-04.
  Using Symmetric Orthogonalization.

  SCF Guess: Superposition of Atomic Densities via on-the-fly atomic UHF.

  ==> Iterations <==

                        Total Energy        Delta E     RMS |[F,P]|

   @RHF iter SAD:  -386.87833963376698   -3.86878e+02   0.00000e+00
   @RHF iter   1:  -387.77013614512242   -8.91797e-01   2.74894e-03 DIIS
   @RHF iter   2:  -387.98869399119764   -2.18558e-01   1.15791e-03 DIIS
   @RHF iter   3:  -388.02399487630447   -3.53009e-02   2.50467e-04 DIIS
   @RHF iter   4:  -388.02688779891702   -2.89292e-03   5.12667e-05 DIIS
   @RHF iter   5:  -388.02697464542371   -8.68465e-05   1.59056e-05 DIIS
   @RHF iter   6:  -388.02698263089275   -7.98547e-06   4.82720e-06 DIIS
   @RHF iter   7:  -388.02698342183368   -7.90941e-07   1.14545e-06 DIIS
   @RHF iter   8:  -388.02698347381522   -5.19815e-08   2.44294e-07 DIIS
   @RHF iter   9:  -388.02698347792142   -4.10620e-09   9.42823e-08 DIIS
   @RHF iter  10:  -388.02698347853186   -6.10441e-10   4.31382e-08 DIIS
   @RHF iter  11:  -388.02698347872786   -1.95996e-10   1.89905e-08 DIIS
   @RHF iter  12:  -388.02698347877686   -4.89990e-11   9.47201e-09 DIIS
   @RHF iter  13:  -388.02698347878675   -9.89075e-12   3.86082e-09 DIIS
   @RHF iter  14:  -388.02698347878885   -2.10321e-12   9.84128e-10 DIIS
   @RHF iter  15:  -388.02698347878840    4.54747e-13   3.43285e-10 DIIS
   @RHF iter  16:  -388.02698347878595    2.44427e-12   1.15765e-10 DIIS
   @RHF iter  17:  -388.02698347878408    1.87583e-12   5.16427e-11 DIIS
  Energy and wave function converged.

  ==> Post-Iterations <==

    Orbital Energies [Eh]
    ---------------------

    Doubly Occupied:

       1A    -11.241955     2A    -11.239175     3A    -11.237085
       4A    -11.234618     5A    -11.233107     6A    -11.231406
       7A    -11.229935     8A    -11.214876     9A    -11.208855
      10A    -11.208016    11A     -1.151745    12A     -1.047892
      13A     -1.044958    14A     -1.011640    15A     -0.931801
      16A     -0.920064    17A     -0.826079    18A     -0.797080
      19A     -0.787524    20A     -0.691539    21A     -0.634349
      22A     -0.630550    23A     -0.622120    24A     -0.588489
      25A     -0.583524    26A     -0.577054    27A     -0.563477
      28A     -0.543770    29A     -0.536947    30A     -0.530434
      31A     -0.488493    32A     -0.486472    33A     -0.482160
      34A     -0.465313    35A     -0.460635    36A     -0.459065
      37A     -0.331265    38A     -0.322492

    Virtual:

      39A      0.131165    40A      0.137719    41A      0.171003
      42A      0.193255    43A      0.201144    44A      0.213367
      45A      0.225021    46A      0.237825    47A      0.247662
      48A      0.258876    49A      0.260267    50A      0.268940
      51A      0.280105    52A      0.291547    53A      0.296416
      54A      0.315043    55A      0.321216    56A      0.335738
      57A      0.362912    58A      0.377433    59A      0.382672
      60A      0.428871    61A      0.448070    62A      0.463719
      63A      0.479959    64A      0.499107    65A      0.561624
      66A      0.571785    67A      0.594710    68A      0.599669
      69A      0.621045    70A      0.623593    71A      0.632601
      72A      0.640225    73A      0.679305    74A      0.692669
      75A      0.704415    76A      0.725697    77A      0.740203
      78A      0.745124    79A      0.749062    80A      0.758343
      81A      0.767754    82A      0.776782    83A      0.797717
      84A      0.822562    85A      0.840713    86A      0.846263
      87A      0.852744    88A      0.857110    89A      0.868508
      90A      0.875388    91A      0.885662    92A      0.888726
      93A      0.897572    94A      0.902052    95A      0.905446
      96A      0.913453    97A      0.919293    98A      0.924164
      99A      0.936579   100A      0.940788   101A      0.943988
     102A      0.958639   103A      0.986369   104A      0.995341
     105A      1.004759   106A      1.028155   107A      1.058838
     108A      1.062665   109A      1.118034   110A      1.130224
     111A      1.134279   112A      1.150684   113A      1.159040
     114A      1.168697   115A      1.189047   116A      1.222682
     117A      1.236253   118A      1.249688   119A      1.262473
     120A      1.284301   121A      1.299456   122A      1.304629
     123A      1.317583   124A      1.325742   125A      1.387526
     126A      1.420044   127A      1.485311   128A      1.487648
     129A      1.506917   130A      1.521179   131A      1.545313
     132A      1.563572   133A      1.603007   134A      1.636984
     135A      1.679473   136A      1.682138   137A      1.687848
     138A      1.700209   139A      1.705643   140A      1.745250
     141A      1.752036   142A      1.769408   143A      1.787315
     144A      1.810820   145A      1.852562   146A      1.866002
     147A      1.881089   148A      1.882993   149A      1.897841
     150A      1.902313   151A      1.907570   152A      1.914191
     153A      1.922634   154A      1.925988   155A      1.935973
     156A      1.946340   157A      1.951674   158A      1.956639
     159A      1.967914   160A      1.981959   161A      1.990540
     162A      1.993898   163A      2.000804   164A      2.010738
     165A      2.021026   166A      2.029191   167A      2.046340
     168A      2.057159   169A      2.073381   170A      2.084590
     171A      2.115921   172A      2.130543   173A      2.147466
     174A      2.148757   175A      2.159020   176A      2.172006
     177A      2.181884   178A      2.188079   179A      2.250835
     180A      2.275171   181A      2.290378   182A      2.298053
     183A      2.305005   184A      2.312096   185A      2.322608
     186A      2.333760   187A      2.334510   188A      2.363274
     189A      2.467059   190A      2.472891   191A      2.494257
     192A      2.516090   193A      2.534545   194A      2.554032
     195A      2.592531   196A      2.618348   197A      2.625417
     198A      2.632756   199A      2.740548   200A      2.750820
     201A      2.760521   202A      2.770938   203A      2.781022
     204A      2.791092   205A      2.807393   206A      2.813657
     207A      2.816283   208A      2.849172   209A      2.869598
     210A      2.936617   211A      2.974362   212A      2.976174
     213A      2.987133   214A      3.012303   215A      3.036567
     216A      3.100851   217A      3.151864   218A      3.201741
     219A      3.291304   220A      3.958078

    Final Occupation by Irrep:
              A
    DOCC [    38 ]

  @RHF Final Energy:  -388.02698347878408

   => Energetics <=

    Nuclear Repulsion Energy =            501.6682904717251859
    One-Electron Energy =               -1517.7986302810609232
    Two-Electron Energy =                 628.1033563305517191
    Total Energy =                       -388.0269834787840182

Computation Completed

Properties will be evaluated at   0.000000,   0.000000,   0.000000 [a0]

Properties computed using the SCF density matrix

  Nuclear Dipole Moment: [e a0]
     X:     4.9736      Y:    -3.1078      Z:    -9.2571

  Electronic Dipole Moment: [e a0]
     X:    -4.8574      Y:     3.1224      Z:     9.4327

  Dipole Moment: [e a0]
     X:     0.1163      Y:     0.0145      Z:     0.1756     Total:     0.2111

  Dipole Moment: [D]
     X:     0.2955      Y:     0.0369      Z:     0.4463     Total:     0.5366

*** tstop() called on ds3 at Sun Apr 26 17:38:12 2020
Module time:
	user time   =     122.11 seconds =       2.04 minutes
	system time =      43.75 seconds =       0.73 minutes
	total time  =        182 seconds =       3.03 minutes
Total time:
	user time   =     122.11 seconds =       2.04 minutes
	system time =      43.75 seconds =       0.73 minutes
	total time  =        182 seconds =       3.03 minutes
                                     G D M A

                                 by Anthony Stone

                           version 2.2.06, 22 June 2011

               Distributed Multipoles from Gaussian wavefunctions

Starting at 17:38:12 on 26 Apr 2020

Using SCF density matrix from file ./SSI/SSI-051PHE-091ARG-2-dimer.test.18846.fchk

                         Distributed Multipole Analysis

Standard DMA

Positions and radii in angstrom
Multipole moments in atomic units, ea_0^k for rank k

C          x =  1.993243  y =  0.846642  z =  2.186532 angstrom
           Maximum rank =  0   Radius =  0.650 angstrom
                   Q00  =  -0.197098

C          x = -1.020757  y =  0.939642  z = -0.136468 angstrom
           Maximum rank =  0   Radius =  0.650 angstrom
                   Q00  =  -0.081125

C          x =  0.258243  y =  1.163642  z =  0.391532 angstrom
           Maximum rank =  0   Radius =  0.650 angstrom
                   Q00  =  -0.064647

C          x = -1.945757  y =  0.170642  z =  0.576532 angstrom
           Maximum rank =  0   Radius =  0.650 angstrom
                   Q00  =  -0.087576

C          x =  0.618243  y =  0.621642  z =  1.627532 angstrom
           Maximum rank =  0   Radius =  0.650 angstrom
                   Q00  =  -0.098538

C          x = -1.587757  y = -0.368358  z =  1.813532 angstrom
           Maximum rank =  0   Radius =  0.650 angstrom
                   Q00  =  -0.077102

C          x = -0.312757  y = -0.140358  z =  2.333532 angstrom
           Maximum rank =  0   Radius =  0.650 angstrom
                   Q00  =  -0.007060

H          x = -1.293757  y =  1.362642  z = -1.093468 angstrom
           Maximum rank =  0   Radius =  0.325 angstrom
                   Q00  =   0.066669

H          x =  0.970243  y =  1.758642  z = -0.160468 angstrom
           Maximum rank =  0   Radius =  0.325 angstrom
                   Q00  =   0.058745

H          x = -2.929757  y = -0.011358  z =  0.166532 angstrom
           Maximum rank =  0   Radius =  0.325 angstrom
                   Q00  =   0.064220

H          x = -2.265757  y = -0.969358  z =  2.390532 angstrom
           Maximum rank =  0   Radius =  0.325 angstrom
                   Q00  =   0.066171

H          x =  1.970243  y =  0.735642  z =  3.272532 angstrom
           Maximum rank =  0   Radius =  0.325 angstrom
                   Q00  =   0.098319

H          x =  2.277243  y =  1.873642  z =  1.963532 angstrom
           Maximum rank =  0   Radius =  0.325 angstrom
                   Q00  =   0.097023

H          x = -0.057757  y = -0.540358  z =  3.301532 angstrom
           Maximum rank =  0   Radius =  0.325 angstrom
                   Q00  =   0.058549

H          x =  2.764023  y =  0.187310  z =  1.760878 angstrom
           Maximum rank =  0   Radius =  0.325 angstrom
                   Q00  =   0.104879

C          x =  0.851243  y = -1.182358  z = -2.266468 angstrom
           Maximum rank =  0   Radius =  0.650 angstrom
                   Q00  =  -0.077034

C          x =  1.248243  y = -0.040358  z = -3.203468 angstrom
           Maximum rank =  0   Radius =  0.650 angstrom
                   Q00  =  -0.244723

C          x = -0.547757  y = -1.732358  z = -2.493468 angstrom
           Maximum rank =  0   Radius =  0.650 angstrom
                   Q00  =  -0.235140

H          x =  1.565243  y = -1.996358  z = -2.392468 angstrom
           Maximum rank =  0   Radius =  0.325 angstrom
                   Q00  =   0.038530

H          x =  0.928243  y = -0.844358  z = -1.233468 angstrom
           Maximum rank =  0   Radius =  0.325 angstrom
                   Q00  =   0.061118

H          x =  0.582243  y =  0.805642  z = -3.017468 angstrom
           Maximum rank =  0   Radius =  0.325 angstrom
                   Q00  =   0.068672

H          x = -1.271757  y = -0.924358  z = -2.392468 angstrom
           Maximum rank =  0   Radius =  0.325 angstrom
                   Q00  =   0.072279

H          x = -0.623757  y = -2.158358  z = -3.493468 angstrom
           Maximum rank =  0   Radius =  0.325 angstrom
                   Q00  =   0.070166

H          x =  1.191233  y = -0.369685  z = -4.251463 angstrom
           Maximum rank =  0   Radius =  0.325 angstrom
                   Q00  =   0.078575

H          x =  2.264513  y =  0.290671  z = -2.943425 angstrom
           Maximum rank =  0   Radius =  0.325 angstrom
                   Q00  =   0.080328

H          x = -0.765317  y = -2.515132  z = -1.751893 angstrom
           Maximum rank =  0   Radius =  0.325 angstrom
                   Q00  =   0.085799

Total multipoles referred to origin at
           x =   0.000000,  y =    0.000000,  z =    0.000000 angstrom
                   Q00  =  -0.000000

Finished at 17:38:12 on 26 Apr 2020

  DMA results are available in the Python driver through the
	  variable('DMA DISTRIBUTED MULTIPOLES')
  and
	  variable('DMA TOTAL MULTIPOLES')
  commands.

    Psi4 stopped on: Sunday, 26 April 2020 05:38PM
    Psi4 wall time for execution: 0:03:02.23

*** Psi4 exiting successfully. Buy a developer a beer!
