                               Psi4 1.3.2 release

  ==> Input File <==

--------------------------------------------------------------------------
import numpy as np
set {scf_type pk
basis cc-pvdz
d_convergence 10
gdma_switch   0
gdma_limit    0
gdma_origin   [ 0.0,  0.0,  0.0 ]
}
molecule test {
    units Angstrom
    -1 1
    --
    -1 1
    C                0.845909347936219    -2.292007215916835    -1.492393001788990
    C                1.062909347936219    -0.839007215916835    -1.902393001788990
    O                0.304909347936219     0.047992784083165    -1.468393001788990
    O                2.036909347936219    -0.585007215916835    -2.627393001788990
    H                0.871909347936219    -2.909007215916835    -2.393393001788990
    H               -0.132090652063781    -2.421007215916835    -1.025393001788990
    H                1.638939347936219    -2.625347215916835    -0.806843001788990
    C                0.085909347936219     1.793992784083165     2.049606998211010
    C               -1.127090652063781     0.891992784083165     1.913606998211010
    O               -1.960090652063781     0.808992784083165     2.807606998211010
    N               -1.245090652063781     0.212992784083165     0.791606998211010
    H               -2.052090652063781    -0.374007215916835     0.667606998211010
    H               -0.550090652063781     0.296992784083165     0.044606998211010
    H               -0.223090652063781     2.831992784083165     1.916606998211010
    H                0.781909347936219     1.548992784083165     1.246606998211010
    H                0.575219347936219     1.674382784083165     3.027496998211010

}
e, wfn = energy('scf', return_wfn=True)
gdma(wfn)
dmavals = variable('DMA DISTRIBUTED MULTIPOLES')
charges = np.array(dmavals)
print(charges)
np.save('SSI-096ASP-101GLN-1-dimer.npy', np.array(charges))--------------------------------------------------------------------------

*** tstart() called on ds3
*** at Tue Apr 28 08:59:57 2020

   => Loading Basis Set <=

    Name: CC-PVDZ
    Role: ORBITAL
    Keyword: BASIS
    atoms 1-2, 8-9   entry C          line   138 file /theoryfs2/ds/metcalf/miniconda2/envs/tf2gpu/share/psi4/basis/cc-pvdz.gbs
    atoms 3-4, 10    entry O          line   198 file /theoryfs2/ds/metcalf/miniconda2/envs/tf2gpu/share/psi4/basis/cc-pvdz.gbs
    atoms 5-7, 12-16 entry H          line    22 file /theoryfs2/ds/metcalf/miniconda2/envs/tf2gpu/share/psi4/basis/cc-pvdz.gbs
    atoms 11         entry N          line   168 file /theoryfs2/ds/metcalf/miniconda2/envs/tf2gpu/share/psi4/basis/cc-pvdz.gbs

         ---------------------------------------------------------
                                   SCF
               by Justin Turney, Rob Parrish, Andy Simmonett
                          and Daniel G. A. Smith
                              RHF Reference
                        1 Threads,    500 MiB Core
         ---------------------------------------------------------

  ==> Geometry <==

    Molecular point group: c1
    Full point group: C1

    Geometry (in Angstrom), charge = -1, multiplicity = 1:

       Center              X                  Y                   Z               Mass
    ------------   -----------------  -----------------  -----------------  -----------------
         C            0.845909347936    -2.292007215917    -1.492393001789    12.000000000000
         C            1.062909347936    -0.839007215917    -1.902393001789    12.000000000000
         O            0.304909347936     0.047992784083    -1.468393001789    15.994914619570
         O            2.036909347936    -0.585007215917    -2.627393001789    15.994914619570
         H            0.871909347936    -2.909007215917    -2.393393001789     1.007825032230
         H           -0.132090652064    -2.421007215917    -1.025393001789     1.007825032230
         H            1.638939347936    -2.625347215917    -0.806843001789     1.007825032230
         C            0.085909347936     1.793992784083     2.049606998211    12.000000000000
         C           -1.127090652064     0.891992784083     1.913606998211    12.000000000000
         O           -1.960090652064     0.808992784083     2.807606998211    15.994914619570
         N           -1.245090652064     0.212992784083     0.791606998211    14.003074004430
         H           -2.052090652064    -0.374007215917     0.667606998211     1.007825032230
         H           -0.550090652064     0.296992784083     0.044606998211     1.007825032230
         H           -0.223090652064     2.831992784083     1.916606998211     1.007825032230
         H            0.781909347936     1.548992784083     1.246606998211     1.007825032230
         H            0.575219347936     1.674382784083     3.027496998211     1.007825032230

  Running in c1 symmetry.

  Rotational constants: A =      0.14808  B =      0.02255  C =      0.02083 [cm^-1]
  Rotational constants: A =   4439.43824  B =    675.89561  C =    624.42881 [MHz]
  Nuclear repulsion =  350.354037484940989

  Charge       = -1
  Multiplicity = 1
  Electrons    = 64
  Nalpha       = 32
  Nbeta        = 32

  ==> Algorithm <==

  SCF Algorithm Type is PK.
  DIIS enabled.
  MOM disabled.
  Fractional occupation disabled.
  Guess Type is SAD.
  Energy threshold   = 1.00e-06
  Density threshold  = 1.00e-10
  Integral threshold = 0.00e+00

  ==> Primary Basis <==

  Basis Set: CC-PVDZ
    Blend: CC-PVDZ
    Number of shells: 72
    Number of basis function: 152
    Number of Cartesian functions: 160
    Spherical Harmonics?: true
    Max angular momentum: 2

  ==> Pre-Iterations <==

   -------------------------------------------------------
    Irrep   Nso     Nmo     Nalpha   Nbeta   Ndocc  Nsocc
   -------------------------------------------------------
     A        152     152       0       0       0       0
   -------------------------------------------------------
    Total     152     152      32      32      32       0
   -------------------------------------------------------

  ==> Integral Setup <==

  Using integral reordering PK algorithm.
  Sizing the integral batches needed.
  Building batch lookup table.
   Calculation information:
      Number of atoms:                  16
      Number of AO shells:              72
      Number of primitives:            216
      Number of atomic orbitals:       160
      Number of basis functions:       152

      Integral cutoff                 1.00e-12
      Number of threads:                 1

	Batch   1 pq = [       0,    9405] index = [             0,44231715] size =     44231715
	Batch   2 pq = [    9405,   11628] index = [      44231715,67611006] size =     23379291
  Task number: 7
  Buffer size: 11059200
  Buffer per thread: 2
  We computed 2753977 shell quartets total.
  Whereas there are 3454506 unique shell quartets.

  ==> DiskJK: Disk-Based J/K Matrices <==

    J tasked:                  Yes
    K tasked:                  Yes
    wK tasked:                  No
    Memory [MiB]:              375
    Schwarz Cutoff:          1E-12

    OpenMP threads:              1

  Minimum eigenvalue in the overlap matrix is 4.5032524302E-03.
  Using Symmetric Orthogonalization.

  SCF Guess: Superposition of Atomic Densities via on-the-fly atomic UHF.

  ==> Iterations <==

                        Total Energy        Delta E     RMS |[F,P]|

   @RHF iter SAD:  -433.56634605487608   -4.33566e+02   0.00000e+00
   @RHF iter   1:  -434.95849503514324   -1.39215e+00   5.37428e-03 DIIS
   @RHF iter   2:  -435.18657318332424   -2.28078e-01   3.09903e-03 DIIS
   @RHF iter   3:  -435.26362960367027   -7.70564e-02   4.74065e-04 DIIS
   @RHF iter   4:  -435.26680343172279   -3.17383e-03   1.86073e-04 DIIS
   @RHF iter   5:  -435.26734527239756   -5.41841e-04   3.71973e-05 DIIS
   @RHF iter   6:  -435.26737059093193   -2.53185e-05   1.84607e-05 DIIS
   @RHF iter   7:  -435.26737630568675   -5.71475e-06   4.98409e-06 DIIS
   @RHF iter   8:  -435.26737714207809   -8.36391e-07   2.23486e-06 DIIS
   @RHF iter   9:  -435.26737728397563   -1.41898e-07   8.87516e-07 DIIS
   @RHF iter  10:  -435.26737730613775   -2.21621e-08   2.15539e-07 DIIS
   @RHF iter  11:  -435.26737730720089   -1.06314e-09   9.56692e-08 DIIS
   @RHF iter  12:  -435.26737730732509   -1.24203e-10   2.03745e-08 DIIS
   @RHF iter  13:  -435.26737730733362   -8.52651e-12   5.54571e-09 DIIS
   @RHF iter  14:  -435.26737730733760   -3.97904e-12   1.80449e-09 DIIS
   @RHF iter  15:  -435.26737730733527    2.33058e-12   5.97555e-10 DIIS
   @RHF iter  16:  -435.26737730733777   -2.50111e-12   2.25167e-10 DIIS
   @RHF iter  17:  -435.26737730733618    1.59162e-12   1.15367e-10 DIIS
   @RHF iter  18:  -435.26737730733703   -8.52651e-13   4.18002e-11 DIIS
  Energy and wave function converged.

  ==> Post-Iterations <==

    Orbital Energies [Eh]
    ---------------------

    Doubly Occupied:

       1A    -20.366781     2A    -20.295921     3A    -20.281698
       4A    -15.425665     5A    -11.209804     6A    -11.143911
       7A    -11.117799     8A    -11.070856     9A     -1.236637
      10A     -1.186729    11A     -1.073855    12A     -1.062909
      13A     -0.870975    14A     -0.817294    15A     -0.653776
      16A     -0.580799    17A     -0.525179    18A     -0.521635
      19A     -0.484339    20A     -0.449556    21A     -0.435062
      22A     -0.431708    23A     -0.430913    24A     -0.419579
      25A     -0.391300    26A     -0.369020    27A     -0.335847
      28A     -0.278673    29A     -0.259000    30A     -0.215862
      31A     -0.199472    32A     -0.193761

    Virtual:

      33A      0.305047    34A      0.322512    35A      0.332323
      36A      0.349757    37A      0.375439    38A      0.389537
      39A      0.400828    40A      0.421697    41A      0.461998
      42A      0.484094    43A      0.543982    44A      0.565615
      45A      0.592850    46A      0.675265    47A      0.705550
      48A      0.720593    49A      0.774307    50A      0.797127
      51A      0.813517    52A      0.831788    53A      0.843707
      54A      0.854244    55A      0.869893    56A      0.893790
      57A      0.918018    58A      0.952221    59A      0.977061
      60A      0.991999    61A      1.002460    62A      1.015778
      63A      1.022184    64A      1.030426    65A      1.053953
      66A      1.062460    67A      1.071802    68A      1.108105
      69A      1.154485    70A      1.175605    71A      1.201793
      72A      1.211806    73A      1.259866    74A      1.278773
      75A      1.318188    76A      1.329121    77A      1.414127
      78A      1.481632    79A      1.492027    80A      1.503566
      81A      1.505046    82A      1.546748    83A      1.548670
      84A      1.566521    85A      1.585382    86A      1.602003
      87A      1.614352    88A      1.663603    89A      1.680004
      90A      1.719419    91A      1.755136    92A      1.779397
      93A      1.793136    94A      1.820791    95A      1.828253
      96A      1.871673    97A      1.991657    98A      1.997370
      99A      2.001740   100A      2.020942   101A      2.042158
     102A      2.055579   103A      2.072244   104A      2.082018
     105A      2.090216   106A      2.117556   107A      2.138486
     108A      2.184428   109A      2.201254   110A      2.253510
     111A      2.262006   112A      2.304059   113A      2.346685
     114A      2.347934   115A      2.407196   116A      2.428229
     117A      2.441741   118A      2.548624   119A      2.550503
     120A      2.582454   121A      2.603220   122A      2.638719
     123A      2.691243   124A      2.716206   125A      2.727994
     126A      2.796558   127A      2.834539   128A      2.870492
     129A      2.896445   130A      2.904309   131A      2.930237
     132A      2.943061   133A      2.971569   134A      2.988410
     135A      3.137850   136A      3.201838   137A      3.238944
     138A      3.251967   139A      3.263935   140A      3.270601
     141A      3.334421   142A      3.477105   143A      3.648696
     144A      3.661961   145A      3.670467   146A      3.760671
     147A      3.814123   148A      4.004180   149A      4.045074
     150A      4.058415   151A      4.105233   152A      4.184290

    Final Occupation by Irrep:
              A
    DOCC [    32 ]

  @RHF Final Energy:  -435.26737730733703

   => Energetics <=

    Nuclear Repulsion Energy =            350.3540374849409886
    One-Electron Energy =               -1302.5701981952888673
    Two-Electron Energy =                 516.9487834030107933
    Total Energy =                       -435.2673773073370285

Computation Completed

Properties will be evaluated at   0.000000,   0.000000,   0.000000 [a0]

Properties computed using the SCF density matrix

  Nuclear Dipole Moment: [e a0]
     X:     0.8591      Y:    -1.8527      Z:     2.5014

  Electronic Dipole Moment: [e a0]
     X:    -1.6527      Y:     1.7054      Z:    -0.8835

  Dipole Moment: [e a0]
     X:    -0.7936      Y:    -0.1473      Z:     1.6179     Total:     1.8080

  Dipole Moment: [D]
     X:    -2.0171      Y:    -0.3745      Z:     4.1122     Total:     4.5956

*** tstop() called on ds3 at Tue Apr 28 09:00:31 2020
Module time:
	user time   =      23.25 seconds =       0.39 minutes
	system time =      11.13 seconds =       0.19 minutes
	total time  =         34 seconds =       0.57 minutes
Total time:
	user time   =      23.25 seconds =       0.39 minutes
	system time =      11.13 seconds =       0.19 minutes
	total time  =         34 seconds =       0.57 minutes
                                     G D M A

                                 by Anthony Stone

                           version 2.2.06, 22 June 2011

               Distributed Multipoles from Gaussian wavefunctions

Starting at 9:0:31 on 28 Apr 2020

Using SCF density matrix from file ./SSI/SSI-096ASP-101GLN-1-dimer.test.20934.fchk

                         Distributed Multipole Analysis

Standard DMA

Positions and radii in angstrom
Multipole moments in atomic units, ea_0^k for rank k

C          x =  0.845909  y = -2.292007  z = -1.492393 angstrom
           Maximum rank =  0   Radius =  0.650 angstrom
                   Q00  =  -0.291705

C          x =  1.062909  y = -0.839007  z = -1.902393 angstrom
           Maximum rank =  0   Radius =  0.650 angstrom
                   Q00  =   0.953821

O          x =  0.304909  y =  0.047993  z = -1.468393 angstrom
           Maximum rank =  0   Radius =  0.650 angstrom
                   Q00  =  -0.950707

O          x =  2.036909  y = -0.585007  z = -2.627393 angstrom
           Maximum rank =  0   Radius =  0.650 angstrom
                   Q00  =  -0.900710

H          x =  0.871909  y = -2.909007  z = -2.393393 angstrom
           Maximum rank =  0   Radius =  0.325 angstrom
                   Q00  =   0.073446

H          x = -0.132091  y = -2.421007  z = -1.025393 angstrom
           Maximum rank =  0   Radius =  0.325 angstrom
                   Q00  =   0.051791

H          x =  1.638939  y = -2.625347  z = -0.806843 angstrom
           Maximum rank =  0   Radius =  0.325 angstrom
                   Q00  =   0.086728

C          x =  0.085909  y =  1.793993  z =  2.049607 angstrom
           Maximum rank =  0   Radius =  0.650 angstrom
                   Q00  =  -0.261439

C          x = -1.127091  y =  0.891993  z =  1.913607 angstrom
           Maximum rank =  0   Radius =  0.650 angstrom
                   Q00  =   0.845203

O          x = -1.960091  y =  0.808993  z =  2.807607 angstrom
           Maximum rank =  0   Radius =  0.650 angstrom
                   Q00  =  -0.865747

N          x = -1.245091  y =  0.212993  z =  0.791607 angstrom
           Maximum rank =  0   Radius =  0.650 angstrom
                   Q00  =  -0.565550

H          x = -2.052091  y = -0.374007  z =  0.667607 angstrom
           Maximum rank =  0   Radius =  0.325 angstrom
                   Q00  =   0.186587

H          x = -0.550091  y =  0.296993  z =  0.044607 angstrom
           Maximum rank =  0   Radius =  0.325 angstrom
                   Q00  =   0.325530

H          x = -0.223091  y =  2.831993  z =  1.916607 angstrom
           Maximum rank =  0   Radius =  0.325 angstrom
                   Q00  =   0.109974

H          x =  0.781909  y =  1.548993  z =  1.246607 angstrom
           Maximum rank =  0   Radius =  0.325 angstrom
                   Q00  =   0.103934

H          x =  0.575219  y =  1.674383  z =  3.027497 angstrom
           Maximum rank =  0   Radius =  0.325 angstrom
                   Q00  =   0.098844

Total multipoles referred to origin at
           x =   0.000000,  y =    0.000000,  z =    0.000000 angstrom
                   Q00  =  -1.000000

Finished at 9:0:31 on 28 Apr 2020

  DMA results are available in the Python driver through the
	  variable('DMA DISTRIBUTED MULTIPOLES')
  and
	  variable('DMA TOTAL MULTIPOLES')
  commands.

    Psi4 stopped on: Tuesday, 28 April 2020 09:00AM
    Psi4 wall time for execution: 0:00:33.84

*** Psi4 exiting successfully. Buy a developer a beer!
