                               Psi4 1.3.2 release

  ==> Input File <==

--------------------------------------------------------------------------
import numpy as np
set {scf_type pk
basis cc-pvdz
d_convergence 10
gdma_switch   0
gdma_limit    0
gdma_origin   [ 0.0,  0.0,  0.0 ]
}
molecule test {
    units Angstrom
    0 1
    --
    0 1
    C               -1.424456538261340    -0.905473815353459    -2.070360914736413
    C               -1.398456538261340    -0.107473815353459    -3.386360914736412
    C               -0.056456538261340    -1.365473815353459    -1.616360914736413
    C                0.834543461738660    -0.439473815353459    -1.090360914736413
    C                0.344543461738660    -2.708473815353459    -1.716360914736413
    C                2.100543461738661    -0.816473815353459    -0.715360914736413
    C                1.631543461738661    -3.105473815353459    -1.326360914736413
    C                2.513543461738660    -2.143473815353459    -0.834360914736413
    O                3.770543461738660    -2.464473815353459    -0.429360914736413
    H               -1.867456538261339    -0.293473815353459    -1.286360914736413
    H               -2.064456538261339    -1.776473815353459    -2.210360914736413
    H               -0.735456538261340     0.746526184646541    -3.241360914736412
    H                0.534543461738660     0.595526184646541    -0.990360914736413
    H               -0.348456538261340    -3.440473815353459    -2.104360914736413
    H                2.779543461738660    -0.075473815353459    -0.318360914736413
    H                1.938543461738660    -4.135473815353459    -1.404360914736412
    H                4.260543461738661    -1.696473815353459    -0.126360914736413
    H               -2.397946538261340     0.253786184646541    -3.670101914736413
    H               -0.981536538261340    -0.719393815353459    -4.199828914736413
    C               -3.369456538261340     0.078526184646541     2.323639085263587
    C               -2.121456538261340     1.594526184646541     0.759639085263587
    C               -2.201456538261340     0.946526184646541     1.997639085263587
    C               -1.028456538261340     2.397526184646541     0.438639085263587
    C               -1.151456538261340     1.085526184646541     2.894639085263588
    C               -0.008456538261340     2.533526184646541     1.345639085263588
    C               -0.052456538261340     1.892526184646541     2.578639085263587
    O                1.055543461738660     3.309526184646541     1.000639085263587
    H               -2.910456538261340     1.461526184646541     0.031639085263587
    H               -0.973456538261340     2.897526184646541    -0.517360914736413
    H               -3.029456538261340    -0.935473815353459     2.523639085263587
    H               -3.994456538261340     0.025526184646541     1.433639085263587
    H               -1.161456538261340     0.558526184646541     3.835639085263587
    H                0.763543461738660     1.996526184646541     3.278639085263587
    H                1.717543461738660     3.339526184646541     1.700639085263587
    H               -3.970986538261340     0.444356184646541     3.168819085263588

}
e, wfn = energy('scf', return_wfn=True)
gdma(wfn)
dmavals = variable('DMA DISTRIBUTED MULTIPOLES')
charges = np.array(dmavals)
print(charges)
np.save('SSI-009TYR-053TYR-1-dimer.npy', np.array(charges))--------------------------------------------------------------------------

*** tstart() called on ds3
*** at Mon Apr 27 13:45:33 2020

   => Loading Basis Set <=

    Name: CC-PVDZ
    Role: ORBITAL
    Keyword: BASIS
    atoms 1-8, 20-26   entry C          line   138 file /theoryfs2/ds/metcalf/miniconda2/envs/tf2gpu/share/psi4/basis/cc-pvdz.gbs
    atoms 9, 27        entry O          line   198 file /theoryfs2/ds/metcalf/miniconda2/envs/tf2gpu/share/psi4/basis/cc-pvdz.gbs
    atoms 10-19, 28-35 entry H          line    22 file /theoryfs2/ds/metcalf/miniconda2/envs/tf2gpu/share/psi4/basis/cc-pvdz.gbs

         ---------------------------------------------------------
                                   SCF
               by Justin Turney, Rob Parrish, Andy Simmonett
                          and Daniel G. A. Smith
                              RHF Reference
                        1 Threads,    500 MiB Core
         ---------------------------------------------------------

  ==> Geometry <==

    Molecular point group: c1
    Full point group: C1

    Geometry (in Angstrom), charge = 0, multiplicity = 1:

       Center              X                  Y                   Z               Mass
    ------------   -----------------  -----------------  -----------------  -----------------
         C           -1.424456538261    -0.905473815353    -2.070360914736    12.000000000000
         C           -1.398456538261    -0.107473815353    -3.386360914736    12.000000000000
         C           -0.056456538261    -1.365473815353    -1.616360914736    12.000000000000
         C            0.834543461739    -0.439473815353    -1.090360914736    12.000000000000
         C            0.344543461739    -2.708473815353    -1.716360914736    12.000000000000
         C            2.100543461739    -0.816473815353    -0.715360914736    12.000000000000
         C            1.631543461739    -3.105473815353    -1.326360914736    12.000000000000
         C            2.513543461739    -2.143473815353    -0.834360914736    12.000000000000
         O            3.770543461739    -2.464473815353    -0.429360914736    15.994914619570
         H           -1.867456538261    -0.293473815353    -1.286360914736     1.007825032230
         H           -2.064456538261    -1.776473815353    -2.210360914736     1.007825032230
         H           -0.735456538261     0.746526184647    -3.241360914736     1.007825032230
         H            0.534543461739     0.595526184647    -0.990360914736     1.007825032230
         H           -0.348456538261    -3.440473815353    -2.104360914736     1.007825032230
         H            2.779543461739    -0.075473815353    -0.318360914736     1.007825032230
         H            1.938543461739    -4.135473815353    -1.404360914736     1.007825032230
         H            4.260543461739    -1.696473815353    -0.126360914736     1.007825032230
         H           -2.397946538261     0.253786184647    -3.670101914736     1.007825032230
         H           -0.981536538261    -0.719393815353    -4.199828914736     1.007825032230
         C           -3.369456538261     0.078526184647     2.323639085264    12.000000000000
         C           -2.121456538261     1.594526184647     0.759639085264    12.000000000000
         C           -2.201456538261     0.946526184647     1.997639085264    12.000000000000
         C           -1.028456538261     2.397526184647     0.438639085264    12.000000000000
         C           -1.151456538261     1.085526184647     2.894639085264    12.000000000000
         C           -0.008456538261     2.533526184647     1.345639085264    12.000000000000
         C           -0.052456538261     1.892526184647     2.578639085264    12.000000000000
         O            1.055543461739     3.309526184647     1.000639085264    15.994914619570
         H           -2.910456538261     1.461526184647     0.031639085264     1.007825032230
         H           -0.973456538261     2.897526184647    -0.517360914736     1.007825032230
         H           -3.029456538261    -0.935473815353     2.523639085264     1.007825032230
         H           -3.994456538261     0.025526184647     1.433639085264     1.007825032230
         H           -1.161456538261     0.558526184647     3.835639085264     1.007825032230
         H            0.763543461739     1.996526184647     3.278639085264     1.007825032230
         H            1.717543461739     3.339526184647     1.700639085264     1.007825032230
         H           -3.970986538261     0.444356184647     3.168819085264     1.007825032230

  Running in c1 symmetry.

  Rotational constants: A =      0.01821  B =      0.00902  C =      0.00781 [cm^-1]
  Rotational constants: A =    545.86250  B =    270.48771  C =    234.16716 [MHz]
  Nuclear repulsion = 1128.580852272906668

  Charge       = 0
  Multiplicity = 1
  Electrons    = 124
  Nalpha       = 62
  Nbeta        = 62

  ==> Algorithm <==

  SCF Algorithm Type is PK.
  DIIS enabled.
  MOM disabled.
  Fractional occupation disabled.
  Guess Type is SAD.
  Energy threshold   = 1.00e-06
  Density threshold  = 1.00e-10
  Integral threshold = 0.00e+00

  ==> Primary Basis <==

  Basis Set: CC-PVDZ
    Blend: CC-PVDZ
    Number of shells: 156
    Number of basis function: 328
    Number of Cartesian functions: 345
    Spherical Harmonics?: true
    Max angular momentum: 2

  ==> Pre-Iterations <==

   -------------------------------------------------------
    Irrep   Nso     Nmo     Nalpha   Nbeta   Ndocc  Nsocc
   -------------------------------------------------------
     A        328     328       0       0       0       0
   -------------------------------------------------------
    Total     328     328      62      62      62       0
   -------------------------------------------------------

  ==> Integral Setup <==

  Using integral reordering PK algorithm.
  Sizing the integral batches needed.
  Building batch lookup table.
   Calculation information:
      Number of atoms:                  35
      Number of AO shells:             156
      Number of primitives:            464
      Number of atomic orbitals:       345
      Number of basis functions:       328

      Integral cutoff                 1.00e-12
      Number of threads:                 1

	Batch   1 pq = [       0,    9405] index = [             0,44231715] size =     44231715
	Batch   2 pq = [    9405,   13301] index = [      44231715,88464951] size =     44233236
	Batch   3 pq = [   13301,   16290] index = [      88464951,132690195] size =     44225244
	Batch   4 pq = [   16290,   18810] index = [     132690195,176917455] size =     44227260
	Batch   5 pq = [   18810,   21030] index = [     176917455,221140965] size =     44223510
	Batch   6 pq = [   21030,   23037] index = [     221140965,265363203] size =     44222238
	Batch   7 pq = [   23037,   24883] index = [     265363203,309594286] size =     44231083
	Batch   8 pq = [   24883,   26601] index = [     309594286,353819901] size =     44225615
	Batch   9 pq = [   26601,   28214] index = [     353819901,398029005] size =     44209104
	Batch  10 pq = [   28214,   29740] index = [     398029005,442248670] size =     44219665
	Batch  11 pq = [   29740,   31191] index = [     442248670,486454836] size =     44206166
	Batch  12 pq = [   31191,   32578] index = [     486454836,530679331] size =     44224495
	Batch  13 pq = [   32578,   33908] index = [     530679331,574893186] size =     44213855
	Batch  14 pq = [   33908,   35188] index = [     574893186,619115266] size =     44222080
	Batch  15 pq = [   35188,   36423] index = [     619115266,663335676] size =     44220410
	Batch  16 pq = [   36423,   37617] index = [     663335676,707538153] size =     44202477
	Batch  17 pq = [   37617,   38775] index = [     707538153,751769700] size =     44231547
	Batch  18 pq = [   38775,   39899] index = [     751769700,795985050] size =     44215350
	Batch  19 pq = [   39899,   40992] index = [     795985050,840192528] size =     44207478
	Batch  20 pq = [   40992,   42057] index = [     840192528,884416653] size =     44224125
	Batch  21 pq = [   42057,   43095] index = [     884416653,928611060] size =     44194407
	Batch  22 pq = [   43095,   44109] index = [     928611060,972823995] size =     44212935
	Batch  23 pq = [   44109,   45100] index = [     972823995,1017027550] size =     44203555
	Batch  24 pq = [   45100,   46070] index = [    1017027550,1061245485] size =     44217935
	Batch  25 pq = [   46070,   47020] index = [    1061245485,1105463710] size =     44218225
	Batch  26 pq = [   47020,   47951] index = [    1105463710,1149673176] size =     44209466
	Batch  27 pq = [   47951,   48864] index = [    1149673176,1193869680] size =     44196504
	Batch  28 pq = [   48864,   49761] index = [    1193869680,1238103441] size =     44233761
	Batch  29 pq = [   49761,   50642] index = [    1238103441,1282331403] size =     44227962
	Batch  30 pq = [   50642,   51508] index = [    1282331403,1326562786] size =     44231383
	Batch  31 pq = [   51508,   52359] index = [    1326562786,1370758620] size =     44195834
	Batch  32 pq = [   52359,   53197] index = [    1370758620,1414987003] size =     44228383
	Batch  33 pq = [   53197,   53956] index = [    1414987003,1455651946] size =     40664943
  Task number: 132
  Buffer size: 11059200
  Buffer per thread: 2
  We computed 84243503 shell quartets total.
  Whereas there are 74988381 unique shell quartets.
    12.34 percent of shell quartets recomputed by reordering.

  ==> DiskJK: Disk-Based J/K Matrices <==

    J tasked:                  Yes
    K tasked:                  Yes
    wK tasked:                  No
    Memory [MiB]:              375
    Schwarz Cutoff:          1E-12

    OpenMP threads:              1

  Minimum eigenvalue in the overlap matrix is 3.1018951219E-04.
  Using Symmetric Orthogonalization.

  SCF Guess: Superposition of Atomic Densities via on-the-fly atomic UHF.

  ==> Iterations <==

                        Total Energy        Delta E     RMS |[F,P]|

   @RHF iter SAD:  -727.09035986065646   -7.27090e+02   0.00000e+00
   @RHF iter   1:  -727.90055158575797   -8.10192e-01   2.33732e-03 DIIS
   @RHF iter   2:  -728.22357261361958   -3.23021e-01   9.96903e-04 DIIS
   @RHF iter   3:  -728.27582486194842   -5.22522e-02   2.44030e-04 DIIS
   @RHF iter   4:  -728.28038121843838   -4.55636e-03   1.09491e-04 DIIS
   @RHF iter   5:  -728.28114093974125   -7.59721e-04   1.63542e-05 DIIS
   @RHF iter   6:  -728.28116983033715   -2.88906e-05   5.76228e-06 DIIS
   @RHF iter   7:  -728.28117313117355   -3.30084e-06   2.00381e-06 DIIS
   @RHF iter   8:  -728.28117365952232   -5.28349e-07   6.97151e-07 DIIS
   @RHF iter   9:  -728.28117374865769   -8.91354e-08   3.00026e-07 DIIS
   @RHF iter  10:  -728.28117376674129   -1.80836e-08   1.42735e-07 DIIS
   @RHF iter  11:  -728.28117377302556   -6.28427e-09   6.16931e-08 DIIS
   @RHF iter  12:  -728.28117377409626   -1.07070e-09   2.79861e-08 DIIS
   @RHF iter  13:  -728.28117377424360   -1.47338e-10   7.53151e-09 DIIS
   @RHF iter  14:  -728.28117377425247   -8.86757e-12   2.26480e-09 DIIS
   @RHF iter  15:  -728.28117377424974    2.72848e-12   7.43780e-10 DIIS
   @RHF iter  16:  -728.28117377424553    4.20641e-12   3.25269e-10 DIIS
   @RHF iter  17:  -728.28117377424951   -3.97904e-12   1.49797e-10 DIIS
   @RHF iter  18:  -728.28117377424496    4.54747e-12   6.85432e-11 DIIS
  Energy and wave function converged.

  ==> Post-Iterations <==

    Orbital Energies [Eh]
    ---------------------

    Doubly Occupied:

       1A    -20.586729     2A    -20.578466     3A    -11.299668
       4A    -11.295155     5A    -11.241892     6A    -11.241638
       7A    -11.237368     8A    -11.235475     9A    -11.234785
      10A    -11.230757    11A    -11.227513    12A    -11.227258
      13A    -11.226475    14A    -11.224256    15A    -11.223799
      16A    -11.223009    17A    -11.219253    18A     -1.404584
      19A     -1.397762    20A     -1.155905    21A     -1.145620
      22A     -1.050625    23A     -1.044508    24A     -1.021586
      25A     -1.012908    26A     -0.969109    27A     -0.929387
      28A     -0.856092    29A     -0.851285    30A     -0.837023
      31A     -0.803842    32A     -0.787420    33A     -0.736120
      34A     -0.728634    35A     -0.671428    36A     -0.668602
      37A     -0.645713    38A     -0.639186    39A     -0.612083
      40A     -0.604936    41A     -0.595529    42A     -0.591352
      43A     -0.588733    44A     -0.580686    45A     -0.578755
      46A     -0.574104    47A     -0.569948    48A     -0.567908
      49A     -0.539828    50A     -0.528354    51A     -0.512840
      52A     -0.501685    53A     -0.492610    54A     -0.488943
      55A     -0.474550    56A     -0.472852    57A     -0.463958
      58A     -0.458396    59A     -0.340948    60A     -0.333452
      61A     -0.305971    62A     -0.294316

    Virtual:

      63A      0.123277    64A      0.138263    65A      0.151135
      66A      0.159371    67A      0.168041    68A      0.178104
      69A      0.187424    70A      0.193492    71A      0.206421
      72A      0.217189    73A      0.226264    74A      0.233430
      75A      0.250475    76A      0.254081    77A      0.267959
      78A      0.269288    79A      0.273343    80A      0.286203
      81A      0.294509    82A      0.299624    83A      0.323325
      84A      0.335688    85A      0.356901    86A      0.370380
      87A      0.376708    88A      0.386700    89A      0.425334
      90A      0.428326    91A      0.435134    92A      0.451710
      93A      0.477810    94A      0.486707    95A      0.488144
      96A      0.496652    97A      0.507680    98A      0.511028
      99A      0.523746   100A      0.603992   101A      0.608703
     102A      0.617091   103A      0.628500   104A      0.640820
     105A      0.647922   106A      0.653946   107A      0.657754
     108A      0.669640   109A      0.675165   110A      0.687671
     111A      0.695665   112A      0.704969   113A      0.712583
     114A      0.717825   115A      0.725289   116A      0.728333
     117A      0.734719   118A      0.738086   119A      0.746759
     120A      0.759082   121A      0.766535   122A      0.766814
     123A      0.773265   124A      0.787223   125A      0.790310
     126A      0.795075   127A      0.804725   128A      0.813831
     129A      0.834213   130A      0.838447   131A      0.850715
     132A      0.858583   133A      0.866124   134A      0.870401
     135A      0.874586   136A      0.877867   137A      0.882965
     138A      0.886901   139A      0.893587   140A      0.898750
     141A      0.902001   142A      0.908981   143A      0.913069
     144A      0.922313   145A      0.923427   146A      0.936759
     147A      0.937525   148A      0.945305   149A      0.953708
     150A      0.964461   151A      0.971656   152A      0.987495
     153A      0.999085   154A      1.014909   155A      1.020106
     156A      1.026680   157A      1.044206   158A      1.063335
     159A      1.082876   160A      1.120458   161A      1.123721
     162A      1.135976   163A      1.140556   164A      1.151470
     165A      1.152205   166A      1.165965   167A      1.183201
     168A      1.189712   169A      1.205150   170A      1.210865
     171A      1.222327   172A      1.245195   173A      1.253187
     174A      1.260911   175A      1.269152   176A      1.273859
     177A      1.288212   178A      1.290739   179A      1.293086
     180A      1.304260   181A      1.308897   182A      1.318379
     183A      1.321578   184A      1.339558   185A      1.346075
     186A      1.363227   187A      1.366436   188A      1.379371
     189A      1.388627   190A      1.396741   191A      1.424181
     192A      1.450332   193A      1.488381   194A      1.499421
     195A      1.505174   196A      1.519638   197A      1.529398
     198A      1.549315   199A      1.558512   200A      1.598967
     201A      1.617609   202A      1.623927   203A      1.626826
     204A      1.642755   205A      1.680440   206A      1.682974
     207A      1.688501   208A      1.703488   209A      1.720473
     210A      1.739846   211A      1.745501   212A      1.752272
     213A      1.779622   214A      1.783344   215A      1.799465
     216A      1.809269   217A      1.818388   218A      1.838770
     219A      1.847896   220A      1.867713   221A      1.880220
     222A      1.883382   223A      1.889720   224A      1.897961
     225A      1.901979   226A      1.910871   227A      1.912120
     228A      1.914367   229A      1.922386   230A      1.932995
     231A      1.934389   232A      1.943761   233A      1.949374
     234A      1.955629   235A      1.960621   236A      1.964530
     237A      1.971215   238A      1.974058   239A      1.983049
     240A      2.002143   241A      2.012432   242A      2.018412
     243A      2.031261   244A      2.038803   245A      2.043815
     246A      2.049269   247A      2.060683   248A      2.068164
     249A      2.069981   250A      2.075741   251A      2.081020
     252A      2.098336   253A      2.109137   254A      2.116649
     255A      2.127426   256A      2.152721   257A      2.158981
     258A      2.178813   259A      2.190949   260A      2.199984
     261A      2.212083   262A      2.217844   263A      2.246496
     264A      2.257777   265A      2.265908   266A      2.271791
     267A      2.282662   268A      2.308537   269A      2.312737
     270A      2.327341   271A      2.345813   272A      2.367370
     273A      2.369667   274A      2.391608   275A      2.395676
     276A      2.448589   277A      2.451730   278A      2.465425
     279A      2.471230   280A      2.482508   281A      2.500022
     282A      2.509071   283A      2.527258   284A      2.533848
     285A      2.546163   286A      2.547007   287A      2.571430
     288A      2.585003   289A      2.620003   290A      2.634676
     291A      2.655755   292A      2.663210   293A      2.738194
     294A      2.767981   295A      2.771150   296A      2.779910
     297A      2.795888   298A      2.804842   299A      2.816765
     300A      2.826670   301A      2.854803   302A      2.869954
     303A      2.888771   304A      2.905304   305A      2.925033
     306A      2.965910   307A      2.971106   308A      3.003689
     309A      3.013036   310A      3.025945   311A      3.097756
     312A      3.100936   313A      3.126264   314A      3.174449
     315A      3.247968   316A      3.257542   317A      3.282370
     318A      3.299085   319A      3.345035   320A      3.353102
     321A      3.577932   322A      3.586963   323A      3.673661
     324A      3.690829   325A      3.967670   326A      3.995478
     327A      4.194168   328A      4.200852

    Final Occupation by Irrep:
              A
    DOCC [    62 ]

  @RHF Final Energy:  -728.28117377424496

   => Energetics <=

    Nuclear Repulsion Energy =           1128.5808522729066681
    One-Electron Energy =               -3231.3569039155477185
    Two-Electron Energy =                1374.4948778683960882
    Total Energy =                       -728.2811737742449623

Computation Completed

Properties will be evaluated at   0.000000,   0.000000,   0.000000 [a0]

Properties computed using the SCF density matrix

  Nuclear Dipole Moment: [e a0]
     X:   -11.6402      Y:    -0.7022      Z:    -3.8376

  Electronic Dipole Moment: [e a0]
     X:    11.6379      Y:     1.1034      Z:     4.5527

  Dipole Moment: [e a0]
     X:    -0.0023      Y:     0.4013      Z:     0.7151     Total:     0.8200

  Dipole Moment: [D]
     X:    -0.0058      Y:     1.0199      Z:     1.8176     Total:     2.0842

*** tstop() called on ds3 at Mon Apr 27 15:49:08 2020
Module time:
	user time   =     747.52 seconds =      12.46 minutes
	system time =     305.81 seconds =       5.10 minutes
	total time  =       7415 seconds =     123.58 minutes
Total time:
	user time   =     747.52 seconds =      12.46 minutes
	system time =     305.81 seconds =       5.10 minutes
	total time  =       7415 seconds =     123.58 minutes
                                     G D M A

                                 by Anthony Stone

                           version 2.2.06, 22 June 2011

               Distributed Multipoles from Gaussian wavefunctions

Starting at 15:49:8 on 27 Apr 2020

Using SCF density matrix from file ./SSI/SSI-009TYR-053TYR-1-dimer.test.7760.fchk

                         Distributed Multipole Analysis

Standard DMA

Positions and radii in angstrom
Multipole moments in atomic units, ea_0^k for rank k

C          x = -1.424457  y = -0.905474  z = -2.070361 angstrom
           Maximum rank =  0   Radius =  0.650 angstrom
                   Q00  =  -0.034943

C          x = -1.398457  y = -0.107474  z = -3.386361 angstrom
           Maximum rank =  0   Radius =  0.650 angstrom
                   Q00  =  -0.244335

C          x = -0.056457  y = -1.365474  z = -1.616361 angstrom
           Maximum rank =  0   Radius =  0.650 angstrom
                   Q00  =  -0.155896

C          x =  0.834543  y = -0.439474  z = -1.090361 angstrom
           Maximum rank =  0   Radius =  0.650 angstrom
                   Q00  =  -0.038211

C          x =  0.344543  y = -2.708474  z = -1.716361 angstrom
           Maximum rank =  0   Radius =  0.650 angstrom
                   Q00  =  -0.025677

C          x =  2.100543  y = -0.816474  z = -0.715361 angstrom
           Maximum rank =  0   Radius =  0.650 angstrom
                   Q00  =  -0.061636

C          x =  1.631543  y = -3.105474  z = -1.326361 angstrom
           Maximum rank =  0   Radius =  0.650 angstrom
                   Q00  =  -0.124776

C          x =  2.513543  y = -2.143474  z = -0.834361 angstrom
           Maximum rank =  0   Radius =  0.650 angstrom
                   Q00  =   0.254636

O          x =  3.770543  y = -2.464474  z = -0.429361 angstrom
           Maximum rank =  0   Radius =  0.650 angstrom
                   Q00  =  -0.636103

H          x = -1.867457  y = -0.293474  z = -1.286361 angstrom
           Maximum rank =  0   Radius =  0.325 angstrom
                   Q00  =   0.075843

H          x = -2.064457  y = -1.776474  z = -2.210361 angstrom
           Maximum rank =  0   Radius =  0.325 angstrom
                   Q00  =   0.059809

H          x = -0.735457  y =  0.746526  z = -3.241361 angstrom
           Maximum rank =  0   Radius =  0.325 angstrom
                   Q00  =   0.077982

H          x =  0.534543  y =  0.595526  z = -0.990361 angstrom
           Maximum rank =  0   Radius =  0.325 angstrom
                   Q00  =   0.072554

H          x = -0.348457  y = -3.440474  z = -2.104361 angstrom
           Maximum rank =  0   Radius =  0.325 angstrom
                   Q00  =   0.063460

H          x =  2.779543  y = -0.075474  z = -0.318361 angstrom
           Maximum rank =  0   Radius =  0.325 angstrom
                   Q00  =   0.062140

H          x =  1.938543  y = -4.135474  z = -1.404361 angstrom
           Maximum rank =  0   Radius =  0.325 angstrom
                   Q00  =   0.079616

H          x =  4.260543  y = -1.696474  z = -0.126361 angstrom
           Maximum rank =  0   Radius =  0.325 angstrom
                   Q00  =   0.405545

H          x = -2.397947  y =  0.253786  z = -3.670102 angstrom
           Maximum rank =  0   Radius =  0.325 angstrom
                   Q00  =   0.080663

H          x = -0.981537  y = -0.719394  z = -4.199829 angstrom
           Maximum rank =  0   Radius =  0.325 angstrom
                   Q00  =   0.085024

C          x = -3.369457  y =  0.078526  z =  2.323639 angstrom
           Maximum rank =  0   Radius =  0.650 angstrom
                   Q00  =  -0.197392

C          x = -2.121457  y =  1.594526  z =  0.759639 angstrom
           Maximum rank =  0   Radius =  0.650 angstrom
                   Q00  =  -0.014230

C          x = -2.201457  y =  0.946526  z =  1.997639 angstrom
           Maximum rank =  0   Radius =  0.650 angstrom
                   Q00  =  -0.126638

C          x = -1.028457  y =  2.397526  z =  0.438639 angstrom
           Maximum rank =  0   Radius =  0.650 angstrom
                   Q00  =  -0.119116

C          x = -1.151457  y =  1.085526  z =  2.894639 angstrom
           Maximum rank =  0   Radius =  0.650 angstrom
                   Q00  =  -0.057962

C          x = -0.008457  y =  2.533526  z =  1.345639 angstrom
           Maximum rank =  0   Radius =  0.650 angstrom
                   Q00  =   0.402303

C          x = -0.052457  y =  1.892526  z =  2.578639 angstrom
           Maximum rank =  0   Radius =  0.650 angstrom
                   Q00  =  -0.197270

O          x =  1.055543  y =  3.309526  z =  1.000639 angstrom
           Maximum rank =  0   Radius =  0.650 angstrom
                   Q00  =  -0.675557

H          x = -2.910457  y =  1.461526  z =  0.031639 angstrom
           Maximum rank =  0   Radius =  0.325 angstrom
                   Q00  =   0.067158

H          x = -0.973457  y =  2.897526  z = -0.517361 angstrom
           Maximum rank =  0   Radius =  0.325 angstrom
                   Q00  =   0.082099

H          x = -3.029457  y = -0.935474  z =  2.523639 angstrom
           Maximum rank =  0   Radius =  0.325 angstrom
                   Q00  =   0.101106

H          x = -3.994457  y =  0.025526  z =  1.433639 angstrom
           Maximum rank =  0   Radius =  0.325 angstrom
                   Q00  =   0.092895

H          x = -1.161457  y =  0.558526  z =  3.835639 angstrom
           Maximum rank =  0   Radius =  0.325 angstrom
                   Q00  =   0.069579

H          x =  0.763543  y =  1.996526  z =  3.278639 angstrom
           Maximum rank =  0   Radius =  0.325 angstrom
                   Q00  =   0.073724

H          x =  1.717543  y =  3.339526  z =  1.700639 angstrom
           Maximum rank =  0   Radius =  0.325 angstrom
                   Q00  =   0.404581

H          x = -3.970987  y =  0.444356  z =  3.168819 angstrom
           Maximum rank =  0   Radius =  0.325 angstrom
                   Q00  =   0.099027

Total multipoles referred to origin at
           x =   0.000000,  y =    0.000000,  z =    0.000000 angstrom
                   Q00  =  -0.000000

Finished at 15:49:8 on 27 Apr 2020

  DMA results are available in the Python driver through the
	  variable('DMA DISTRIBUTED MULTIPOLES')
  and
	  variable('DMA TOTAL MULTIPOLES')
  commands.

    Psi4 stopped on: Monday, 27 April 2020 03:49PM
    Psi4 wall time for execution: 2:03:35.96

*** Psi4 exiting successfully. Buy a developer a beer!
