                               Psi4 1.3.2 release

  ==> Input File <==

--------------------------------------------------------------------------
import numpy as np
set {scf_type pk
basis cc-pvdz
d_convergence 10
gdma_switch   0
gdma_limit    0
gdma_origin   [ 0.0,  0.0,  0.0 ]
}
molecule test {
    units Angstrom
    0 1
    --
    0 1
    C               -0.845498412706170    -1.561743696362020     1.371799870228252
    C               -1.963498412706169    -2.364743696362020     2.022799870228252
    H               -1.097498412706169    -0.498743696362020     1.368799870228252
    H                0.079501587293831    -1.706743696362020     1.931799870228252
    H               -0.671498412706170    -1.900743696362020     0.349799870228252
    H               -1.694498412706170    -3.415743696362020     1.958799870228252
    H               -2.904238412706170    -2.208793696362020     1.474449870228252
    H               -2.025088412706169    -2.104203696362020     3.089719870228253
    C                0.835501587293831     0.734256303637980    -1.120200129771748
    C                0.497501587293831     1.667256303637980    -2.283200129771748
    O                1.411501587293831     1.392256303637980    -0.022200129771748
    H               -0.073498412706169     0.226256303637980    -0.796200129771748
    H                1.529501587293831    -0.023743696362020    -1.476200129771748
    H                0.050501587293831     1.093256303637980    -3.083200129771748
    H                0.793501587293830     2.050256303637980     0.327799870228252
    H                1.417781587293831     2.110746303637979    -2.691120129771748
    H               -0.231618412706170     2.439696303637980    -1.997330129771748

}
e, wfn = energy('scf', return_wfn=True)
gdma(wfn)
dmavals = variable('DMA DISTRIBUTED MULTIPOLES')
charges = np.array(dmavals)
print(charges)
np.save('SSI-104VAL-112SER-1-dimer.npy', np.array(charges))--------------------------------------------------------------------------

*** tstart() called on ds3
*** at Tue Apr 28 12:12:01 2020

   => Loading Basis Set <=

    Name: CC-PVDZ
    Role: ORBITAL
    Keyword: BASIS
    atoms 1-2, 9-10  entry C          line   138 file /theoryfs2/ds/metcalf/miniconda2/envs/tf2gpu/share/psi4/basis/cc-pvdz.gbs
    atoms 3-8, 12-17 entry H          line    22 file /theoryfs2/ds/metcalf/miniconda2/envs/tf2gpu/share/psi4/basis/cc-pvdz.gbs
    atoms 11         entry O          line   198 file /theoryfs2/ds/metcalf/miniconda2/envs/tf2gpu/share/psi4/basis/cc-pvdz.gbs

         ---------------------------------------------------------
                                   SCF
               by Justin Turney, Rob Parrish, Andy Simmonett
                          and Daniel G. A. Smith
                              RHF Reference
                        1 Threads,    500 MiB Core
         ---------------------------------------------------------

  ==> Geometry <==

    Molecular point group: c1
    Full point group: C1

    Geometry (in Angstrom), charge = 0, multiplicity = 1:

       Center              X                  Y                   Z               Mass
    ------------   -----------------  -----------------  -----------------  -----------------
         C           -0.845498412706    -1.561743696362     1.371799870228    12.000000000000
         C           -1.963498412706    -2.364743696362     2.022799870228    12.000000000000
         H           -1.097498412706    -0.498743696362     1.368799870228     1.007825032230
         H            0.079501587294    -1.706743696362     1.931799870228     1.007825032230
         H           -0.671498412706    -1.900743696362     0.349799870228     1.007825032230
         H           -1.694498412706    -3.415743696362     1.958799870228     1.007825032230
         H           -2.904238412706    -2.208793696362     1.474449870228     1.007825032230
         H           -2.025088412706    -2.104203696362     3.089719870228     1.007825032230
         C            0.835501587294     0.734256303638    -1.120200129772    12.000000000000
         C            0.497501587294     1.667256303638    -2.283200129772    12.000000000000
         O            1.411501587294     1.392256303638    -0.022200129772    15.994914619570
         H           -0.073498412706     0.226256303638    -0.796200129772     1.007825032230
         H            1.529501587294    -0.023743696362    -1.476200129772     1.007825032230
         H            0.050501587294     1.093256303638    -3.083200129772     1.007825032230
         H            0.793501587294     2.050256303638     0.327799870228     1.007825032230
         H            1.417781587294     2.110746303638    -2.691120129772     1.007825032230
         H           -0.231618412706     2.439696303638    -1.997330129772     1.007825032230

  Running in c1 symmetry.

  Rotational constants: A =      0.29084  B =      0.03519  C =      0.03272 [cm^-1]
  Rotational constants: A =   8719.11039  B =   1055.02361  C =    980.94760 [MHz]
  Nuclear repulsion =  175.538444987144175

  Charge       = 0
  Multiplicity = 1
  Electrons    = 44
  Nalpha       = 22
  Nbeta        = 22

  ==> Algorithm <==

  SCF Algorithm Type is PK.
  DIIS enabled.
  MOM disabled.
  Fractional occupation disabled.
  Guess Type is SAD.
  Energy threshold   = 1.00e-06
  Density threshold  = 1.00e-10
  Integral threshold = 0.00e+00

  ==> Primary Basis <==

  Basis Set: CC-PVDZ
    Blend: CC-PVDZ
    Number of shells: 66
    Number of basis function: 130
    Number of Cartesian functions: 135
    Spherical Harmonics?: true
    Max angular momentum: 2

  ==> Pre-Iterations <==

   -------------------------------------------------------
    Irrep   Nso     Nmo     Nalpha   Nbeta   Ndocc  Nsocc
   -------------------------------------------------------
     A        130     130       0       0       0       0
   -------------------------------------------------------
    Total     130     130      22      22      22       0
   -------------------------------------------------------

  ==> Integral Setup <==

  Using integral reordering PK algorithm.
  Sizing the integral batches needed.
  Building batch lookup table.
   Calculation information:
      Number of atoms:                  17
      Number of AO shells:              66
      Number of primitives:            170
      Number of atomic orbitals:       135
      Number of basis functions:       130

      Integral cutoff                 1.00e-12
      Number of threads:                 1

	Batch   1 pq = [       0,    8515] index = [             0,36256870] size =     36256870
  Task number: 4
  Buffer size: 11059200
  Buffer per thread: 2
  We computed 1845650 shell quartets total.
  Whereas there are 2445366 unique shell quartets.

  ==> DiskJK: Disk-Based J/K Matrices <==

    J tasked:                  Yes
    K tasked:                  Yes
    wK tasked:                  No
    Memory [MiB]:              375
    Schwarz Cutoff:          1E-12

    OpenMP threads:              1

  Minimum eigenvalue in the overlap matrix is 5.6377066721E-03.
  Using Symmetric Orthogonalization.

  SCF Guess: Superposition of Atomic Densities via on-the-fly atomic UHF.

  ==> Iterations <==

                        Total Energy        Delta E     RMS |[F,P]|

   @RHF iter SAD:  -232.10571796672662   -2.32106e+02   0.00000e+00
   @RHF iter   1:  -233.14241055474454   -1.03669e+00   4.20916e-03 DIIS
   @RHF iter   2:  -233.29264198663523   -1.50231e-01   1.93096e-03 DIIS
   @RHF iter   3:  -233.32076949878240   -2.81275e-02   3.80461e-04 DIIS
   @RHF iter   4:  -233.32285367833452   -2.08418e-03   1.21224e-04 DIIS
   @RHF iter   5:  -233.32299146007145   -1.37782e-04   2.53018e-05 DIIS
   @RHF iter   6:  -233.32300001892995   -8.55886e-06   4.68837e-06 DIIS
   @RHF iter   7:  -233.32300045281551   -4.33886e-07   1.11975e-06 DIIS
   @RHF iter   8:  -233.32300047864976   -2.58343e-08   3.81451e-07 DIIS
   @RHF iter   9:  -233.32300048156168   -2.91192e-09   1.01489e-07 DIIS
   @RHF iter  10:  -233.32300048180082   -2.39140e-10   2.02313e-08 DIIS
   @RHF iter  11:  -233.32300048180980   -8.98126e-12   5.09510e-09 DIIS
   @RHF iter  12:  -233.32300048181105   -1.25056e-12   1.48887e-09 DIIS
   @RHF iter  13:  -233.32300048181099    5.68434e-14   4.08745e-10 DIIS
   @RHF iter  14:  -233.32300048181094    5.68434e-14   1.34356e-10 DIIS
   @RHF iter  15:  -233.32300048181096   -2.84217e-14   3.81652e-11 DIIS
  Energy and wave function converged.

  ==> Post-Iterations <==

    Orbital Energies [Eh]
    ---------------------

    Doubly Occupied:

       1A    -20.547084     2A    -11.272234     3A    -11.221998
       4A    -11.218918     5A    -11.216275     6A     -1.353602
       7A     -1.020501     8A     -1.007393     9A     -0.844237
      10A     -0.834502    11A     -0.680679    12A     -0.622142
      13A     -0.603809    14A     -0.600468    15A     -0.598110
      16A     -0.539716    17A     -0.520670    18A     -0.499224
      19A     -0.487939    20A     -0.483745    21A     -0.472122
      22A     -0.429796

    Virtual:

      23A      0.170978    24A      0.191605    25A      0.209737
      26A      0.224610    27A      0.249120    28A      0.255351
      29A      0.261017    30A      0.266633    31A      0.279825
      32A      0.287957    33A      0.290061    34A      0.319836
      35A      0.373936    36A      0.395218    37A      0.424255
      38A      0.573873    39A      0.597997    40A      0.602549
      41A      0.612849    42A      0.640361    43A      0.671297
      44A      0.678687    45A      0.714571    46A      0.752644
      47A      0.778033    48A      0.804169    49A      0.851915
      50A      0.879333    51A      0.888362    52A      0.892544
      53A      0.893655    54A      0.897967    55A      0.903897
      56A      0.909179    57A      0.914032    58A      0.930613
      59A      0.937053    60A      0.959512    61A      0.979166
      62A      1.119423    63A      1.125341    64A      1.142972
      65A      1.152116    66A      1.204473    67A      1.238920
      68A      1.275238    69A      1.338049    70A      1.387219
      71A      1.466378    72A      1.476637    73A      1.486995
      74A      1.507488    75A      1.573720    76A      1.602753
      77A      1.643161    78A      1.672492    79A      1.683853
      80A      1.692174    81A      1.753030    82A      1.852942
      83A      1.859024    84A      1.867562    85A      1.885985
      86A      1.887889    87A      1.919631    88A      1.927970
      89A      1.939245    90A      1.949747    91A      1.954268
      92A      1.956600    93A      1.971036    94A      1.977181
      95A      1.988583    96A      2.032715    97A      2.048734
      98A      2.098079    99A      2.109381   100A      2.122205
     101A      2.161739   102A      2.267216   103A      2.284589
     104A      2.306590   105A      2.342862   106A      2.347898
     107A      2.413010   108A      2.446504   109A      2.479842
     110A      2.512038   111A      2.535284   112A      2.555162
     113A      2.565335   114A      2.578344   115A      2.753129
     116A      2.760283   117A      2.785941   118A      2.798738
     119A      2.826888   120A      2.840565   121A      2.850093
     122A      2.894953   123A      2.918955   124A      2.947390
     125A      2.965777   126A      3.317290   127A      3.419856
     128A      3.459676   129A      3.663182   130A      4.100161

    Final Occupation by Irrep:
              A
    DOCC [    22 ]

  @RHF Final Energy:  -233.32300048181096

   => Energetics <=

    Nuclear Repulsion Energy =            175.5384449871441745
    One-Electron Energy =                -663.5725677579127932
    Two-Electron Energy =                 254.7111222889576254
    Total Energy =                       -233.3230004818109649

Computation Completed

Properties will be evaluated at   0.000000,   0.000000,   0.000000 [a0]

Properties computed using the SCF density matrix

  Nuclear Dipole Moment: [e a0]
     X:    -4.5185      Y:    -3.6855      Z:     0.4284

  Electronic Dipole Moment: [e a0]
     X:     3.9428      Y:     3.7858      Z:    -0.6645

  Dipole Moment: [e a0]
     X:    -0.5757      Y:     0.1002      Z:    -0.2361     Total:     0.6303

  Dipole Moment: [D]
     X:    -1.4634      Y:     0.2547      Z:    -0.6001     Total:     1.6021

*** tstop() called on ds3 at Tue Apr 28 12:12:18 2020
Module time:
	user time   =      11.37 seconds =       0.19 minutes
	system time =       5.78 seconds =       0.10 minutes
	total time  =         17 seconds =       0.28 minutes
Total time:
	user time   =      11.37 seconds =       0.19 minutes
	system time =       5.78 seconds =       0.10 minutes
	total time  =         17 seconds =       0.28 minutes
                                     G D M A

                                 by Anthony Stone

                           version 2.2.06, 22 June 2011

               Distributed Multipoles from Gaussian wavefunctions

Starting at 12:12:18 on 28 Apr 2020

Using SCF density matrix from file ./SSI/SSI-104VAL-112SER-1-dimer.test.12789.fchk

                         Distributed Multipole Analysis

Standard DMA

Positions and radii in angstrom
Multipole moments in atomic units, ea_0^k for rank k

C          x = -0.845498  y = -1.561744  z =  1.371800 angstrom
           Maximum rank =  0   Radius =  0.650 angstrom
                   Q00  =  -0.223643

C          x = -1.963498  y = -2.364744  z =  2.022800 angstrom
           Maximum rank =  0   Radius =  0.650 angstrom
                   Q00  =  -0.236092

H          x = -1.097498  y = -0.498744  z =  1.368800 angstrom
           Maximum rank =  0   Radius =  0.325 angstrom
                   Q00  =   0.068332

H          x =  0.079502  y = -1.706744  z =  1.931800 angstrom
           Maximum rank =  0   Radius =  0.325 angstrom
                   Q00  =   0.084084

H          x = -0.671498  y = -1.900744  z =  0.349800 angstrom
           Maximum rank =  0   Radius =  0.325 angstrom
                   Q00  =   0.074715

H          x = -1.694498  y = -3.415744  z =  1.958800 angstrom
           Maximum rank =  0   Radius =  0.325 angstrom
                   Q00  =   0.078010

H          x = -2.904238  y = -2.208794  z =  1.474450 angstrom
           Maximum rank =  0   Radius =  0.325 angstrom
                   Q00  =   0.077999

H          x = -2.025088  y = -2.104204  z =  3.089720 angstrom
           Maximum rank =  0   Radius =  0.325 angstrom
                   Q00  =   0.080008

C          x =  0.835502  y =  0.734256  z = -1.120200 angstrom
           Maximum rank =  0   Radius =  0.650 angstrom
                   Q00  =   0.160037

C          x =  0.497502  y =  1.667256  z = -2.283200 angstrom
           Maximum rank =  0   Radius =  0.650 angstrom
                   Q00  =  -0.277194

O          x =  1.411502  y =  1.392256  z = -0.022200 angstrom
           Maximum rank =  0   Radius =  0.650 angstrom
                   Q00  =  -0.621124

H          x = -0.073498  y =  0.226256  z = -0.796200 angstrom
           Maximum rank =  0   Radius =  0.325 angstrom
                   Q00  =   0.020466

H          x =  1.529502  y = -0.023744  z = -1.476200 angstrom
           Maximum rank =  0   Radius =  0.325 angstrom
                   Q00  =   0.082453

H          x =  0.050502  y =  1.093256  z = -3.083200 angstrom
           Maximum rank =  0   Radius =  0.325 angstrom
                   Q00  =   0.085522

H          x =  0.793502  y =  2.050256  z =  0.327800 angstrom
           Maximum rank =  0   Radius =  0.325 angstrom
                   Q00  =   0.380677

H          x =  1.417782  y =  2.110746  z = -2.691120 angstrom
           Maximum rank =  0   Radius =  0.325 angstrom
                   Q00  =   0.089340

H          x = -0.231618  y =  2.439696  z = -1.997330 angstrom
           Maximum rank =  0   Radius =  0.325 angstrom
                   Q00  =   0.076410

Total multipoles referred to origin at
           x =   0.000000,  y =    0.000000,  z =    0.000000 angstrom
                   Q00  =  -0.000000

Finished at 12:12:18 on 28 Apr 2020

  DMA results are available in the Python driver through the
	  variable('DMA DISTRIBUTED MULTIPOLES')
  and
	  variable('DMA TOTAL MULTIPOLES')
  commands.

    Psi4 stopped on: Tuesday, 28 April 2020 12:12PM
    Psi4 wall time for execution: 0:00:16.88

*** Psi4 exiting successfully. Buy a developer a beer!
