                               Psi4 1.3.2 release

  ==> Input File <==

--------------------------------------------------------------------------
import numpy as np
set {scf_type pk
basis cc-pvdz
d_convergence 10
gdma_switch   0
gdma_limit    0
gdma_origin   [ 0.0,  0.0,  0.0 ]
}
molecule test {
    units Angstrom
    -1 1
    --
    -1 1
    C                2.851742952648266     2.115580898391836    -2.495791265054263
    C                0.934742952648266    -0.715419101608164    -1.371791265054263
    C                0.944742952648266     1.430580898391836    -0.915791265054263
    C                1.885742952648266     1.180580898391836    -1.858791265054263
    N                0.365742952648266     0.210580898391836    -0.605791265054263
    N                1.891742952648266    -0.173419101608164    -2.128791265054263
    H               -0.342257047351734     0.041580898391836     0.112208734945737
    H                0.721742952648266    -1.764419101608164    -1.315791265054263
    H                0.720742952648266     2.392580898391835    -0.470791265054263
    H                3.839742952648266     1.842580898391836    -2.123791265054263
    H                2.632742952648266     3.110580898391836    -2.122791265054262
    H                2.861862952648266     2.124981898391836    -3.595701265054263
    C               -3.004257047351734    -1.792419101608164     1.446208734945737
    C               -2.005257047351734    -0.903419101608164     2.192208734945738
    O               -1.258257047351734    -0.132419101608164     1.557208734945737
    O               -1.968257047351734    -0.993419101608164     3.447208734945737
    H               -3.978257047351733    -1.718419101608164     1.933208734945737
    H               -2.652257047351734    -2.820419101608164     1.535208734945737
    H               -3.102967047351734    -1.520777101608164     0.384858734945737

}
e, wfn = energy('scf', return_wfn=True)
gdma(wfn)
dmavals = variable('DMA DISTRIBUTED MULTIPOLES')
charges = np.array(dmavals)
print(charges)
np.save('SSI-168HIE-180GLU-1-dimer.npy', np.array(charges))--------------------------------------------------------------------------

*** tstart() called on ds3
*** at Mon Apr 27 23:35:07 2020

   => Loading Basis Set <=

    Name: CC-PVDZ
    Role: ORBITAL
    Keyword: BASIS
    atoms 1-4, 13-14  entry C          line   138 file /theoryfs2/ds/metcalf/miniconda2/envs/tf2gpu/share/psi4/basis/cc-pvdz.gbs
    atoms 5-6         entry N          line   168 file /theoryfs2/ds/metcalf/miniconda2/envs/tf2gpu/share/psi4/basis/cc-pvdz.gbs
    atoms 7-12, 17-19 entry H          line    22 file /theoryfs2/ds/metcalf/miniconda2/envs/tf2gpu/share/psi4/basis/cc-pvdz.gbs
    atoms 15-16       entry O          line   198 file /theoryfs2/ds/metcalf/miniconda2/envs/tf2gpu/share/psi4/basis/cc-pvdz.gbs

         ---------------------------------------------------------
                                   SCF
               by Justin Turney, Rob Parrish, Andy Simmonett
                          and Daniel G. A. Smith
                              RHF Reference
                        1 Threads,    500 MiB Core
         ---------------------------------------------------------

  ==> Geometry <==

    Molecular point group: c1
    Full point group: C1

    Geometry (in Angstrom), charge = -1, multiplicity = 1:

       Center              X                  Y                   Z               Mass
    ------------   -----------------  -----------------  -----------------  -----------------
         C            2.851742952648     2.115580898392    -2.495791265054    12.000000000000
         C            0.934742952648    -0.715419101608    -1.371791265054    12.000000000000
         C            0.944742952648     1.430580898392    -0.915791265054    12.000000000000
         C            1.885742952648     1.180580898392    -1.858791265054    12.000000000000
         N            0.365742952648     0.210580898392    -0.605791265054    14.003074004430
         N            1.891742952648    -0.173419101608    -2.128791265054    14.003074004430
         H           -0.342257047352     0.041580898392     0.112208734946     1.007825032230
         H            0.721742952648    -1.764419101608    -1.315791265054     1.007825032230
         H            0.720742952648     2.392580898392    -0.470791265054     1.007825032230
         H            3.839742952648     1.842580898392    -2.123791265054     1.007825032230
         H            2.632742952648     3.110580898392    -2.122791265054     1.007825032230
         H            2.861862952648     2.124981898392    -3.595701265054     1.007825032230
         C           -3.004257047352    -1.792419101608     1.446208734946    12.000000000000
         C           -2.005257047352    -0.903419101608     2.192208734946    12.000000000000
         O           -1.258257047352    -0.132419101608     1.557208734946    15.994914619570
         O           -1.968257047352    -0.993419101608     3.447208734946    15.994914619570
         H           -3.978257047352    -1.718419101608     1.933208734946     1.007825032230
         H           -2.652257047352    -2.820419101608     1.535208734946     1.007825032230
         H           -3.102967047352    -1.520777101608     0.384858734946     1.007825032230

  Running in c1 symmetry.

  Rotational constants: A =      0.13663  B =      0.01416  C =      0.01337 [cm^-1]
  Rotational constants: A =   4096.02222  B =    424.63918  C =    400.74360 [MHz]
  Nuclear repulsion =  477.184740997507561

  Charge       = -1
  Multiplicity = 1
  Electrons    = 76
  Nalpha       = 38
  Nbeta        = 38

  ==> Algorithm <==

  SCF Algorithm Type is PK.
  DIIS enabled.
  MOM disabled.
  Fractional occupation disabled.
  Guess Type is SAD.
  Energy threshold   = 1.00e-06
  Density threshold  = 1.00e-10
  Integral threshold = 0.00e+00

  ==> Primary Basis <==

  Basis Set: CC-PVDZ
    Blend: CC-PVDZ
    Number of shells: 87
    Number of basis function: 185
    Number of Cartesian functions: 195
    Spherical Harmonics?: true
    Max angular momentum: 2

  ==> Pre-Iterations <==

   -------------------------------------------------------
    Irrep   Nso     Nmo     Nalpha   Nbeta   Ndocc  Nsocc
   -------------------------------------------------------
     A        185     185       0       0       0       0
   -------------------------------------------------------
    Total     185     185      38      38      38       0
   -------------------------------------------------------

  ==> Integral Setup <==

  Using integral reordering PK algorithm.
  Sizing the integral batches needed.
  Building batch lookup table.
   Calculation information:
      Number of atoms:                  19
      Number of AO shells:              87
      Number of primitives:            265
      Number of atomic orbitals:       195
      Number of basis functions:       185

      Integral cutoff                 1.00e-12
      Number of threads:                 1

	Batch   1 pq = [       0,    9405] index = [             0,44231715] size =     44231715
	Batch   2 pq = [    9405,   13301] index = [      44231715,88464951] size =     44233236
	Batch   3 pq = [   13301,   16290] index = [      88464951,132690195] size =     44225244
	Batch   4 pq = [   16290,   17205] index = [     132690195,148014615] size =     15324420
  Task number: 14
  Buffer size: 11059200
  Buffer per thread: 2
  We computed 5017104 shell quartets total.
  Whereas there are 7328706 unique shell quartets.

  ==> DiskJK: Disk-Based J/K Matrices <==

    J tasked:                  Yes
    K tasked:                  Yes
    wK tasked:                  No
    Memory [MiB]:              375
    Schwarz Cutoff:          1E-12

    OpenMP threads:              1

  Minimum eigenvalue in the overlap matrix is 1.2323698414E-03.
  Using Symmetric Orthogonalization.

  SCF Guess: Superposition of Atomic Densities via on-the-fly atomic UHF.

  ==> Iterations <==

                        Total Energy        Delta E     RMS |[F,P]|

   @RHF iter SAD:  -489.75940781844236   -4.89759e+02   0.00000e+00
   @RHF iter   1:  -490.85347568951755   -1.09407e+00   4.11930e-03 DIIS
   @RHF iter   2:  -491.07548022056875   -2.22005e-01   2.33975e-03 DIIS
   @RHF iter   3:  -491.14573940222584   -7.02592e-02   4.01997e-04 DIIS
   @RHF iter   4:  -491.14914487908618   -3.40548e-03   1.56278e-04 DIIS
   @RHF iter   5:  -491.14966149789768   -5.16619e-04   3.44715e-05 DIIS
   @RHF iter   6:  -491.14968742676217   -2.59289e-05   1.41845e-05 DIIS
   @RHF iter   7:  -491.14969219528990   -4.76853e-06   3.27012e-06 DIIS
   @RHF iter   8:  -491.14969280945479   -6.14165e-07   1.67738e-06 DIIS
   @RHF iter   9:  -491.14969296623650   -1.56782e-07   7.22821e-07 DIIS
   @RHF iter  10:  -491.14969300238511   -3.61486e-08   1.94028e-07 DIIS
   @RHF iter  11:  -491.14969300497023   -2.58513e-09   5.14014e-08 DIIS
   @RHF iter  12:  -491.14969300509551   -1.25283e-10   2.52764e-08 DIIS
   @RHF iter  13:  -491.14969300511649   -2.09752e-11   8.84294e-09 DIIS
   @RHF iter  14:  -491.14969300512132   -4.83169e-12   4.04774e-09 DIIS
   @RHF iter  15:  -491.14969300512178   -4.54747e-13   1.32308e-09 DIIS
   @RHF iter  16:  -491.14969300512234   -5.68434e-13   6.02667e-10 DIIS
   @RHF iter  17:  -491.14969300511910    3.24007e-12   2.12576e-10 DIIS
   @RHF iter  18:  -491.14969300511950   -3.97904e-13   6.41993e-11 DIIS
  Energy and wave function converged.

  ==> Post-Iterations <==

    Orbital Energies [Eh]
    ---------------------

    Doubly Occupied:

       1A    -20.303133     2A    -20.283936     3A    -15.467523
       4A    -15.406806     5A    -11.163921     6A    -11.150949
       7A    -11.126515     8A    -11.125875     9A    -11.120470
      10A    -11.075423    11A     -1.203235    12A     -1.183889
      13A     -1.068587    14A     -1.021468    15A     -0.917578
      16A     -0.826140    17A     -0.820591    18A     -0.686041
      19A     -0.633705    20A     -0.613782    21A     -0.532621
      22A     -0.490142    23A     -0.484893    24A     -0.469217
      25A     -0.448531    26A     -0.437225    27A     -0.436276
      28A     -0.432919    29A     -0.421681    30A     -0.409827
      31A     -0.371442    32A     -0.336633    33A     -0.297428
      34A     -0.248486    35A     -0.220235    36A     -0.201911
      37A     -0.195643    38A     -0.188031

    Virtual:

      39A      0.292529    40A      0.316830    41A      0.320348
      42A      0.329433    43A      0.332482    44A      0.349365
      45A      0.375055    46A      0.377861    47A      0.393081
      48A      0.400774    49A      0.454119    50A      0.464802
      51A      0.486289    52A      0.521943    53A      0.544730
      54A      0.579259    55A      0.600386    56A      0.619156
      57A      0.672801    58A      0.708302    59A      0.728139
      60A      0.735997    61A      0.741538    62A      0.783616
      63A      0.803386    64A      0.818733    65A      0.834948
      66A      0.851009    67A      0.860730    68A      0.892019
      69A      0.906879    70A      0.918951    71A      0.930634
      72A      0.939646    73A      0.948088    74A      0.964839
      75A      0.979280    76A      1.002383    77A      1.011381
      78A      1.012613    79A      1.018492    80A      1.028662
      81A      1.048682    82A      1.062537    83A      1.071544
      84A      1.098443    85A      1.104991    86A      1.187223
      87A      1.188566    88A      1.201097    89A      1.213891
      90A      1.217146    91A      1.258064    92A      1.273238
      93A      1.285276    94A      1.322528    95A      1.327468
      96A      1.371483    97A      1.382496    98A      1.410671
      99A      1.441066   100A      1.450722   101A      1.497134
     102A      1.511407   103A      1.540512   104A      1.553460
     105A      1.567333   106A      1.576946   107A      1.599366
     108A      1.621656   109A      1.631735   110A      1.649733
     111A      1.690390   112A      1.701473   113A      1.713294
     114A      1.766262   115A      1.781545   116A      1.814342
     117A      1.822228   118A      1.832427   119A      1.892747
     120A      1.915760   121A      1.924732   122A      1.950749
     123A      1.991936   124A      2.003837   125A      2.020438
     126A      2.046763   127A      2.052205   128A      2.060500
     129A      2.070163   130A      2.093309   131A      2.112383
     132A      2.125219   133A      2.129255   134A      2.146494
     135A      2.180125   136A      2.208708   137A      2.227165
     138A      2.245188   139A      2.290421   140A      2.293421
     141A      2.305535   142A      2.330918   143A      2.370995
     144A      2.385231   145A      2.402743   146A      2.446818
     147A      2.490048   148A      2.521747   149A      2.552248
     150A      2.564739   151A      2.609146   152A      2.610831
     153A      2.659855   154A      2.691830   155A      2.692958
     156A      2.734967   157A      2.780198   158A      2.788626
     159A      2.860780   160A      2.869515   161A      2.897380
     162A      2.907285   163A      2.935625   164A      2.942398
     165A      2.947797   166A      2.959324   167A      2.979309
     168A      3.019346   169A      3.065600   170A      3.093419
     171A      3.183078   172A      3.233590   173A      3.257086
     174A      3.278007   175A      3.308647   176A      3.330932
     177A      3.374258   178A      3.587927   179A      3.612290
     180A      3.739881   181A      3.782728   182A      3.925627
     183A      4.033312   184A      4.132170   185A      4.166092

    Final Occupation by Irrep:
              A
    DOCC [    38 ]

  @RHF Final Energy:  -491.14969300511950

   => Energetics <=

    Nuclear Repulsion Energy =            477.1847409975075607
    One-Electron Energy =               -1629.0234524460609009
    Two-Electron Energy =                 660.6890184434338380
    Total Energy =                       -491.1496930051195022

Computation Completed

Properties will be evaluated at   0.000000,   0.000000,   0.000000 [a0]

Properties computed using the SCF density matrix

  Nuclear Dipole Moment: [e a0]
     X:     0.6352      Y:     1.5772      Z:    -5.2773

  Electronic Dipole Moment: [e a0]
     X:     0.4462      Y:    -0.8301      Z:     2.4174

  Dipole Moment: [e a0]
     X:     1.0814      Y:     0.7471      Z:    -2.8599     Total:     3.1475

  Dipole Moment: [D]
     X:     2.7485      Y:     1.8990      Z:    -7.2691     Total:     8.0001

*** tstop() called on ds3 at Mon Apr 27 23:36:24 2020
Module time:
	user time   =      48.60 seconds =       0.81 minutes
	system time =      31.67 seconds =       0.53 minutes
	total time  =         77 seconds =       1.28 minutes
Total time:
	user time   =      48.60 seconds =       0.81 minutes
	system time =      31.67 seconds =       0.53 minutes
	total time  =         77 seconds =       1.28 minutes
                                     G D M A

                                 by Anthony Stone

                           version 2.2.06, 22 June 2011

               Distributed Multipoles from Gaussian wavefunctions

Starting at 23:36:24 on 27 Apr 2020

Using SCF density matrix from file ./SSI/SSI-168HIE-180GLU-1-dimer.test.3351.fchk

                         Distributed Multipole Analysis

Standard DMA

Positions and radii in angstrom
Multipole moments in atomic units, ea_0^k for rank k

C          x =  2.851743  y =  2.115581  z = -2.495791 angstrom
           Maximum rank =  0   Radius =  0.650 angstrom
                   Q00  =  -0.185414

C          x =  0.934743  y = -0.715419  z = -1.371791 angstrom
           Maximum rank =  0   Radius =  0.650 angstrom
                   Q00  =   0.474320

C          x =  0.944743  y =  1.430581  z = -0.915791 angstrom
           Maximum rank =  0   Radius =  0.650 angstrom
                   Q00  =   0.049377

C          x =  1.885743  y =  1.180581  z = -1.858791 angstrom
           Maximum rank =  0   Radius =  0.650 angstrom
                   Q00  =   0.174453

N          x =  0.365743  y =  0.210581  z = -0.605791 angstrom
           Maximum rank =  0   Radius =  0.650 angstrom
                   Q00  =  -0.526491

N          x =  1.891743  y = -0.173419  z = -2.128791 angstrom
           Maximum rank =  0   Radius =  0.650 angstrom
                   Q00  =  -0.791088

H          x = -0.342257  y =  0.041581  z =  0.112209 angstrom
           Maximum rank =  0   Radius =  0.325 angstrom
                   Q00  =   0.348601

H          x =  0.721743  y = -1.764419  z = -1.315791 angstrom
           Maximum rank =  0   Radius =  0.325 angstrom
                   Q00  =   0.104616

H          x =  0.720743  y =  2.392581  z = -0.470791 angstrom
           Maximum rank =  0   Radius =  0.325 angstrom
                   Q00  =   0.078940

H          x =  3.839743  y =  1.842581  z = -2.123791 angstrom
           Maximum rank =  0   Radius =  0.325 angstrom
                   Q00  =   0.087997

H          x =  2.632743  y =  3.110581  z = -2.122791 angstrom
           Maximum rank =  0   Radius =  0.325 angstrom
                   Q00  =   0.078822

H          x =  2.861863  y =  2.124982  z = -3.595701 angstrom
           Maximum rank =  0   Radius =  0.325 angstrom
                   Q00  =   0.086464

C          x = -3.004257  y = -1.792419  z =  1.446209 angstrom
           Maximum rank =  0   Radius =  0.650 angstrom
                   Q00  =  -0.289913

C          x = -2.005257  y = -0.903419  z =  2.192209 angstrom
           Maximum rank =  0   Radius =  0.650 angstrom
                   Q00  =   0.939003

O          x = -1.258257  y = -0.132419  z =  1.557209 angstrom
           Maximum rank =  0   Radius =  0.650 angstrom
                   Q00  =  -0.943936

O          x = -1.968257  y = -0.993419  z =  3.447209 angstrom
           Maximum rank =  0   Radius =  0.650 angstrom
                   Q00  =  -0.905734

H          x = -3.978257  y = -1.718419  z =  1.933209 angstrom
           Maximum rank =  0   Radius =  0.325 angstrom
                   Q00  =   0.078775

H          x = -2.652257  y = -2.820419  z =  1.535209 angstrom
           Maximum rank =  0   Radius =  0.325 angstrom
                   Q00  =   0.086446

H          x = -3.102967  y = -1.520777  z =  0.384859 angstrom
           Maximum rank =  0   Radius =  0.325 angstrom
                   Q00  =   0.054763

Total multipoles referred to origin at
           x =   0.000000,  y =    0.000000,  z =    0.000000 angstrom
                   Q00  =  -1.000000

Finished at 23:36:24 on 27 Apr 2020

  DMA results are available in the Python driver through the
	  variable('DMA DISTRIBUTED MULTIPOLES')
  and
	  variable('DMA TOTAL MULTIPOLES')
  commands.

    Psi4 stopped on: Monday, 27 April 2020 11:36PM
    Psi4 wall time for execution: 0:01:17.06

*** Psi4 exiting successfully. Buy a developer a beer!
