                               Psi4 1.3.2 release

  ==> Input File <==

--------------------------------------------------------------------------
import numpy as np
set {scf_type pk
basis cc-pvdz
d_convergence 10
gdma_switch   0
gdma_limit    0
gdma_origin   [ 0.0,  0.0,  0.0 ]
}
molecule test {
    units Angstrom
    0 1
    --
    0 1
    C                0.662415830820576    -2.951491849562074     1.427065641836632
    C               -1.512584169179425    -1.961491849562074     2.841065641836632
    S               -0.374584169179424    -3.359491849562074     2.833065641836631
    H                1.394415830820576    -2.204491849562074     1.725065641836631
    H                1.195415830820576    -3.844491849562074     1.102065641836631
    H                0.057415830820576    -2.576491849562074     0.603065641836632
    H               -2.208584169179424    -2.074491849562074     3.671065641836631
    H               -2.088584169179425    -1.985491849562074     1.916065641836632
    H               -1.008886169179424    -0.985851849562074     2.907455641836632
    C                1.866415830820576    -0.185491849562074    -0.357934358163368
    C                3.313415830820576     0.266508150437926    -0.579934358163368
    C                0.803415830820576     0.751508150437926    -0.878934358163368
    C                0.308415830820576     1.770508150437926    -0.072934358163368
    C                0.273415830820576     0.588508150437926    -2.157934358163368
    C               -0.672584169179424     2.633508150437926    -0.541934358163368
    C               -0.712584169179424     1.447508150437926    -2.634934358163369
    C               -1.185584169179424     2.468508150437926    -1.822934358163368
    O               -2.149584169179424     3.318508150437926    -2.263934358163369
    H                1.724415830820575    -1.170491849562074    -0.808934358163368
    H                1.714415830820575    -0.287491849562074     0.715065641836632
    H                3.442415830820575     1.258508150437926    -0.156934358163368
    H                0.689415830820576     1.897508150437926     0.930065641836632
    H                0.639415830820576    -0.208491849562074    -2.792934358163369
    H               -1.039584169179424     3.426508150437926     0.094065641836632
    H               -1.124584169179424     1.323508150437926    -3.624934358163368
    H               -2.346584169179425     4.008508150437926    -1.625934358163369
    H                3.559085830820576     0.284538150437926    -1.651994358163368
    H                3.962145830820576    -0.439611849562074    -0.040904358163368

}
e, wfn = energy('scf', return_wfn=True)
gdma(wfn)
dmavals = variable('DMA DISTRIBUTED MULTIPOLES')
charges = np.array(dmavals)
print(charges)
np.save('SSI-002MET-031TYR-1-dimer.npy', np.array(charges))--------------------------------------------------------------------------

*** tstart() called on ds3
*** at Mon Apr 27 01:44:06 2020

   => Loading Basis Set <=

    Name: CC-PVDZ
    Role: ORBITAL
    Keyword: BASIS
    atoms 1-2, 10-17 entry C          line   138 file /theoryfs2/ds/metcalf/miniconda2/envs/tf2gpu/share/psi4/basis/cc-pvdz.gbs
    atoms 3          entry S          line   598 file /theoryfs2/ds/metcalf/miniconda2/envs/tf2gpu/share/psi4/basis/cc-pvdz.gbs
    atoms 4-9, 19-28 entry H          line    22 file /theoryfs2/ds/metcalf/miniconda2/envs/tf2gpu/share/psi4/basis/cc-pvdz.gbs
    atoms 18         entry O          line   198 file /theoryfs2/ds/metcalf/miniconda2/envs/tf2gpu/share/psi4/basis/cc-pvdz.gbs

         ---------------------------------------------------------
                                   SCF
               by Justin Turney, Rob Parrish, Andy Simmonett
                          and Daniel G. A. Smith
                              RHF Reference
                        1 Threads,    500 MiB Core
         ---------------------------------------------------------

  ==> Geometry <==

    Molecular point group: c1
    Full point group: C1

    Geometry (in Angstrom), charge = 0, multiplicity = 1:

       Center              X                  Y                   Z               Mass
    ------------   -----------------  -----------------  -----------------  -----------------
         C            0.662415830821    -2.951491849562     1.427065641837    12.000000000000
         C           -1.512584169179    -1.961491849562     2.841065641837    12.000000000000
         S           -0.374584169179    -3.359491849562     2.833065641837    31.972071174400
         H            1.394415830821    -2.204491849562     1.725065641837     1.007825032230
         H            1.195415830821    -3.844491849562     1.102065641837     1.007825032230
         H            0.057415830821    -2.576491849562     0.603065641837     1.007825032230
         H           -2.208584169179    -2.074491849562     3.671065641837     1.007825032230
         H           -2.088584169179    -1.985491849562     1.916065641837     1.007825032230
         H           -1.008886169179    -0.985851849562     2.907455641837     1.007825032230
         C            1.866415830821    -0.185491849562    -0.357934358163    12.000000000000
         C            3.313415830821     0.266508150438    -0.579934358163    12.000000000000
         C            0.803415830821     0.751508150438    -0.878934358163    12.000000000000
         C            0.308415830821     1.770508150438    -0.072934358163    12.000000000000
         C            0.273415830821     0.588508150438    -2.157934358163    12.000000000000
         C           -0.672584169179     2.633508150438    -0.541934358163    12.000000000000
         C           -0.712584169179     1.447508150438    -2.634934358163    12.000000000000
         C           -1.185584169179     2.468508150438    -1.822934358163    12.000000000000
         O           -2.149584169179     3.318508150438    -2.263934358163    15.994914619570
         H            1.724415830821    -1.170491849562    -0.808934358163     1.007825032230
         H            1.714415830821    -0.287491849562     0.715065641837     1.007825032230
         H            3.442415830821     1.258508150438    -0.156934358163     1.007825032230
         H            0.689415830821     1.897508150438     0.930065641837     1.007825032230
         H            0.639415830821    -0.208491849562    -2.792934358163     1.007825032230
         H           -1.039584169179     3.426508150438     0.094065641837     1.007825032230
         H           -1.124584169179     1.323508150438    -3.624934358163     1.007825032230
         H           -2.346584169179     4.008508150438    -1.625934358163     1.007825032230
         H            3.559085830821     0.284538150438    -1.651994358163     1.007825032230
         H            3.962145830821    -0.439611849562    -0.040904358163     1.007825032230

  Running in c1 symmetry.

  Rotational constants: A =      0.03314  B =      0.00995  C =      0.00844 [cm^-1]
  Rotational constants: A =    993.44807  B =    298.35795  C =    253.05841 [MHz]
  Nuclear repulsion =  731.737532089044635

  Charge       = 0
  Multiplicity = 1
  Electrons    = 100
  Nalpha       = 50
  Nbeta        = 50

  ==> Algorithm <==

  SCF Algorithm Type is PK.
  DIIS enabled.
  MOM disabled.
  Fractional occupation disabled.
  Guess Type is SAD.
  Energy threshold   = 1.00e-06
  Density threshold  = 1.00e-10
  Integral threshold = 0.00e+00

  ==> Primary Basis <==

  Basis Set: CC-PVDZ
    Blend: CC-PVDZ
    Number of shells: 122
    Number of basis function: 252
    Number of Cartesian functions: 264
    Spherical Harmonics?: true
    Max angular momentum: 2

  ==> Pre-Iterations <==

   -------------------------------------------------------
    Irrep   Nso     Nmo     Nalpha   Nbeta   Ndocc  Nsocc
   -------------------------------------------------------
     A        252     252       0       0       0       0
   -------------------------------------------------------
    Total     252     252      50      50      50       0
   -------------------------------------------------------

  ==> Integral Setup <==

  Using integral reordering PK algorithm.
  Sizing the integral batches needed.
  Building batch lookup table.
   Calculation information:
      Number of atoms:                  28
      Number of AO shells:             122
      Number of primitives:            372
      Number of atomic orbitals:       264
      Number of basis functions:       252

      Integral cutoff                 1.00e-12
      Number of threads:                 1

	Batch   1 pq = [       0,    9405] index = [             0,44231715] size =     44231715
	Batch   2 pq = [    9405,   13301] index = [      44231715,88464951] size =     44233236
	Batch   3 pq = [   13301,   16290] index = [      88464951,132690195] size =     44225244
	Batch   4 pq = [   16290,   18810] index = [     132690195,176917455] size =     44227260
	Batch   5 pq = [   18810,   21030] index = [     176917455,221140965] size =     44223510
	Batch   6 pq = [   21030,   23037] index = [     221140965,265363203] size =     44222238
	Batch   7 pq = [   23037,   24883] index = [     265363203,309594286] size =     44231083
	Batch   8 pq = [   24883,   26601] index = [     309594286,353819901] size =     44225615
	Batch   9 pq = [   26601,   28214] index = [     353819901,398029005] size =     44209104
	Batch  10 pq = [   28214,   29740] index = [     398029005,442248670] size =     44219665
	Batch  11 pq = [   29740,   31191] index = [     442248670,486454836] size =     44206166
	Batch  12 pq = [   31191,   31878] index = [     486454836,508119381] size =     21664545
  Task number: 46
  Buffer size: 11059200
  Buffer per thread: 2
  We computed 24391587 shell quartets total.
  Whereas there are 28151256 unique shell quartets.

  ==> DiskJK: Disk-Based J/K Matrices <==

    J tasked:                  Yes
    K tasked:                  Yes
    wK tasked:                  No
    Memory [MiB]:              375
    Schwarz Cutoff:          1E-12

    OpenMP threads:              1

  Minimum eigenvalue in the overlap matrix is 3.1874482234E-04.
  Using Symmetric Orthogonalization.

  SCF Guess: Superposition of Atomic Densities via on-the-fly atomic UHF.

  ==> Iterations <==

                        Total Energy        Delta E     RMS |[F,P]|

   @RHF iter SAD:  -859.29055959222546   -8.59291e+02   0.00000e+00
   @RHF iter   1:  -860.14694140403401   -8.56382e-01   2.50280e-03 DIIS
   @RHF iter   2:  -860.37727685493894   -2.30335e-01   1.02139e-03 DIIS
   @RHF iter   3:  -860.41109274044129   -3.38159e-02   2.62491e-04 DIIS
   @RHF iter   4:  -860.41449118394019   -3.39844e-03   1.05499e-04 DIIS
   @RHF iter   5:  -860.41490854203721   -4.17358e-04   1.91683e-05 DIIS
   @RHF iter   6:  -860.41492934709947   -2.08051e-05   5.22113e-06 DIIS
   @RHF iter   7:  -860.41493101473407   -1.66763e-06   1.80635e-06 DIIS
   @RHF iter   8:  -860.41493122086013   -2.06126e-07   6.54117e-07 DIIS
   @RHF iter   9:  -860.41493125086549   -3.00054e-08   1.79055e-07 DIIS
   @RHF iter  10:  -860.41493125331999   -2.45450e-09   6.31899e-08 DIIS
   @RHF iter  11:  -860.41493125373688   -4.16890e-10   2.58352e-08 DIIS
   @RHF iter  12:  -860.41493125382897   -9.20863e-11   1.33995e-08 DIIS
   @RHF iter  13:  -860.41493125385500   -2.60343e-11   6.38959e-09 DIIS
   @RHF iter  14:  -860.41493125386421   -9.20863e-12   1.86436e-09 DIIS
   @RHF iter  15:  -860.41493125386819   -3.97904e-12   6.80964e-10 DIIS
   @RHF iter  16:  -860.41493125386398    4.20641e-12   2.57447e-10 DIIS
   @RHF iter  17:  -860.41493125386114    2.84217e-12   1.08337e-10 DIIS
   @RHF iter  18:  -860.41493125386330   -2.16005e-12   4.88157e-11 DIIS
  Energy and wave function converged.

  ==> Post-Iterations <==

    Orbital Energies [Eh]
    ---------------------

    Doubly Occupied:

       1A    -91.932869     2A    -20.585237     3A    -11.302129
       4A    -11.254499     5A    -11.252334     6A    -11.242118
       7A    -11.241778     8A    -11.235395     9A    -11.233437
      10A    -11.233190    11A    -11.231445    12A    -11.225548
      13A     -8.936822    14A     -6.618938    15A     -6.617325
      16A     -6.615074    17A     -1.404794    18A     -1.157178
      19A     -1.062485    20A     -1.060247    21A     -1.022617
      22A     -0.981390    23A     -0.950976    24A     -0.865322
      25A     -0.847144    26A     -0.804695    27A     -0.794983
      28A     -0.737257    29A     -0.675518    30A     -0.651092
      31A     -0.617433    32A     -0.602663    33A     -0.600845
      34A     -0.597367    35A     -0.590355    36A     -0.588181
      37A     -0.575603    38A     -0.570645    39A     -0.560134
      40A     -0.550071    41A     -0.523965    42A     -0.500188
      43A     -0.497484    44A     -0.482939    45A     -0.476577
      46A     -0.467464    47A     -0.424155    48A     -0.343019
      49A     -0.328664    50A     -0.305073

    Virtual:

      51A      0.125986    52A      0.147252    53A      0.167111
      54A      0.176905    55A      0.183893    56A      0.195189
      57A      0.205599    58A      0.214067    59A      0.235115
      60A      0.238045    61A      0.241956    62A      0.244177
      63A      0.258581    64A      0.266082    65A      0.279225
      66A      0.279797    67A      0.297957    68A      0.302515
      69A      0.315058    70A      0.330236    71A      0.351759
      72A      0.381839    73A      0.420503    74A      0.427235
      75A      0.470569    76A      0.482633    77A      0.497907
      78A      0.511595    79A      0.530643    80A      0.564733
      81A      0.584498    82A      0.593643    83A      0.604109
      84A      0.623641    85A      0.630817    86A      0.648504
      87A      0.650637    88A      0.660192    89A      0.686540
      90A      0.697871    91A      0.699635    92A      0.706840
      93A      0.719109    94A      0.728792    95A      0.730546
      96A      0.738373    97A      0.754632    98A      0.761145
      99A      0.778030   100A      0.781088   101A      0.798396
     102A      0.806319   103A      0.816836   104A      0.819960
     105A      0.840436   106A      0.851833   107A      0.859933
     108A      0.862962   109A      0.871166   110A      0.877771
     111A      0.880264   112A      0.891187   113A      0.894176
     114A      0.900826   115A      0.902464   116A      0.907122
     117A      0.914709   118A      0.921046   119A      0.933288
     120A      0.934975   121A      0.939607   122A      0.950109
     123A      0.961005   124A      0.971202   125A      0.976214
     126A      0.992443   127A      1.012258   128A      1.019723
     129A      1.039205   130A      1.094260   131A      1.115652
     132A      1.138780   133A      1.148573   134A      1.164645
     135A      1.187549   136A      1.190284   137A      1.227522
     138A      1.243277   139A      1.261461   140A      1.262299
     141A      1.280759   142A      1.288633   143A      1.298429
     144A      1.306711   145A      1.311211   146A      1.312771
     147A      1.347743   148A      1.354095   149A      1.365545
     150A      1.374160   151A      1.393672   152A      1.425389
     153A      1.437044   154A      1.460397   155A      1.484740
     156A      1.488392   157A      1.504900   158A      1.548594
     159A      1.602072   160A      1.620063   161A      1.632324
     162A      1.670028   163A      1.673456   164A      1.685834
     165A      1.700406   166A      1.729135   167A      1.732662
     168A      1.764509   169A      1.794733   170A      1.842512
     171A      1.852334   172A      1.866727   173A      1.878352
     174A      1.883166   175A      1.885136   176A      1.889154
     177A      1.896418   178A      1.900866   179A      1.904590
     180A      1.911650   181A      1.920933   182A      1.924515
     183A      1.938713   184A      1.940717   185A      1.948986
     186A      1.962259   187A      1.982294   188A      1.989549
     189A      2.001429   190A      2.003056   191A      2.006160
     192A      2.016709   193A      2.040419   194A      2.048428
     195A      2.049537   196A      2.061905   197A      2.072203
     198A      2.078003   199A      2.090714   200A      2.108209
     201A      2.136031   202A      2.151201   203A      2.155390
     204A      2.191979   205A      2.223049   206A      2.230989
     207A      2.240381   208A      2.260256   209A      2.268662
     210A      2.311235   211A      2.316972   212A      2.341447
     213A      2.364142   214A      2.400090   215A      2.432866
     216A      2.444710   217A      2.446424   218A      2.458433
     219A      2.465038   220A      2.481670   221A      2.486205
     222A      2.496470   223A      2.531038   224A      2.543885
     225A      2.567888   226A      2.633801   227A      2.651675
     228A      2.732402   229A      2.754855   230A      2.759409
     231A      2.771149   232A      2.780260   233A      2.790729
     234A      2.796369   235A      2.807771   236A      2.820680
     237A      2.834602   238A      2.859107   239A      2.869717
     240A      2.909987   241A      2.960987   242A      2.989389
     243A      3.008150   244A      3.096431   245A      3.175937
     246A      3.250245   247A      3.287360   248A      3.348542
     249A      3.576898   250A      3.672325   251A      3.986986
     252A      4.192742

    Final Occupation by Irrep:
              A
    DOCC [    50 ]

  @RHF Final Energy:  -860.41493125386330

   => Energetics <=

    Nuclear Repulsion Energy =            731.7375320890446346
    One-Electron Energy =               -2630.3516076222640550
    Two-Electron Energy =                1038.1991442793560054
    Total Energy =                       -860.4149312538634149

Computation Completed

Properties will be evaluated at   0.000000,   0.000000,   0.000000 [a0]

Properties computed using the SCF density matrix

  Nuclear Dipole Moment: [e a0]
     X:     8.0062      Y:    -3.4273      Z:     2.8401

  Electronic Dipole Moment: [e a0]
     X:    -7.8986      Y:     4.1659      Z:    -2.7908

  Dipole Moment: [e a0]
     X:     0.1076      Y:     0.7386      Z:     0.0493     Total:     0.7480

  Dipole Moment: [D]
     X:     0.2735      Y:     1.8773      Z:     0.1254     Total:     1.9013

*** tstop() called on ds3 at Mon Apr 27 01:48:15 2020
Module time:
	user time   =     182.01 seconds =       3.03 minutes
	system time =      76.05 seconds =       1.27 minutes
	total time  =        249 seconds =       4.15 minutes
Total time:
	user time   =     182.01 seconds =       3.03 minutes
	system time =      76.05 seconds =       1.27 minutes
	total time  =        249 seconds =       4.15 minutes
                                     G D M A

                                 by Anthony Stone

                           version 2.2.06, 22 June 2011

               Distributed Multipoles from Gaussian wavefunctions

Starting at 1:48:15 on 27 Apr 2020

Using SCF density matrix from file ./SSI/SSI-002MET-031TYR-1-dimer.test.14255.fchk

                         Distributed Multipole Analysis

Standard DMA

Positions and radii in angstrom
Multipole moments in atomic units, ea_0^k for rank k

C          x =  0.662416  y = -2.951492  z =  1.427066 angstrom
           Maximum rank =  0   Radius =  0.650 angstrom
                   Q00  =  -0.349685

C          x = -1.512584  y = -1.961492  z =  2.841066 angstrom
           Maximum rank =  0   Radius =  0.650 angstrom
                   Q00  =  -0.360132

S          x = -0.374584  y = -3.359492  z =  2.833066 angstrom
           Maximum rank =  0   Radius =  0.650 angstrom
                   Q00  =   0.119530

H          x =  1.394416  y = -2.204492  z =  1.725066 angstrom
           Maximum rank =  0   Radius =  0.325 angstrom
                   Q00  =   0.086542

H          x =  1.195416  y = -3.844492  z =  1.102066 angstrom
           Maximum rank =  0   Radius =  0.325 angstrom
                   Q00  =   0.117751

H          x =  0.057416  y = -2.576492  z =  0.603066 angstrom
           Maximum rank =  0   Radius =  0.325 angstrom
                   Q00  =   0.091327

H          x = -2.208584  y = -2.074492  z =  3.671066 angstrom
           Maximum rank =  0   Radius =  0.325 angstrom
                   Q00  =   0.121014

H          x = -2.088584  y = -1.985492  z =  1.916066 angstrom
           Maximum rank =  0   Radius =  0.325 angstrom
                   Q00  =   0.086604

H          x = -1.008886  y = -0.985852  z =  2.907456 angstrom
           Maximum rank =  0   Radius =  0.325 angstrom
                   Q00  =   0.087723

C          x =  1.866416  y = -0.185492  z = -0.357934 angstrom
           Maximum rank =  0   Radius =  0.650 angstrom
                   Q00  =  -0.017002

C          x =  3.313416  y =  0.266508  z = -0.579934 angstrom
           Maximum rank =  0   Radius =  0.650 angstrom
                   Q00  =  -0.233726

C          x =  0.803416  y =  0.751508  z = -0.878934 angstrom
           Maximum rank =  0   Radius =  0.650 angstrom
                   Q00  =  -0.154942

C          x =  0.308416  y =  1.770508  z = -0.072934 angstrom
           Maximum rank =  0   Radius =  0.650 angstrom
                   Q00  =   0.024392

C          x =  0.273416  y =  0.588508  z = -2.157934 angstrom
           Maximum rank =  0   Radius =  0.650 angstrom
                   Q00  =  -0.012091

C          x = -0.672584  y =  2.633508  z = -0.541934 angstrom
           Maximum rank =  0   Radius =  0.650 angstrom
                   Q00  =  -0.183079

C          x = -0.712584  y =  1.447508  z = -2.634934 angstrom
           Maximum rank =  0   Radius =  0.650 angstrom
                   Q00  =  -0.121868

C          x = -1.185584  y =  2.468508  z = -1.822934 angstrom
           Maximum rank =  0   Radius =  0.650 angstrom
                   Q00  =   0.318993

O          x = -2.149584  y =  3.318508  z = -2.263934 angstrom
           Maximum rank =  0   Radius =  0.650 angstrom
                   Q00  =  -0.674189

H          x =  1.724416  y = -1.170492  z = -0.808934 angstrom
           Maximum rank =  0   Radius =  0.325 angstrom
                   Q00  =   0.060772

H          x =  1.714416  y = -0.287492  z =  0.715066 angstrom
           Maximum rank =  0   Radius =  0.325 angstrom
                   Q00  =   0.055255

H          x =  3.442416  y =  1.258508  z = -0.156934 angstrom
           Maximum rank =  0   Radius =  0.325 angstrom
                   Q00  =   0.084125

H          x =  0.689416  y =  1.897508  z =  0.930066 angstrom
           Maximum rank =  0   Radius =  0.325 angstrom
                   Q00  =   0.066477

H          x =  0.639416  y = -0.208492  z = -2.792934 angstrom
           Maximum rank =  0   Radius =  0.325 angstrom
                   Q00  =   0.062643

H          x = -1.039584  y =  3.426508  z =  0.094066 angstrom
           Maximum rank =  0   Radius =  0.325 angstrom
                   Q00  =   0.070890

H          x = -1.124584  y =  1.323508  z = -3.624934 angstrom
           Maximum rank =  0   Radius =  0.325 angstrom
                   Q00  =   0.081736

H          x = -2.346584  y =  4.008508  z = -1.625934 angstrom
           Maximum rank =  0   Radius =  0.325 angstrom
                   Q00  =   0.406898

H          x =  3.559086  y =  0.284538  z = -1.651994 angstrom
           Maximum rank =  0   Radius =  0.325 angstrom
                   Q00  =   0.084433

H          x =  3.962146  y = -0.439612  z = -0.040904 angstrom
           Maximum rank =  0   Radius =  0.325 angstrom
                   Q00  =   0.079607

Total multipoles referred to origin at
           x =   0.000000,  y =    0.000000,  z =    0.000000 angstrom
                   Q00  =  -0.000000

Finished at 1:48:15 on 27 Apr 2020

  DMA results are available in the Python driver through the
	  variable('DMA DISTRIBUTED MULTIPOLES')
  and
	  variable('DMA TOTAL MULTIPOLES')
  commands.

    Psi4 stopped on: Monday, 27 April 2020 01:48AM
    Psi4 wall time for execution: 0:04:09.13

*** Psi4 exiting successfully. Buy a developer a beer!
