                               Psi4 1.3.2 release

  ==> Input File <==

--------------------------------------------------------------------------
import numpy as np
set {scf_type pk
basis cc-pvdz
d_convergence 10
gdma_switch   0
gdma_limit    0
gdma_origin   [ 0.0,  0.0,  0.0 ]
}
molecule test {
    units Angstrom
    0 1
    --
    0 1
    C                0.189852388183254    -2.087761890376286     2.988192588109806
    C               -0.108147611816746    -0.901761890376286     2.080192588109806
    O                0.689852388183254     0.050238109623714     1.972192588109806
    N               -1.322147611816746    -0.914761890376286     1.489192588109806
    H               -0.549147611816746    -2.873761890376286     2.829192588109807
    H                0.065852388183254    -1.752761890376286     4.019192588109807
    H               -1.566147611816746    -0.135761890376286     0.893192588109806
    H               -1.981147611816746    -1.656761890376287     1.669192588109806
    H                1.201862388183254    -2.505351890376287     2.881192588109806
    C                0.942852388183254     0.155238109623714    -1.117807411890194
    C                1.353852388183254    -0.549761890376286    -2.380807411890194
    C               -0.293147611816746     2.100238109623714    -2.473807411890193
    S               -0.658147611816746     0.978238109623713    -1.137807411890194
    H                0.929852388183254    -0.597761890376286    -0.337807411890194
    H                1.695852388183254     0.900238109623714    -0.855807411890194
    H                1.274852388183254     0.102238109623714    -3.243807411890193
    H                0.681852388183254    -1.382761890376286    -2.516807411890194
    H               -0.911147611816746     1.838238109623714    -3.327807411890193
    H               -0.509147611816746     3.087238109623714    -2.082807411890194
    H                0.760852388183254     2.088238109623714    -2.745807411890194
    H                2.377792388183254    -0.945921890376286    -2.312977411890194

}
e, wfn = energy('scf', return_wfn=True)
gdma(wfn)
dmavals = variable('DMA DISTRIBUTED MULTIPOLES')
charges = np.array(dmavals)
print(charges)
np.save('SSI-030GLN-036MET-1-dimer.npy', np.array(charges))--------------------------------------------------------------------------

*** tstart() called on ds3
*** at Mon Apr 27 21:15:54 2020

   => Loading Basis Set <=

    Name: CC-PVDZ
    Role: ORBITAL
    Keyword: BASIS
    atoms 1-2, 10-12 entry C          line   138 file /theoryfs2/ds/metcalf/miniconda2/envs/tf2gpu/share/psi4/basis/cc-pvdz.gbs
    atoms 3          entry O          line   198 file /theoryfs2/ds/metcalf/miniconda2/envs/tf2gpu/share/psi4/basis/cc-pvdz.gbs
    atoms 4          entry N          line   168 file /theoryfs2/ds/metcalf/miniconda2/envs/tf2gpu/share/psi4/basis/cc-pvdz.gbs
    atoms 5-9, 14-21 entry H          line    22 file /theoryfs2/ds/metcalf/miniconda2/envs/tf2gpu/share/psi4/basis/cc-pvdz.gbs
    atoms 13         entry S          line   598 file /theoryfs2/ds/metcalf/miniconda2/envs/tf2gpu/share/psi4/basis/cc-pvdz.gbs

         ---------------------------------------------------------
                                   SCF
               by Justin Turney, Rob Parrish, Andy Simmonett
                          and Daniel G. A. Smith
                              RHF Reference
                        1 Threads,    500 MiB Core
         ---------------------------------------------------------

  ==> Geometry <==

    Molecular point group: c1
    Full point group: C1

    Geometry (in Angstrom), charge = 0, multiplicity = 1:

       Center              X                  Y                   Z               Mass
    ------------   -----------------  -----------------  -----------------  -----------------
         C            0.189852388183    -2.087761890376     2.988192588110    12.000000000000
         C           -0.108147611817    -0.901761890376     2.080192588110    12.000000000000
         O            0.689852388183     0.050238109624     1.972192588110    15.994914619570
         N           -1.322147611817    -0.914761890376     1.489192588110    14.003074004430
         H           -0.549147611817    -2.873761890376     2.829192588110     1.007825032230
         H            0.065852388183    -1.752761890376     4.019192588110     1.007825032230
         H           -1.566147611817    -0.135761890376     0.893192588110     1.007825032230
         H           -1.981147611817    -1.656761890376     1.669192588110     1.007825032230
         H            1.201862388183    -2.505351890376     2.881192588110     1.007825032230
         C            0.942852388183     0.155238109624    -1.117807411890    12.000000000000
         C            1.353852388183    -0.549761890376    -2.380807411890    12.000000000000
         C           -0.293147611817     2.100238109624    -2.473807411890    12.000000000000
         S           -0.658147611817     0.978238109624    -1.137807411890    31.972071174400
         H            0.929852388183    -0.597761890376    -0.337807411890     1.007825032230
         H            1.695852388183     0.900238109624    -0.855807411890     1.007825032230
         H            1.274852388183     0.102238109624    -3.243807411890     1.007825032230
         H            0.681852388183    -1.382761890376    -2.516807411890     1.007825032230
         H           -0.911147611817     1.838238109624    -3.327807411890     1.007825032230
         H           -0.509147611817     3.087238109624    -2.082807411890     1.007825032230
         H            0.760852388183     2.088238109624    -2.745807411890     1.007825032230
         H            2.377792388183    -0.945921890376    -2.312977411890     1.007825032230

  Running in c1 symmetry.

  Rotational constants: A =      0.09403  B =      0.02374  C =      0.02145 [cm^-1]
  Rotational constants: A =   2818.85070  B =    711.67425  C =    642.90847 [MHz]
  Nuclear repulsion =  459.521550859257616

  Charge       = 0
  Multiplicity = 1
  Electrons    = 74
  Nalpha       = 37
  Nbeta        = 37

  ==> Algorithm <==

  SCF Algorithm Type is PK.
  DIIS enabled.
  MOM disabled.
  Fractional occupation disabled.
  Guess Type is SAD.
  Energy threshold   = 1.00e-06
  Density threshold  = 1.00e-10
  Integral threshold = 0.00e+00

  ==> Primary Basis <==

  Basis Set: CC-PVDZ
    Blend: CC-PVDZ
    Number of shells: 89
    Number of basis function: 181
    Number of Cartesian functions: 189
    Spherical Harmonics?: true
    Max angular momentum: 2

  ==> Pre-Iterations <==

   -------------------------------------------------------
    Irrep   Nso     Nmo     Nalpha   Nbeta   Ndocc  Nsocc
   -------------------------------------------------------
     A        181     181       0       0       0       0
   -------------------------------------------------------
    Total     181     181      37      37      37       0
   -------------------------------------------------------

  ==> Integral Setup <==

  Using integral reordering PK algorithm.
  Sizing the integral batches needed.
  Building batch lookup table.
   Calculation information:
      Number of atoms:                  21
      Number of AO shells:              89
      Number of primitives:            269
      Number of atomic orbitals:       189
      Number of basis functions:       181

      Integral cutoff                 1.00e-12
      Number of threads:                 1

	Batch   1 pq = [       0,    9405] index = [             0,44231715] size =     44231715
	Batch   2 pq = [    9405,   13301] index = [      44231715,88464951] size =     44233236
	Batch   3 pq = [   13301,   16471] index = [      88464951,135655156] size =     47190205
  Task number: 13
  Buffer size: 11059200
  Buffer per thread: 2
  We computed 6613591 shell quartets total.
  Whereas there are 8022015 unique shell quartets.

  ==> DiskJK: Disk-Based J/K Matrices <==

    J tasked:                  Yes
    K tasked:                  Yes
    wK tasked:                  No
    Memory [MiB]:              375
    Schwarz Cutoff:          1E-12

    OpenMP threads:              1

  Minimum eigenvalue in the overlap matrix is 4.4990579269E-03.
  Using Symmetric Orthogonalization.

  SCF Guess: Superposition of Atomic Densities via on-the-fly atomic UHF.

  ==> Iterations <==

                        Total Energy        Delta E     RMS |[F,P]|

   @RHF iter SAD:  -722.58973289405299   -7.22590e+02   0.00000e+00
   @RHF iter   1:  -723.52294386836127   -9.33211e-01   3.64690e-03 DIIS
   @RHF iter   2:  -723.71509071812886   -1.92147e-01   2.04564e-03 DIIS
   @RHF iter   3:  -723.76825127245127   -5.31606e-02   4.69353e-04 DIIS
   @RHF iter   4:  -723.77255140567161   -4.30013e-03   1.75546e-04 DIIS
   @RHF iter   5:  -723.77320038722166   -6.48982e-04   3.11944e-05 DIIS
   @RHF iter   6:  -723.77323610987332   -3.57227e-05   1.35063e-05 DIIS
   @RHF iter   7:  -723.77324268190819   -6.57203e-06   5.05834e-06 DIIS
   @RHF iter   8:  -723.77324398217127   -1.30026e-06   1.90042e-06 DIIS
   @RHF iter   9:  -723.77324416661759   -1.84446e-07   5.14634e-07 DIIS
   @RHF iter  10:  -723.77324417824093   -1.16233e-08   1.78764e-07 DIIS
   @RHF iter  11:  -723.77324417948591   -1.24498e-09   5.11562e-08 DIIS
   @RHF iter  12:  -723.77324417958812   -1.02204e-10   1.36971e-08 DIIS
   @RHF iter  13:  -723.77324417959471   -6.59384e-12   3.58581e-09 DIIS
   @RHF iter  14:  -723.77324417959380    9.09495e-13   1.30610e-09 DIIS
   @RHF iter  15:  -723.77324417959517   -1.36424e-12   4.42204e-10 DIIS
   @RHF iter  16:  -723.77324417959312    2.04636e-12   1.85530e-10 DIIS
   @RHF iter  17:  -723.77324417959767   -4.54747e-12   9.18772e-11 DIIS
  Energy and wave function converged.

  ==> Post-Iterations <==

    Orbital Energies [Eh]
    ---------------------

    Doubly Occupied:

       1A    -91.926167     2A    -20.504163     3A    -15.584929
       4A    -11.352507     5A    -11.246297     6A    -11.244090
       7A    -11.237868     8A    -11.216321     9A     -8.931430
      10A     -6.613552    11A     -6.612023    12A     -6.609751
      13A     -1.353439    14A     -1.206969    15A     -1.081114
      16A     -0.997902    17A     -0.992827    18A     -0.880073
      19A     -0.793354    20A     -0.773958    21A     -0.721756
      22A     -0.649802    23A     -0.634042    24A     -0.604958
      25A     -0.603454    26A     -0.583532    27A     -0.568549
      28A     -0.557653    29A     -0.545984    30A     -0.527947
      31A     -0.510540    32A     -0.497600    33A     -0.461901
      34A     -0.426285    35A     -0.407171    36A     -0.397663
      37A     -0.323952

    Virtual:

      38A      0.165559    39A      0.180302    40A      0.191834
      41A      0.207843    42A      0.218643    43A      0.235127
      44A      0.241505    45A      0.245816    46A      0.250959
      47A      0.264944    48A      0.269456    49A      0.277057
      50A      0.283432    51A      0.314291    52A      0.336084
      53A      0.342590    54A      0.386744    55A      0.402708
      56A      0.471186    57A      0.552385    58A      0.571270
      59A      0.588890    60A      0.602311    61A      0.607961
      62A      0.619910    63A      0.630390    64A      0.655141
      65A      0.668220    66A      0.687836    67A      0.708206
      68A      0.721261    69A      0.729730    70A      0.753199
      71A      0.766097    72A      0.776731    73A      0.821576
      74A      0.835589    75A      0.845855    76A      0.855455
      77A      0.861592    78A      0.870800    79A      0.879696
      80A      0.886296    81A      0.889792    82A      0.895639
      83A      0.904272    84A      0.907963    85A      0.918845
      86A      0.931219    87A      0.945373    88A      0.965211
      89A      0.979112    90A      0.986931    91A      0.992946
      92A      1.013649    93A      1.042871    94A      1.060146
      95A      1.090478    96A      1.144156    97A      1.159436
      98A      1.191934    99A      1.249682   100A      1.273869
     101A      1.317587   102A      1.341709   103A      1.367559
     104A      1.386264   105A      1.397301   106A      1.412767
     107A      1.422308   108A      1.434579   109A      1.443139
     110A      1.453261   111A      1.489573   112A      1.552605
     113A      1.585604   114A      1.629262   115A      1.654666
     116A      1.665204   117A      1.672105   118A      1.686818
     119A      1.706419   120A      1.737900   121A      1.840816
     122A      1.863638   123A      1.866335   124A      1.872979
     125A      1.874475   126A      1.896015   127A      1.901661
     128A      1.912062   129A      1.924743   130A      1.939762
     131A      1.948685   132A      1.953046   133A      1.971366
     134A      1.982200   135A      1.992361   136A      2.027594
     137A      2.031101   138A      2.044270   139A      2.055026
     140A      2.070900   141A      2.084809   142A      2.104411
     143A      2.141997   144A      2.178113   145A      2.222181
     146A      2.245142   147A      2.246398   148A      2.296389
     149A      2.337115   150A      2.347545   151A      2.429960
     152A      2.441596   153A      2.446776   154A      2.458194
     155A      2.490623   156A      2.505716   157A      2.531152
     158A      2.582419   159A      2.592024   160A      2.603191
     161A      2.643776   162A      2.729041   163A      2.763020
     164A      2.777642   165A      2.784824   166A      2.799012
     167A      2.806112   168A      2.817965   169A      2.845323
     170A      2.854072   171A      2.865851   172A      2.910941
     173A      2.959778   174A      3.032054   175A      3.098895
     176A      3.130844   177A      3.295071   178A      3.474282
     179A      3.530976   180A      3.828237   181A      3.894147

    Final Occupation by Irrep:
              A
    DOCC [    37 ]

  @RHF Final Energy:  -723.77324417959767

   => Energetics <=

    Nuclear Repulsion Energy =            459.5215508592576157
    One-Electron Energy =               -1906.2265443643882463
    Two-Electron Energy =                 722.9317493255330191
    Total Energy =                       -723.7732441795976683

Computation Completed

Properties will be evaluated at   0.000000,   0.000000,   0.000000 [a0]

Properties computed using the SCF density matrix

  Nuclear Dipole Moment: [e a0]
     X:     3.2447      Y:    -3.5662      Z:    -4.8357

  Electronic Dipole Moment: [e a0]
     X:    -3.8874      Y:     2.5665      Z:     4.5919

  Dipole Moment: [e a0]
     X:    -0.6427      Y:    -0.9996      Z:    -0.2437     Total:     1.2131

  Dipole Moment: [D]
     X:    -1.6335      Y:    -2.5408      Z:    -0.6195     Total:     3.0834

*** tstop() called on ds3 at Mon Apr 27 21:17:29 2020
Module time:
	user time   =      55.11 seconds =       0.92 minutes
	system time =      20.98 seconds =       0.35 minutes
	total time  =         95 seconds =       1.58 minutes
Total time:
	user time   =      55.11 seconds =       0.92 minutes
	system time =      20.98 seconds =       0.35 minutes
	total time  =         95 seconds =       1.58 minutes
                                     G D M A

                                 by Anthony Stone

                           version 2.2.06, 22 June 2011

               Distributed Multipoles from Gaussian wavefunctions

Starting at 21:17:29 on 27 Apr 2020

Using SCF density matrix from file ./SSI/SSI-030GLN-036MET-1-dimer.test.29865.fchk

                         Distributed Multipole Analysis

Standard DMA

Positions and radii in angstrom
Multipole moments in atomic units, ea_0^k for rank k

C          x =  0.189852  y = -2.087762  z =  2.988193 angstrom
           Maximum rank =  0   Radius =  0.650 angstrom
                   Q00  =  -0.257274

C          x = -0.108148  y = -0.901762  z =  2.080193 angstrom
           Maximum rank =  0   Radius =  0.650 angstrom
                   Q00  =   0.781991

O          x =  0.689852  y =  0.050238  z =  1.972193 angstrom
           Maximum rank =  0   Radius =  0.650 angstrom
                   Q00  =  -0.767842

N          x = -1.322148  y = -0.914762  z =  1.489193 angstrom
           Maximum rank =  0   Radius =  0.650 angstrom
                   Q00  =  -0.522828

H          x = -0.549148  y = -2.873762  z =  2.829193 angstrom
           Maximum rank =  0   Radius =  0.325 angstrom
                   Q00  =   0.071394

H          x =  0.065852  y = -1.752762  z =  4.019193 angstrom
           Maximum rank =  0   Radius =  0.325 angstrom
                   Q00  =   0.135079

H          x = -1.566148  y = -0.135762  z =  0.893193 angstrom
           Maximum rank =  0   Radius =  0.325 angstrom
                   Q00  =   0.243635

H          x = -1.981148  y = -1.656762  z =  1.669193 angstrom
           Maximum rank =  0   Radius =  0.325 angstrom
                   Q00  =   0.208838

H          x =  1.201862  y = -2.505352  z =  2.881193 angstrom
           Maximum rank =  0   Radius =  0.325 angstrom
                   Q00  =   0.130636

C          x =  0.942852  y =  0.155238  z = -1.117807 angstrom
           Maximum rank =  0   Radius =  0.650 angstrom
                   Q00  =  -0.179762

C          x =  1.353852  y = -0.549762  z = -2.380807 angstrom
           Maximum rank =  0   Radius =  0.650 angstrom
                   Q00  =  -0.236841

C          x = -0.293148  y =  2.100238  z = -2.473807 angstrom
           Maximum rank =  0   Radius =  0.650 angstrom
                   Q00  =  -0.341108

S          x = -0.658148  y =  0.978238  z = -1.137807 angstrom
           Maximum rank =  0   Radius =  0.650 angstrom
                   Q00  =   0.046953

H          x =  0.929852  y = -0.597762  z = -0.337807 angstrom
           Maximum rank =  0   Radius =  0.325 angstrom
                   Q00  =   0.088237

H          x =  1.695852  y =  0.900238  z = -0.855807 angstrom
           Maximum rank =  0   Radius =  0.325 angstrom
                   Q00  =   0.055871

H          x =  1.274852  y =  0.102238  z = -3.243807 angstrom
           Maximum rank =  0   Radius =  0.325 angstrom
                   Q00  =   0.075168

H          x =  0.681852  y = -1.382762  z = -2.516807 angstrom
           Maximum rank =  0   Radius =  0.325 angstrom
                   Q00  =   0.078145

H          x = -0.911148  y =  1.838238  z = -3.327807 angstrom
           Maximum rank =  0   Radius =  0.325 angstrom
                   Q00  =   0.096034

H          x = -0.509148  y =  3.087238  z = -2.082807 angstrom
           Maximum rank =  0   Radius =  0.325 angstrom
                   Q00  =   0.102534

H          x =  0.760852  y =  2.088238  z = -2.745807 angstrom
           Maximum rank =  0   Radius =  0.325 angstrom
                   Q00  =   0.103078

H          x =  2.377792  y = -0.945922  z = -2.312977 angstrom
           Maximum rank =  0   Radius =  0.325 angstrom
                   Q00  =   0.088064

Total multipoles referred to origin at
           x =   0.000000,  y =    0.000000,  z =    0.000000 angstrom
                   Q00  =  -0.000000

Finished at 21:17:29 on 27 Apr 2020

  DMA results are available in the Python driver through the
	  variable('DMA DISTRIBUTED MULTIPOLES')
  and
	  variable('DMA TOTAL MULTIPOLES')
  commands.

    Psi4 stopped on: Monday, 27 April 2020 09:17PM
    Psi4 wall time for execution: 0:01:35.45

*** Psi4 exiting successfully. Buy a developer a beer!
