                               Psi4 1.3.2 release

  ==> Input File <==

--------------------------------------------------------------------------
import numpy as np
set {scf_type pk
basis cc-pvdz
d_convergence 10
gdma_switch   0
gdma_limit    0
gdma_origin   [ 0.0,  0.0,  0.0 ]
}
molecule test {
    units Angstrom
    -1 1
    --
    -1 1
    C                2.921151150587216    -0.260575128876030    -2.370008930810880
    C                1.209151150587216    -0.730575128876030    -0.549008930810880
    C               -0.179848849412784     0.997424871123970    -0.656008930810880
    C                1.710151150587216     0.044424871123970    -1.528008930810880
    C                0.841151150587216     1.171424871123970    -1.626008930810880
    C               -1.180848849412784     1.929424871123970    -0.457008930810880
    C               -1.167848849412784     3.059424871123969    -1.290008930810880
    C                0.827151150587216     2.302424871123970    -2.441008930810880
    C               -0.153848849412784     3.251424871123969    -2.229008930810880
    N                0.092151150587216    -0.175575128876030    -0.024008930810880
    H               -0.387848849412784    -0.573575128876030     0.788991069189120
    H                1.648151150587216    -1.664575128876030    -0.217008930810880
    H               -1.945848849412784     1.779424871123970     0.290991069189120
    H                2.687151150587216     0.028424871123970    -3.389008930810880
    H                3.072151150587217    -1.339575128876030    -2.373008930810879
    H               -1.943848849412783     3.806424871123970    -1.184008930810880
    H                1.574151150587216     2.442424871123969    -3.208008930810879
    H               -0.181848849412784     4.124424871123970    -2.854008930810880
    H                3.867231150587216     0.199173871123970    -2.048184930810879
    C               -0.870848849412784    -3.125575128876031     4.107991069189120
    C               -1.144848849412784    -2.459575128876030     2.841991069189120
    O               -0.325848849412784    -1.635575128876030     2.381991069189120
    O               -2.237848849412784    -2.771575128876031     2.351991069189120
    H                0.173151150587216    -3.063575128876030     4.338991069189121
    H               -1.056848849412784    -4.194575128876030     3.961991069189120
    H               -1.564458849412784    -2.740562128876030     4.870011069189120

}
e, wfn = energy('scf', return_wfn=True)
gdma(wfn)
dmavals = variable('DMA DISTRIBUTED MULTIPOLES')
charges = np.array(dmavals)
print(charges)
np.save('SSI-136TRP-165ASP-1-dimer.npy', np.array(charges))--------------------------------------------------------------------------

*** tstart() called on ds3
*** at Mon Apr 27 23:03:11 2020

   => Loading Basis Set <=

    Name: CC-PVDZ
    Role: ORBITAL
    Keyword: BASIS
    atoms 1-9, 20-21   entry C          line   138 file /theoryfs2/ds/metcalf/miniconda2/envs/tf2gpu/share/psi4/basis/cc-pvdz.gbs
    atoms 10           entry N          line   168 file /theoryfs2/ds/metcalf/miniconda2/envs/tf2gpu/share/psi4/basis/cc-pvdz.gbs
    atoms 11-19, 24-26 entry H          line    22 file /theoryfs2/ds/metcalf/miniconda2/envs/tf2gpu/share/psi4/basis/cc-pvdz.gbs
    atoms 22-23        entry O          line   198 file /theoryfs2/ds/metcalf/miniconda2/envs/tf2gpu/share/psi4/basis/cc-pvdz.gbs

         ---------------------------------------------------------
                                   SCF
               by Justin Turney, Rob Parrish, Andy Simmonett
                          and Daniel G. A. Smith
                              RHF Reference
                        1 Threads,    500 MiB Core
         ---------------------------------------------------------

  ==> Geometry <==

    Molecular point group: c1
    Full point group: C1

    Geometry (in Angstrom), charge = -1, multiplicity = 1:

       Center              X                  Y                   Z               Mass
    ------------   -----------------  -----------------  -----------------  -----------------
         C            2.921151150587    -0.260575128876    -2.370008930811    12.000000000000
         C            1.209151150587    -0.730575128876    -0.549008930811    12.000000000000
         C           -0.179848849413     0.997424871124    -0.656008930811    12.000000000000
         C            1.710151150587     0.044424871124    -1.528008930811    12.000000000000
         C            0.841151150587     1.171424871124    -1.626008930811    12.000000000000
         C           -1.180848849413     1.929424871124    -0.457008930811    12.000000000000
         C           -1.167848849413     3.059424871124    -1.290008930811    12.000000000000
         C            0.827151150587     2.302424871124    -2.441008930811    12.000000000000
         C           -0.153848849413     3.251424871124    -2.229008930811    12.000000000000
         N            0.092151150587    -0.175575128876    -0.024008930811    14.003074004430
         H           -0.387848849413    -0.573575128876     0.788991069189     1.007825032230
         H            1.648151150587    -1.664575128876    -0.217008930811     1.007825032230
         H           -1.945848849413     1.779424871124     0.290991069189     1.007825032230
         H            2.687151150587     0.028424871124    -3.389008930811     1.007825032230
         H            3.072151150587    -1.339575128876    -2.373008930811     1.007825032230
         H           -1.943848849413     3.806424871124    -1.184008930811     1.007825032230
         H            1.574151150587     2.442424871124    -3.208008930811     1.007825032230
         H           -0.181848849413     4.124424871124    -2.854008930811     1.007825032230
         H            3.867231150587     0.199173871124    -2.048184930811     1.007825032230
         C           -0.870848849413    -3.125575128876     4.107991069189    12.000000000000
         C           -1.144848849413    -2.459575128876     2.841991069189    12.000000000000
         O           -0.325848849413    -1.635575128876     2.381991069189    15.994914619570
         O           -2.237848849413    -2.771575128876     2.351991069189    15.994914619570
         H            0.173151150587    -3.063575128876     4.338991069189     1.007825032230
         H           -1.056848849413    -4.194575128876     3.961991069189     1.007825032230
         H           -1.564458849413    -2.740562128876     4.870011069189     1.007825032230

  Running in c1 symmetry.

  Rotational constants: A =      0.04024  B =      0.01013  C =      0.00836 [cm^-1]
  Rotational constants: A =   1206.32916  B =    303.59094  C =    250.72800 [MHz]
  Nuclear repulsion =  801.587764435952977

  Charge       = -1
  Multiplicity = 1
  Electrons    = 102
  Nalpha       = 51
  Nbeta        = 51

  ==> Algorithm <==

  SCF Algorithm Type is PK.
  DIIS enabled.
  MOM disabled.
  Fractional occupation disabled.
  Guess Type is SAD.
  Energy threshold   = 1.00e-06
  Density threshold  = 1.00e-10
  Integral threshold = 0.00e+00

  ==> Primary Basis <==

  Basis Set: CC-PVDZ
    Blend: CC-PVDZ
    Number of shells: 120
    Number of basis function: 256
    Number of Cartesian functions: 270
    Spherical Harmonics?: true
    Max angular momentum: 2

  ==> Pre-Iterations <==

   -------------------------------------------------------
    Irrep   Nso     Nmo     Nalpha   Nbeta   Ndocc  Nsocc
   -------------------------------------------------------
     A        256     256       0       0       0       0
   -------------------------------------------------------
    Total     256     256      51      51      51       0
   -------------------------------------------------------

  ==> Integral Setup <==

  Using integral reordering PK algorithm.
  Sizing the integral batches needed.
  Building batch lookup table.
   Calculation information:
      Number of atoms:                  26
      Number of AO shells:             120
      Number of primitives:            368
      Number of atomic orbitals:       270
      Number of basis functions:       256

      Integral cutoff                 1.00e-12
      Number of threads:                 1

	Batch   1 pq = [       0,    9405] index = [             0,44231715] size =     44231715
	Batch   2 pq = [    9405,   13301] index = [      44231715,88464951] size =     44233236
	Batch   3 pq = [   13301,   16290] index = [      88464951,132690195] size =     44225244
	Batch   4 pq = [   16290,   18810] index = [     132690195,176917455] size =     44227260
	Batch   5 pq = [   18810,   21030] index = [     176917455,221140965] size =     44223510
	Batch   6 pq = [   21030,   23037] index = [     221140965,265363203] size =     44222238
	Batch   7 pq = [   23037,   24883] index = [     265363203,309594286] size =     44231083
	Batch   8 pq = [   24883,   26601] index = [     309594286,353819901] size =     44225615
	Batch   9 pq = [   26601,   28214] index = [     353819901,398029005] size =     44209104
	Batch  10 pq = [   28214,   29740] index = [     398029005,442248670] size =     44219665
	Batch  11 pq = [   29740,   31191] index = [     442248670,486454836] size =     44206166
	Batch  12 pq = [   31191,   32578] index = [     486454836,530679331] size =     44224495
	Batch  13 pq = [   32578,   32896] index = [     530679331,541089856] size =     10410525
  Task number: 49
  Buffer size: 11059200
  Buffer per thread: 2
  We computed 20292961 shell quartets total.
  Whereas there are 26357430 unique shell quartets.

  ==> DiskJK: Disk-Based J/K Matrices <==

    J tasked:                  Yes
    K tasked:                  Yes
    wK tasked:                  No
    Memory [MiB]:              375
    Schwarz Cutoff:          1E-12

    OpenMP threads:              1

  Minimum eigenvalue in the overlap matrix is 2.3854829338E-04.
  Using Symmetric Orthogonalization.

  SCF Guess: Superposition of Atomic Densities via on-the-fly atomic UHF.

  ==> Iterations <==

                        Total Energy        Delta E     RMS |[F,P]|

   @RHF iter SAD:  -626.86552863021609   -6.26866e+02   0.00000e+00
   @RHF iter   1:  -627.44045787995924   -5.74929e-01   3.15953e-03 DIIS
   @RHF iter   2:  -627.73307265296876   -2.92615e-01   1.61916e-03 DIIS
   @RHF iter   3:  -627.80088097967064   -6.78083e-02   3.03133e-04 DIIS
   @RHF iter   4:  -627.80483689322932   -3.95591e-03   1.16024e-04 DIIS
   @RHF iter   5:  -627.80537596188083   -5.39069e-04   2.08154e-05 DIIS
   @RHF iter   6:  -627.80540048212447   -2.45202e-05   1.06240e-05 DIIS
   @RHF iter   7:  -627.80540617776865   -5.69564e-06   2.90819e-06 DIIS
   @RHF iter   8:  -627.80540725035826   -1.07259e-06   1.18208e-06 DIIS
   @RHF iter   9:  -627.80540744830796   -1.97950e-07   4.80091e-07 DIIS
   @RHF iter  10:  -627.80540747847840   -3.01704e-08   1.86927e-07 DIIS
   @RHF iter  11:  -627.80540748513977   -6.66137e-09   7.85022e-08 DIIS
   @RHF iter  12:  -627.80540748621615   -1.07639e-09   3.97118e-08 DIIS
   @RHF iter  13:  -627.80540748651197   -2.95813e-10   1.48506e-08 DIIS
   @RHF iter  14:  -627.80540748654585   -3.38787e-11   4.05430e-09 DIIS
   @RHF iter  15:  -627.80540748654414    1.70530e-12   1.52187e-09 DIIS
   @RHF iter  16:  -627.80540748654539   -1.25056e-12   7.32220e-10 DIIS
   @RHF iter  17:  -627.80540748654664   -1.25056e-12   3.61812e-10 DIIS
   @RHF iter  18:  -627.80540748654983   -3.18323e-12   1.47082e-10 DIIS
   @RHF iter  19:  -627.80540748654653    3.29692e-12   7.45890e-11 DIIS
  Energy and wave function converged.

  ==> Post-Iterations <==

    Orbital Energies [Eh]
    ---------------------

    Doubly Occupied:

       1A    -20.299135     2A    -20.280599     3A    -15.459131
       4A    -11.145738     5A    -11.142345     6A    -11.135556
       7A    -11.131890     8A    -11.127166     9A    -11.126215
      10A    -11.124433    11A    -11.119387    12A    -11.110194
      13A    -11.096626    14A    -11.057732    15A     -1.185718
      16A     -1.176457    17A     -1.076145    18A     -1.023061
      19A     -0.962672    20A     -0.893483    21A     -0.880411
      22A     -0.826084    23A     -0.822919    24A     -0.731391
      25A     -0.693936    26A     -0.642748    27A     -0.601183
      28A     -0.553886    29A     -0.535786    30A     -0.528365
      31A     -0.498038    32A     -0.486198    33A     -0.481058
      34A     -0.458586    35A     -0.448719    36A     -0.445259
      37A     -0.436670    38A     -0.431504    39A     -0.427509
      40A     -0.422121    41A     -0.390382    42A     -0.369402
      43A     -0.362605    44A     -0.354274    45A     -0.328064
      46A     -0.266223    47A     -0.216848    48A     -0.200836
      49A     -0.196506    50A     -0.185409    51A     -0.162430

    Virtual:

      52A      0.232872    53A      0.275373    54A      0.278782
      55A      0.295247    56A      0.320438    57A      0.327340
      58A      0.338696    59A      0.342830    60A      0.353395
      61A      0.363545    62A      0.377307    63A      0.381031
      64A      0.393101    65A      0.407141    66A      0.455893
      67A      0.471487    68A      0.480929    69A      0.488976
      70A      0.525055    71A      0.543624    72A      0.554184
      73A      0.562482    74A      0.578606    75A      0.592705
      76A      0.614875    77A      0.623689    78A      0.687817
      79A      0.705891    80A      0.725178    81A      0.739578
      82A      0.745453    83A      0.756546    84A      0.780010
      85A      0.791819    86A      0.799268    87A      0.805304
      88A      0.823169    89A      0.829095    90A      0.840133
      91A      0.843232    92A      0.847456    93A      0.849221
      94A      0.854480    95A      0.872334    96A      0.873043
      97A      0.888859    98A      0.903717    99A      0.915628
     100A      0.922982   101A      0.941008   102A      0.952433
     103A      0.961878   104A      0.972471   105A      0.983275
     106A      0.993113   107A      0.999590   108A      1.000726
     109A      1.007240   110A      1.012254   111A      1.019954
     112A      1.023060   113A      1.044025   114A      1.062116
     115A      1.074020   116A      1.076060   117A      1.093092
     118A      1.100067   119A      1.141968   120A      1.163711
     121A      1.187832   122A      1.188737   123A      1.200161
     124A      1.214923   125A      1.236008   126A      1.250668
     127A      1.255364   128A      1.266997   129A      1.274752
     130A      1.317599   131A      1.320935   132A      1.330588
     133A      1.336942   134A      1.342138   135A      1.356417
     136A      1.360991   137A      1.379728   138A      1.401307
     139A      1.417571   140A      1.435361   141A      1.443216
     142A      1.448858   143A      1.473578   144A      1.490513
     145A      1.508221   146A      1.530797   147A      1.554561
     148A      1.561248   149A      1.577249   150A      1.625569
     151A      1.631604   152A      1.641303   153A      1.669047
     154A      1.690851   155A      1.714098   156A      1.726722
     157A      1.741932   158A      1.755065   159A      1.766893
     160A      1.786681   161A      1.794711   162A      1.811990
     163A      1.826677   164A      1.857425   165A      1.863956
     166A      1.869760   167A      1.892454   168A      1.901686
     169A      1.918624   170A      1.937141   171A      1.953406
     172A      1.990860   173A      2.000585   174A      2.010378
     175A      2.018800   176A      2.022380   177A      2.030551
     178A      2.039207   179A      2.047043   180A      2.048925
     181A      2.056379   182A      2.085207   183A      2.103868
     184A      2.119769   185A      2.130528   186A      2.142026
     187A      2.163694   188A      2.168112   189A      2.186372
     190A      2.193974   191A      2.204200   192A      2.213301
     193A      2.219148   194A      2.239609   195A      2.254503
     196A      2.260467   197A      2.266405   198A      2.276947
     199A      2.284421   200A      2.291732   201A      2.324249
     202A      2.356240   203A      2.365972   204A      2.388555
     205A      2.409481   206A      2.424853   207A      2.438966
     208A      2.442331   209A      2.459420   210A      2.467610
     211A      2.504950   212A      2.527040   213A      2.565584
     214A      2.575868   215A      2.611735   216A      2.675607
     217A      2.687808   218A      2.714987   219A      2.726251
     220A      2.735044   221A      2.745630   222A      2.755981
     223A      2.798067   224A      2.819085   225A      2.835954
     226A      2.870867   227A      2.878755   228A      2.908608
     229A      2.924134   230A      2.935798   231A      2.943347
     232A      2.976248   233A      2.986754   234A      2.997714
     235A      3.034812   236A      3.047976   237A      3.093360
     238A      3.128807   239A      3.184885   240A      3.192833
     241A      3.207685   242A      3.252217   243A      3.257022
     244A      3.272773   245A      3.325726   246A      3.353693
     247A      3.431573   248A      3.539952   249A      3.593373
     250A      3.809067   251A      3.852952   252A      3.899342
     253A      4.047511   254A      4.068424   255A      4.088752
     256A      4.192635

    Final Occupation by Irrep:
              A
    DOCC [    51 ]

  @RHF Final Energy:  -627.80540748654653

   => Energetics <=

    Nuclear Repulsion Energy =            801.5877644359529768
    One-Electron Energy =               -2460.6682742900038647
    Two-Electron Energy =                1031.2751023675043598
    Total Energy =                       -627.8054074865465282

Computation Completed

Properties will be evaluated at   0.000000,   0.000000,   0.000000 [a0]

Properties computed using the SCF density matrix

  Nuclear Dipole Moment: [e a0]
     X:     5.5572      Y:    -1.1420      Z:    -0.9355

  Electronic Dipole Moment: [e a0]
     X:    -3.6500      Y:     3.4543      Z:    -1.5664

  Dipole Moment: [e a0]
     X:     1.9072      Y:     2.3122      Z:    -2.5019     Total:     3.9042

  Dipole Moment: [D]
     X:     4.8475      Y:     5.8771      Z:    -6.3592     Total:     9.9236

*** tstop() called on ds3 at Mon Apr 27 23:08:20 2020
Module time:
	user time   =     213.38 seconds =       3.56 minutes
	system time =     108.79 seconds =       1.81 minutes
	total time  =        309 seconds =       5.15 minutes
Total time:
	user time   =     213.38 seconds =       3.56 minutes
	system time =     108.79 seconds =       1.81 minutes
	total time  =        309 seconds =       5.15 minutes
                                     G D M A

                                 by Anthony Stone

                           version 2.2.06, 22 June 2011

               Distributed Multipoles from Gaussian wavefunctions

Starting at 23:8:20 on 27 Apr 2020

Using SCF density matrix from file ./SSI/SSI-136TRP-165ASP-1-dimer.test.805.fchk

                         Distributed Multipole Analysis

Standard DMA

Positions and radii in angstrom
Multipole moments in atomic units, ea_0^k for rank k

C          x =  2.921151  y = -0.260575  z = -2.370009 angstrom
           Maximum rank =  0   Radius =  0.650 angstrom
                   Q00  =  -0.205566

C          x =  1.209151  y = -0.730575  z = -0.549009 angstrom
           Maximum rank =  0   Radius =  0.650 angstrom
                   Q00  =   0.175690

C          x = -0.179849  y =  0.997425  z = -0.656009 angstrom
           Maximum rank =  0   Radius =  0.650 angstrom
                   Q00  =   0.316716

C          x =  1.710151  y =  0.044425  z = -1.528009 angstrom
           Maximum rank =  0   Radius =  0.650 angstrom
                   Q00  =  -0.205902

C          x =  0.841151  y =  1.171425  z = -1.626009 angstrom
           Maximum rank =  0   Radius =  0.650 angstrom
                   Q00  =  -0.051268

C          x = -1.180849  y =  1.929425  z = -0.457009 angstrom
           Maximum rank =  0   Radius =  0.650 angstrom
                   Q00  =  -0.122933

C          x = -1.167849  y =  3.059425  z = -1.290009 angstrom
           Maximum rank =  0   Radius =  0.650 angstrom
                   Q00  =  -0.094002

C          x =  0.827151  y =  2.302425  z = -2.441009 angstrom
           Maximum rank =  0   Radius =  0.650 angstrom
                   Q00  =  -0.111219

C          x = -0.153849  y =  3.251425  z = -2.229009 angstrom
           Maximum rank =  0   Radius =  0.650 angstrom
                   Q00  =  -0.052471

N          x =  0.092151  y = -0.175575  z = -0.024009 angstrom
           Maximum rank =  0   Radius =  0.650 angstrom
                   Q00  =  -0.513903

H          x = -0.387849  y = -0.573575  z =  0.788991 angstrom
           Maximum rank =  0   Radius =  0.325 angstrom
                   Q00  =   0.282138

H          x =  1.648151  y = -1.664575  z = -0.217009 angstrom
           Maximum rank =  0   Radius =  0.325 angstrom
                   Q00  =   0.083414

H          x = -1.945849  y =  1.779425  z =  0.290991 angstrom
           Maximum rank =  0   Radius =  0.325 angstrom
                   Q00  =   0.086102

H          x =  2.687151  y =  0.028425  z = -3.389009 angstrom
           Maximum rank =  0   Radius =  0.325 angstrom
                   Q00  =   0.085385

H          x =  3.072151  y = -1.339575  z = -2.373009 angstrom
           Maximum rank =  0   Radius =  0.325 angstrom
                   Q00  =   0.092598

H          x = -1.943849  y =  3.806425  z = -1.184009 angstrom
           Maximum rank =  0   Radius =  0.325 angstrom
                   Q00  =   0.040750

H          x =  1.574151  y =  2.442425  z = -3.208009 angstrom
           Maximum rank =  0   Radius =  0.325 angstrom
                   Q00  =   0.045361

H          x = -0.181849  y =  4.124425  z = -2.854009 angstrom
           Maximum rank =  0   Radius =  0.325 angstrom
                   Q00  =   0.029168

H          x =  3.867231  y =  0.199174  z = -2.048185 angstrom
           Maximum rank =  0   Radius =  0.325 angstrom
                   Q00  =   0.077667

C          x = -0.870849  y = -3.125575  z =  4.107991 angstrom
           Maximum rank =  0   Radius =  0.650 angstrom
                   Q00  =  -0.231233

C          x = -1.144849  y = -2.459575  z =  2.841991 angstrom
           Maximum rank =  0   Radius =  0.650 angstrom
                   Q00  =   0.968019

O          x = -0.325849  y = -1.635575  z =  2.381991 angstrom
           Maximum rank =  0   Radius =  0.650 angstrom
                   Q00  =  -0.944565

O          x = -2.237849  y = -2.771575  z =  2.351991 angstrom
           Maximum rank =  0   Radius =  0.650 angstrom
                   Q00  =  -0.919481

H          x =  0.173151  y = -3.063575  z =  4.338991 angstrom
           Maximum rank =  0   Radius =  0.325 angstrom
                   Q00  =   0.032760

H          x = -1.056849  y = -4.194575  z =  3.961991 angstrom
           Maximum rank =  0   Radius =  0.325 angstrom
                   Q00  =   0.063454

H          x = -1.564459  y = -2.740562  z =  4.870011 angstrom
           Maximum rank =  0   Radius =  0.325 angstrom
                   Q00  =   0.073322

Total multipoles referred to origin at
           x =   0.000000,  y =    0.000000,  z =    0.000000 angstrom
                   Q00  =  -1.000000

Finished at 23:8:20 on 27 Apr 2020

  DMA results are available in the Python driver through the
	  variable('DMA DISTRIBUTED MULTIPOLES')
  and
	  variable('DMA TOTAL MULTIPOLES')
  commands.

    Psi4 stopped on: Monday, 27 April 2020 11:08PM
    Psi4 wall time for execution: 0:05:08.71

*** Psi4 exiting successfully. Buy a developer a beer!
