                               Psi4 1.3.2 release

  ==> Input File <==

--------------------------------------------------------------------------
import numpy as np
set {scf_type pk
basis cc-pvdz
d_convergence 10
gdma_switch   0
gdma_limit    0
gdma_origin   [ 0.0,  0.0,  0.0 ]
}
molecule test {
    units Angstrom
    0 1
    --
    0 1
    C               -1.777348091925874     0.224930184408076     0.028564640553646
    C               -3.061348091925874     0.185930184408076     0.847564640553646
    H               -1.121348091925874    -0.585069815591924     0.343564640553646
    H               -2.015348091925874     0.087930184408076    -1.026435359446354
    H               -1.269348091925874     1.180930184408076     0.159564640553646
    H               -3.553348091925874    -0.753069815591924     0.605564640553646
    H               -2.839481591925874     0.174550184408076     1.924897640553646
    H               -3.744739091925874     1.001710184408076     0.569199640553646
    C                1.703651908074126    -0.040069815591924    -0.237435359446354
    C                3.143651908074126    -0.353069815591924    -0.636435359446354
    H                1.610651908074126     0.990930184408076     0.104564640553646
    H                0.999651908074126    -0.249069815591924    -1.038435359446354
    H                1.379651908074126    -0.695069815591924     0.561564640553646
    H                3.155651908074126    -1.351069815591924    -1.077435359446354
    H                3.797113908074126    -0.366549815591924     0.248327640553646
    H                3.498401908074126     0.352850184408076    -1.401834359446354

}
e, wfn = energy('scf', return_wfn=True)
gdma(wfn)
dmavals = variable('DMA DISTRIBUTED MULTIPOLES')
charges = np.array(dmavals)
print(charges)
np.save('SSI-009VAL-025ILE-1-dimer.npy', np.array(charges))--------------------------------------------------------------------------

*** tstart() called on ds3
*** at Sun Apr 26 22:22:00 2020

   => Loading Basis Set <=

    Name: CC-PVDZ
    Role: ORBITAL
    Keyword: BASIS
    atoms 1-2, 9-10  entry C          line   138 file /theoryfs2/ds/metcalf/miniconda2/envs/tf2gpu/share/psi4/basis/cc-pvdz.gbs
    atoms 3-8, 11-16 entry H          line    22 file /theoryfs2/ds/metcalf/miniconda2/envs/tf2gpu/share/psi4/basis/cc-pvdz.gbs

         ---------------------------------------------------------
                                   SCF
               by Justin Turney, Rob Parrish, Andy Simmonett
                          and Daniel G. A. Smith
                              RHF Reference
                        1 Threads,    500 MiB Core
         ---------------------------------------------------------

  ==> Geometry <==

    Molecular point group: c1
    Full point group: C1

    Geometry (in Angstrom), charge = 0, multiplicity = 1:

       Center              X                  Y                   Z               Mass
    ------------   -----------------  -----------------  -----------------  -----------------
         C           -1.777348091926     0.224930184408     0.028564640554    12.000000000000
         C           -3.061348091926     0.185930184408     0.847564640554    12.000000000000
         H           -1.121348091926    -0.585069815592     0.343564640554     1.007825032230
         H           -2.015348091926     0.087930184408    -1.026435359446     1.007825032230
         H           -1.269348091926     1.180930184408     0.159564640554     1.007825032230
         H           -3.553348091926    -0.753069815592     0.605564640554     1.007825032230
         H           -2.839481591926     0.174550184408     1.924897640554     1.007825032230
         H           -3.744739091926     1.001710184408     0.569199640554     1.007825032230
         C            1.703651908074    -0.040069815592    -0.237435359446    12.000000000000
         C            3.143651908074    -0.353069815592    -0.636435359446    12.000000000000
         H            1.610651908074     0.990930184408     0.104564640554     1.007825032230
         H            0.999651908074    -0.249069815592    -1.038435359446     1.007825032230
         H            1.379651908074    -0.695069815592     0.561564640554     1.007825032230
         H            3.155651908074    -1.351069815592    -1.077435359446     1.007825032230
         H            3.797113908074    -0.366549815592     0.248327640554     1.007825032230
         H            3.498401908074     0.352850184408    -1.401834359446     1.007825032230

  Running in c1 symmetry.

  Rotational constants: A =      1.06537  B =      0.04081  C =      0.04057 [cm^-1]
  Rotational constants: A =  31938.99633  B =   1223.57725  C =   1216.30697 [MHz]
  Nuclear repulsion =  121.082863328922940

  Charge       = 0
  Multiplicity = 1
  Electrons    = 36
  Nalpha       = 18
  Nbeta        = 18

  ==> Algorithm <==

  SCF Algorithm Type is PK.
  DIIS enabled.
  MOM disabled.
  Fractional occupation disabled.
  Guess Type is SAD.
  Energy threshold   = 1.00e-06
  Density threshold  = 1.00e-10
  Integral threshold = 0.00e+00

  ==> Primary Basis <==

  Basis Set: CC-PVDZ
    Blend: CC-PVDZ
    Number of shells: 60
    Number of basis function: 116
    Number of Cartesian functions: 120
    Spherical Harmonics?: true
    Max angular momentum: 2

  ==> Pre-Iterations <==

   -------------------------------------------------------
    Irrep   Nso     Nmo     Nalpha   Nbeta   Ndocc  Nsocc
   -------------------------------------------------------
     A        116     116       0       0       0       0
   -------------------------------------------------------
    Total     116     116      18      18      18       0
   -------------------------------------------------------

  ==> Integral Setup <==

  Using integral reordering PK algorithm.
  Sizing the integral batches needed.
  Building batch lookup table.
   Calculation information:
      Number of atoms:                  16
      Number of AO shells:              60
      Number of primitives:            148
      Number of atomic orbitals:       120
      Number of basis functions:       116

      Integral cutoff                 1.00e-12
      Number of threads:                 1

	Batch   1 pq = [       0,    6786] index = [             0,23028291] size =     23028291
  Task number: 3
  Buffer size: 11059200
  Buffer per thread: 2
  We computed 1367430 shell quartets total.
  Whereas there are 1675365 unique shell quartets.

  ==> DiskJK: Disk-Based J/K Matrices <==

    J tasked:                  Yes
    K tasked:                  Yes
    wK tasked:                  No
    Memory [MiB]:              375
    Schwarz Cutoff:          1E-12

    OpenMP threads:              1

  Minimum eigenvalue in the overlap matrix is 5.6804648431E-03.
  Using Symmetric Orthogonalization.

  SCF Guess: Superposition of Atomic Densities via on-the-fly atomic UHF.

  ==> Iterations <==

                        Total Energy        Delta E     RMS |[F,P]|

   @RHF iter SAD:  -157.37375388048486   -1.57374e+02   0.00000e+00
   @RHF iter   1:  -158.30460628795981   -9.30852e-01   4.22707e-03 DIIS
   @RHF iter   2:  -158.43902010349831   -1.34414e-01   1.79938e-03 DIIS
   @RHF iter   3:  -158.46250877059799   -2.34887e-02   3.51738e-04 DIIS
   @RHF iter   4:  -158.46436099125418   -1.85222e-03   3.95208e-05 DIIS
   @RHF iter   5:  -158.46438527100528   -2.42798e-05   7.08989e-06 DIIS
   @RHF iter   6:  -158.46438597978457   -7.08779e-07   1.35282e-06 DIIS
   @RHF iter   7:  -158.46438599687895   -1.70944e-08   3.34289e-07 DIIS
   @RHF iter   8:  -158.46438599800740   -1.12846e-09   4.55176e-08 DIIS
   @RHF iter   9:  -158.46438599804381   -3.64082e-11   8.56253e-09 DIIS
   @RHF iter  10:  -158.46438599804512   -1.30740e-12   2.02082e-09 DIIS
   @RHF iter  11:  -158.46438599804492    1.98952e-13   3.71007e-10 DIIS
   @RHF iter  12:  -158.46438599804529   -3.69482e-13   1.06346e-10 DIIS
   @RHF iter  13:  -158.46438599804509    1.98952e-13   2.52068e-11 DIIS
  Energy and wave function converged.

  ==> Post-Iterations <==

    Orbital Energies [Eh]
    ---------------------

    Doubly Occupied:

       1A    -11.219069     2A    -11.217588     3A    -11.215023
       4A    -11.214137     5A     -1.020023     6A     -1.016884
       7A     -0.841623     8A     -0.831699     9A     -0.601500
      10A     -0.598361    11A     -0.595670    12A     -0.594029
      13A     -0.510425    14A     -0.495191    15A     -0.487693
      16A     -0.484462    17A     -0.481774    18A     -0.479059

    Virtual:

      19A      0.177634    20A      0.194037    21A      0.222383
      22A      0.235391    23A      0.236764    24A      0.263131
      25A      0.267297    26A      0.279414    27A      0.281167
      28A      0.294965    29A      0.308072    30A      0.328342
      31A      0.383008    32A      0.421570    33A      0.566928
      34A      0.590318    35A      0.595132    36A      0.602818
      37A      0.605215    38A      0.653428    39A      0.671135
      40A      0.708838    41A      0.710811    42A      0.751756
      43A      0.849006    44A      0.884754    45A      0.891354
      46A      0.892469    47A      0.894024    48A      0.897040
      49A      0.899879    50A      0.915473    51A      0.919530
      52A      0.924048    53A      0.935828    54A      0.950737
      55A      0.965392    56A      1.007804    57A      1.125245
      58A      1.131414    59A      1.134463    60A      1.148326
      61A      1.218952    62A      1.276816    63A      1.468425
      64A      1.474031    65A      1.481374    66A      1.483411
      67A      1.583266    68A      1.588779    69A      1.679479
      70A      1.680143    71A      1.694372    72A      1.701885
      73A      1.851907    74A      1.853697    75A      1.875109
      76A      1.887793    77A      1.895091    78A      1.911862
      79A      1.928088    80A      1.938919    81A      1.943769
      82A      1.951368    83A      1.958704    84A      1.961682
      85A      1.964844    86A      1.983596    87A      2.021377
      88A      2.079831    89A      2.093564    90A      2.098356
      91A      2.118049    92A      2.131078    93A      2.298315
      94A      2.312231    95A      2.331576    96A      2.350617
      97A      2.444362    98A      2.452892    99A      2.465370
     100A      2.489113   101A      2.554917   102A      2.564525
     103A      2.577275   104A      2.585928   105A      2.756553
     106A      2.765520   107A      2.787123   108A      2.797979
     109A      2.842272   110A      2.861416   111A      2.865802
     112A      2.870298   113A      2.941636   114A      2.953765
     115A      2.965403   116A      2.974978

    Final Occupation by Irrep:
              A
    DOCC [    18 ]

  @RHF Final Energy:  -158.46438599804509

   => Energetics <=

    Nuclear Repulsion Energy =            121.0828633289229401
    One-Electron Energy =                -451.2860774367952672
    Two-Electron Energy =                 171.7388281098272387
    Total Energy =                       -158.4643859980450884

Computation Completed

Properties will be evaluated at   0.000000,   0.000000,   0.000000 [a0]

Properties computed using the SCF density matrix

  Nuclear Dipole Moment: [e a0]
     X:    -0.0961      Y:    -0.1978      Z:    -0.0252

  Electronic Dipole Moment: [e a0]
     X:     0.0863      Y:     0.1658      Z:     0.0165

  Dipole Moment: [e a0]
     X:    -0.0098      Y:    -0.0320      Z:    -0.0087     Total:     0.0346

  Dipole Moment: [D]
     X:    -0.0248      Y:    -0.0813      Z:    -0.0222     Total:     0.0878

*** tstop() called on ds3 at Sun Apr 26 22:22:10 2020
Module time:
	user time   =       7.64 seconds =       0.13 minutes
	system time =       3.22 seconds =       0.05 minutes
	total time  =         10 seconds =       0.17 minutes
Total time:
	user time   =       7.64 seconds =       0.13 minutes
	system time =       3.22 seconds =       0.05 minutes
	total time  =         10 seconds =       0.17 minutes
                                     G D M A

                                 by Anthony Stone

                           version 2.2.06, 22 June 2011

               Distributed Multipoles from Gaussian wavefunctions

Starting at 22:22:10 on 26 Apr 2020

Using SCF density matrix from file ./SSI/SSI-009VAL-025ILE-1-dimer.test.7734.fchk

                         Distributed Multipole Analysis

Standard DMA

Positions and radii in angstrom
Multipole moments in atomic units, ea_0^k for rank k

C          x = -1.777348  y =  0.224930  z =  0.028565 angstrom
           Maximum rank =  0   Radius =  0.650 angstrom
                   Q00  =  -0.236297

C          x = -3.061348  y =  0.185930  z =  0.847565 angstrom
           Maximum rank =  0   Radius =  0.650 angstrom
                   Q00  =  -0.233060

H          x = -1.121348  y = -0.585070  z =  0.343565 angstrom
           Maximum rank =  0   Radius =  0.325 angstrom
                   Q00  =   0.079243

H          x = -2.015348  y =  0.087930  z = -1.026435 angstrom
           Maximum rank =  0   Radius =  0.325 angstrom
                   Q00  =   0.077116

H          x = -1.269348  y =  1.180930  z =  0.159565 angstrom
           Maximum rank =  0   Radius =  0.325 angstrom
                   Q00  =   0.078298

H          x = -3.553348  y = -0.753070  z =  0.605565 angstrom
           Maximum rank =  0   Radius =  0.325 angstrom
                   Q00  =   0.074451

H          x = -2.839482  y =  0.174550  z =  1.924898 angstrom
           Maximum rank =  0   Radius =  0.325 angstrom
                   Q00  =   0.079563

H          x = -3.744739  y =  1.001710  z =  0.569200 angstrom
           Maximum rank =  0   Radius =  0.325 angstrom
                   Q00  =   0.080801

C          x =  1.703652  y = -0.040070  z = -0.237435 angstrom
           Maximum rank =  0   Radius =  0.650 angstrom
                   Q00  =  -0.246542

C          x =  3.143652  y = -0.353070  z = -0.636435 angstrom
           Maximum rank =  0   Radius =  0.650 angstrom
                   Q00  =  -0.227777

H          x =  1.610652  y =  0.990930  z =  0.104565 angstrom
           Maximum rank =  0   Radius =  0.325 angstrom
                   Q00  =   0.079711

H          x =  0.999652  y = -0.249070  z = -1.038435 angstrom
           Maximum rank =  0   Radius =  0.325 angstrom
                   Q00  =   0.079892

H          x =  1.379652  y = -0.695070  z =  0.561565 angstrom
           Maximum rank =  0   Radius =  0.325 angstrom
                   Q00  =   0.075485

H          x =  3.155652  y = -1.351070  z = -1.077435 angstrom
           Maximum rank =  0   Radius =  0.325 angstrom
                   Q00  =   0.076760

H          x =  3.797114  y = -0.366550  z =  0.248328 angstrom
           Maximum rank =  0   Radius =  0.325 angstrom
                   Q00  =   0.081332

H          x =  3.498402  y =  0.352850  z = -1.401834 angstrom
           Maximum rank =  0   Radius =  0.325 angstrom
                   Q00  =   0.081022

Total multipoles referred to origin at
           x =   0.000000,  y =    0.000000,  z =    0.000000 angstrom
                   Q00  =  -0.000000

Finished at 22:22:10 on 26 Apr 2020

  DMA results are available in the Python driver through the
	  variable('DMA DISTRIBUTED MULTIPOLES')
  and
	  variable('DMA TOTAL MULTIPOLES')
  commands.

    Psi4 stopped on: Sunday, 26 April 2020 10:22PM
    Psi4 wall time for execution: 0:00:10.69

*** Psi4 exiting successfully. Buy a developer a beer!
