                               Psi4 1.3.2 release

  ==> Input File <==

--------------------------------------------------------------------------
import numpy as np
set {scf_type pk
basis cc-pvdz
d_convergence 10
gdma_switch   0
gdma_limit    0
gdma_origin   [ 0.0,  0.0,  0.0 ]
}
molecule test {
    units Angstrom
    0 1
    --
    0 1
    C                0.140337794091486     0.291186095724697    -2.969904781596179
    C                1.320337794091486     0.288186095724697    -0.752904781596179
    C                0.535337794091486    -0.389813904275303    -1.686904781596179
    C                1.700337794091485    -0.329813904275303     0.441095218403821
    C                1.293337794091485    -1.635813904275303     0.710095218403821
    C                0.132337794091486    -1.701813904275303    -1.406904781596179
    C                0.508337794091486    -2.322813904275304    -0.215904781596179
    H                1.639337794091486     1.303186095724697    -0.951904781596179
    H                2.307337794091486     0.206186095724697     1.159095218403821
    H                1.020337794091486     0.477186095724697    -3.579904781596178
    H               -0.273662205908514     1.264186095724697    -2.695904781596179
    H                1.584337794091486    -2.116813904275303     1.634095218403821
    H               -0.446662205908514    -2.287813904275303    -2.100904781596179
    H                0.205337794091486    -3.340813904275303    -0.018904781596179
    H               -0.617162205908514    -0.247523904275303    -3.558114781596179
    C               -1.436662205908514     1.084186095724697     1.703095218403821
    C               -1.807662205908515     2.185186095724696     0.734095218403821
    C               -1.715662205908514     1.737186095724697     3.048095218403822
    H               -0.378662205908514     0.848186095724697     1.608095218403821
    H               -2.045662205908514     0.191186095724697     1.557095218403821
    H               -1.388662205908514     2.010186095724697    -0.257904781596179
    H               -2.891662205908515     2.295186095724697     0.683095218403821
    H               -2.769662205908514     1.661186095724697     3.296095218403821
    H               -1.364612205908514     3.070546095724697     1.213515218403821
    H               -1.475612205908514     2.797026095724697     2.877495218403821
    H               -1.086742205908515     1.324396095724697     3.850635218403821

}
e, wfn = energy('scf', return_wfn=True)
gdma(wfn)
dmavals = variable('DMA DISTRIBUTED MULTIPOLES')
charges = np.array(dmavals)
print(charges)
np.save('SSI-075PHE-093PRO-1-dimer.npy', np.array(charges))--------------------------------------------------------------------------

*** tstart() called on ds3
*** at Mon Apr 27 06:48:36 2020

   => Loading Basis Set <=

    Name: CC-PVDZ
    Role: ORBITAL
    Keyword: BASIS
    atoms 1-7, 16-18  entry C          line   138 file /theoryfs2/ds/metcalf/miniconda2/envs/tf2gpu/share/psi4/basis/cc-pvdz.gbs
    atoms 8-15, 19-26 entry H          line    22 file /theoryfs2/ds/metcalf/miniconda2/envs/tf2gpu/share/psi4/basis/cc-pvdz.gbs

         ---------------------------------------------------------
                                   SCF
               by Justin Turney, Rob Parrish, Andy Simmonett
                          and Daniel G. A. Smith
                              RHF Reference
                        1 Threads,    500 MiB Core
         ---------------------------------------------------------

  ==> Geometry <==

    Molecular point group: c1
    Full point group: C1

    Geometry (in Angstrom), charge = 0, multiplicity = 1:

       Center              X                  Y                   Z               Mass
    ------------   -----------------  -----------------  -----------------  -----------------
         C            0.140337794091     0.291186095725    -2.969904781596    12.000000000000
         C            1.320337794091     0.288186095725    -0.752904781596    12.000000000000
         C            0.535337794091    -0.389813904275    -1.686904781596    12.000000000000
         C            1.700337794091    -0.329813904275     0.441095218404    12.000000000000
         C            1.293337794091    -1.635813904275     0.710095218404    12.000000000000
         C            0.132337794091    -1.701813904275    -1.406904781596    12.000000000000
         C            0.508337794091    -2.322813904275    -0.215904781596    12.000000000000
         H            1.639337794091     1.303186095725    -0.951904781596     1.007825032230
         H            2.307337794091     0.206186095725     1.159095218404     1.007825032230
         H            1.020337794091     0.477186095725    -3.579904781596     1.007825032230
         H           -0.273662205909     1.264186095725    -2.695904781596     1.007825032230
         H            1.584337794091    -2.116813904275     1.634095218404     1.007825032230
         H           -0.446662205909    -2.287813904275    -2.100904781596     1.007825032230
         H            0.205337794091    -3.340813904275    -0.018904781596     1.007825032230
         H           -0.617162205909    -0.247523904275    -3.558114781596     1.007825032230
         C           -1.436662205909     1.084186095725     1.703095218404    12.000000000000
         C           -1.807662205909     2.185186095725     0.734095218404    12.000000000000
         C           -1.715662205909     1.737186095725     3.048095218404    12.000000000000
         H           -0.378662205909     0.848186095725     1.608095218404     1.007825032230
         H           -2.045662205909     0.191186095725     1.557095218404     1.007825032230
         H           -1.388662205909     2.010186095725    -0.257904781596     1.007825032230
         H           -2.891662205909     2.295186095725     0.683095218404     1.007825032230
         H           -2.769662205909     1.661186095725     3.296095218404     1.007825032230
         H           -1.364612205909     3.070546095725     1.213515218404     1.007825032230
         H           -1.475612205909     2.797026095725     2.877495218404     1.007825032230
         H           -1.086742205909     1.324396095725     3.850635218404     1.007825032230

  Running in c1 symmetry.

  Rotational constants: A =      0.05374  B =      0.02383  C =      0.01966 [cm^-1]
  Rotational constants: A =   1610.94347  B =    714.49385  C =    589.49606 [MHz]
  Nuclear repulsion =  498.351298811435186

  Charge       = 0
  Multiplicity = 1
  Electrons    = 76
  Nalpha       = 38
  Nbeta        = 38

  ==> Algorithm <==

  SCF Algorithm Type is PK.
  DIIS enabled.
  MOM disabled.
  Fractional occupation disabled.
  Guess Type is SAD.
  Energy threshold   = 1.00e-06
  Density threshold  = 1.00e-10
  Integral threshold = 0.00e+00

  ==> Primary Basis <==

  Basis Set: CC-PVDZ
    Blend: CC-PVDZ
    Number of shells: 108
    Number of basis function: 220
    Number of Cartesian functions: 230
    Spherical Harmonics?: true
    Max angular momentum: 2

  ==> Pre-Iterations <==

   -------------------------------------------------------
    Irrep   Nso     Nmo     Nalpha   Nbeta   Ndocc  Nsocc
   -------------------------------------------------------
     A        220     220       0       0       0       0
   -------------------------------------------------------
    Total     220     220      38      38      38       0
   -------------------------------------------------------

  ==> Integral Setup <==

  Using integral reordering PK algorithm.
  Sizing the integral batches needed.
  Building batch lookup table.
   Calculation information:
      Number of atoms:                  26
      Number of AO shells:             108
      Number of primitives:            300
      Number of atomic orbitals:       230
      Number of basis functions:       220

      Integral cutoff                 1.00e-12
      Number of threads:                 1

	Batch   1 pq = [       0,    9405] index = [             0,44231715] size =     44231715
	Batch   2 pq = [    9405,   13301] index = [      44231715,88464951] size =     44233236
	Batch   3 pq = [   13301,   16290] index = [      88464951,132690195] size =     44225244
	Batch   4 pq = [   16290,   18810] index = [     132690195,176917455] size =     44227260
	Batch   5 pq = [   18810,   21030] index = [     176917455,221140965] size =     44223510
	Batch   6 pq = [   21030,   23037] index = [     221140965,265363203] size =     44222238
	Batch   7 pq = [   23037,   24310] index = [     265363203,295500205] size =     30137002
  Task number: 27
  Buffer size: 11059200
  Buffer per thread: 2
  We computed 16665346 shell quartets total.
  Whereas there are 17325441 unique shell quartets.

  ==> DiskJK: Disk-Based J/K Matrices <==

    J tasked:                  Yes
    K tasked:                  Yes
    wK tasked:                  No
    Memory [MiB]:              375
    Schwarz Cutoff:          1E-12

    OpenMP threads:              1

  Minimum eigenvalue in the overlap matrix is 3.1563873395E-04.
  Using Symmetric Orthogonalization.

  SCF Guess: Superposition of Atomic Densities via on-the-fly atomic UHF.

  ==> Iterations <==

                        Total Energy        Delta E     RMS |[F,P]|

   @RHF iter SAD:  -387.00140231260360   -3.87001e+02   0.00000e+00
   @RHF iter   1:  -387.75021060291908   -7.48808e-01   2.78150e-03 DIIS
   @RHF iter   2:  -387.97067317937677   -2.20463e-01   1.18378e-03 DIIS
   @RHF iter   3:  -388.00728009998039   -3.66069e-02   2.52156e-04 DIIS
   @RHF iter   4:  -388.01016611043201   -2.88601e-03   5.12882e-05 DIIS
   @RHF iter   5:  -388.01025292412635   -8.68137e-05   1.60214e-05 DIIS
   @RHF iter   6:  -388.01026108743338   -8.16331e-06   4.89913e-06 DIIS
   @RHF iter   7:  -388.01026194154360   -8.54110e-07   1.24837e-06 DIIS
   @RHF iter   8:  -388.01026200679274   -6.52491e-08   2.90481e-07 DIIS
   @RHF iter   9:  -388.01026201379801   -7.00527e-09   1.11706e-07 DIIS
   @RHF iter  10:  -388.01026201518215   -1.38414e-09   5.72713e-08 DIIS
   @RHF iter  11:  -388.01026201560052   -4.18368e-10   2.30871e-08 DIIS
   @RHF iter  12:  -388.01026201568806   -8.75389e-11   9.86332e-09 DIIS
   @RHF iter  13:  -388.01026201570011   -1.20508e-11   4.30143e-09 DIIS
   @RHF iter  14:  -388.01026201570079   -6.82121e-13   1.10979e-09 DIIS
   @RHF iter  15:  -388.01026201569971    1.08002e-12   3.77586e-10 DIIS
   @RHF iter  16:  -388.01026201570215   -2.44427e-12   1.65827e-10 DIIS
   @RHF iter  17:  -388.01026201570323   -1.08002e-12   7.15559e-11 DIIS
  Energy and wave function converged.

  ==> Post-Iterations <==

    Orbital Energies [Eh]
    ---------------------

    Doubly Occupied:

       1A    -11.244388     2A    -11.237953     3A    -11.236350
       4A    -11.232672     5A    -11.232267     6A    -11.231964
       7A    -11.230535     8A    -11.206444     9A    -11.206323
      10A    -11.204169    11A     -1.151580    12A     -1.060669
      13A     -1.044498    14A     -1.011800    15A     -0.932080
      16A     -0.905016    17A     -0.824270    18A     -0.797031
      19A     -0.791264    20A     -0.690651    21A     -0.632659
      22A     -0.631232    23A     -0.630687    24A     -0.605356
      25A     -0.583233    26A     -0.576992    27A     -0.563588
      28A     -0.537696    29A     -0.535031    30A     -0.501197
      31A     -0.490081    32A     -0.486663    33A     -0.482037
      34A     -0.473073    35A     -0.462558    36A     -0.450487
      37A     -0.331831    38A     -0.321381

    Virtual:

      39A      0.132174    40A      0.140384    41A      0.173288
      42A      0.196166    43A      0.199080    44A      0.215086
      45A      0.236308    46A      0.237619    47A      0.241846
      48A      0.251755    49A      0.258371    50A      0.267309
      51A      0.275595    52A      0.284130    53A      0.286752
      54A      0.322832    55A      0.341464    56A      0.354824
      57A      0.365314    58A      0.382280    59A      0.386680
      60A      0.433231    61A      0.450589    62A      0.460971
      63A      0.475341    64A      0.497366    65A      0.561580
      66A      0.573004    67A      0.591764    68A      0.599075
      69A      0.608305    70A      0.623542    71A      0.634977
      72A      0.660432    73A      0.678125    74A      0.698821
      75A      0.709514    76A      0.736208    77A      0.737138
      78A      0.740674    79A      0.752029    80A      0.760438
      81A      0.780118    82A      0.784975    83A      0.801076
      84A      0.822706    85A      0.838715    86A      0.844315
      87A      0.853869    88A      0.862986    89A      0.865897
      90A      0.880543    91A      0.883111    92A      0.889411
      93A      0.896279    94A      0.898937    95A      0.903474
      96A      0.916153    97A      0.924528    98A      0.930633
      99A      0.933129   100A      0.942379   101A      0.943924
     102A      0.952331   103A      0.965152   104A      0.985423
     105A      0.999902   106A      1.030583   107A      1.051493
     108A      1.069106   109A      1.112533   110A      1.131686
     111A      1.139538   112A      1.140341   113A      1.152679
     114A      1.181457   115A      1.199949   116A      1.222617
     117A      1.226562   118A      1.252040   119A      1.254380
     120A      1.285442   121A      1.292900   122A      1.307072
     123A      1.319922   124A      1.328476   125A      1.405847
     126A      1.424400   127A      1.461267   128A      1.487252
     129A      1.509774   130A      1.529365   131A      1.565158
     132A      1.596441   133A      1.614562   134A      1.634024
     135A      1.647978   136A      1.680553   137A      1.688577
     138A      1.736624   139A      1.737309   140A      1.750191
     141A      1.752253   142A      1.760063   143A      1.791779
     144A      1.804849   145A      1.830750   146A      1.852842
     147A      1.874854   148A      1.878587   149A      1.888191
     150A      1.890707   151A      1.911985   152A      1.918222
     153A      1.923077   154A      1.927589   155A      1.930119
     156A      1.938101   157A      1.949405   158A      1.958395
     159A      1.958690   160A      1.974570   161A      1.986707
     162A      2.005332   163A      2.008671   164A      2.018778
     165A      2.027147   166A      2.044847   167A      2.052295
     168A      2.067232   169A      2.087699   170A      2.107672
     171A      2.119663   172A      2.140962   173A      2.148619
     174A      2.156266   175A      2.164106   176A      2.171307
     177A      2.185418   178A      2.193906   179A      2.240971
     180A      2.249831   181A      2.268462   182A      2.275359
     183A      2.300669   184A      2.318953   185A      2.329872
     186A      2.363221   187A      2.375704   188A      2.434818
     189A      2.447182   190A      2.471628   191A      2.482524
     192A      2.504717   193A      2.524734   194A      2.535035
     195A      2.561340   196A      2.633942   197A      2.647909
     198A      2.705077   199A      2.722132   200A      2.744461
     201A      2.764730   202A      2.776491   203A      2.780414
     204A      2.795359   205A      2.803828   206A      2.808388
     207A      2.848554   208A      2.849032   209A      2.862111
     210A      2.895133   211A      2.951254   212A      2.964188
     213A      2.976790   214A      3.020123   215A      3.047459
     216A      3.092608   217A      3.164066   218A      3.197996
     219A      3.291056   220A      3.955379

    Final Occupation by Irrep:
              A
    DOCC [    38 ]

  @RHF Final Energy:  -388.01026201570323

   => Energetics <=

    Nuclear Repulsion Energy =            498.3512988114351856
    One-Electron Energy =               -1511.1877089914260068
    Two-Electron Energy =                 624.8261481642875879
    Total Energy =                       -388.0102620157032334

Computation Completed

Properties will be evaluated at   0.000000,   0.000000,   0.000000 [a0]

Properties computed using the SCF density matrix

  Nuclear Dipole Moment: [e a0]
     X:    -7.4830      Y:     8.8644      Z:     4.4208

  Electronic Dipole Moment: [e a0]
     X:     7.5250      Y:    -8.9162      Z:    -4.6025

  Dipole Moment: [e a0]
     X:     0.0421      Y:    -0.0518      Z:    -0.1817     Total:     0.1936

  Dipole Moment: [D]
     X:     0.1069      Y:    -0.1316      Z:    -0.4619     Total:     0.4920

*** tstop() called on ds3 at Mon Apr 27 06:51:16 2020
Module time:
	user time   =     120.88 seconds =       2.01 minutes
	system time =      43.96 seconds =       0.73 minutes
	total time  =        160 seconds =       2.67 minutes
Total time:
	user time   =     120.88 seconds =       2.01 minutes
	system time =      43.96 seconds =       0.73 minutes
	total time  =        160 seconds =       2.67 minutes
                                     G D M A

                                 by Anthony Stone

                           version 2.2.06, 22 June 2011

               Distributed Multipoles from Gaussian wavefunctions

Starting at 6:51:16 on 27 Apr 2020

Using SCF density matrix from file ./SSI/SSI-075PHE-093PRO-1-dimer.test.17311.fchk

                         Distributed Multipole Analysis

Standard DMA

Positions and radii in angstrom
Multipole moments in atomic units, ea_0^k for rank k

C          x =  0.140338  y =  0.291186  z = -2.969905 angstrom
           Maximum rank =  0   Radius =  0.650 angstrom
                   Q00  =  -0.205310

C          x =  1.320338  y =  0.288186  z = -0.752905 angstrom
           Maximum rank =  0   Radius =  0.650 angstrom
                   Q00  =  -0.021384

C          x =  0.535338  y = -0.389814  z = -1.686905 angstrom
           Maximum rank =  0   Radius =  0.650 angstrom
                   Q00  =  -0.089716

C          x =  1.700338  y = -0.329814  z =  0.441095 angstrom
           Maximum rank =  0   Radius =  0.650 angstrom
                   Q00  =  -0.082088

C          x =  1.293338  y = -1.635814  z =  0.710095 angstrom
           Maximum rank =  0   Radius =  0.650 angstrom
                   Q00  =  -0.089301

C          x =  0.132338  y = -1.701814  z = -1.406905 angstrom
           Maximum rank =  0   Radius =  0.650 angstrom
                   Q00  =  -0.051979

C          x =  0.508338  y = -2.322814  z = -0.215905 angstrom
           Maximum rank =  0   Radius =  0.650 angstrom
                   Q00  =  -0.070959

H          x =  1.639338  y =  1.303186  z = -0.951905 angstrom
           Maximum rank =  0   Radius =  0.325 angstrom
                   Q00  =   0.056414

H          x =  2.307338  y =  0.206186  z =  1.159095 angstrom
           Maximum rank =  0   Radius =  0.325 angstrom
                   Q00  =   0.065533

H          x =  1.020338  y =  0.477186  z = -3.579905 angstrom
           Maximum rank =  0   Radius =  0.325 angstrom
                   Q00  =   0.105020

H          x = -0.273662  y =  1.264186  z = -2.695905 angstrom
           Maximum rank =  0   Radius =  0.325 angstrom
                   Q00  =   0.095425

H          x =  1.584338  y = -2.116814  z =  1.634095 angstrom
           Maximum rank =  0   Radius =  0.325 angstrom
                   Q00  =   0.062004

H          x = -0.446662  y = -2.287814  z = -2.100905 angstrom
           Maximum rank =  0   Radius =  0.325 angstrom
                   Q00  =   0.058275

H          x =  0.205338  y = -3.340814  z = -0.018905 angstrom
           Maximum rank =  0   Radius =  0.325 angstrom
                   Q00  =   0.066049

H          x = -0.617162  y = -0.247524  z = -3.558115 angstrom
           Maximum rank =  0   Radius =  0.325 angstrom
                   Q00  =   0.101912

C          x = -1.436662  y =  1.084186  z =  1.703095 angstrom
           Maximum rank =  0   Radius =  0.650 angstrom
                   Q00  =  -0.064974

C          x = -1.807662  y =  2.185186  z =  0.734095 angstrom
           Maximum rank =  0   Radius =  0.650 angstrom
                   Q00  =  -0.226134

C          x = -1.715662  y =  1.737186  z =  3.048095 angstrom
           Maximum rank =  0   Radius =  0.650 angstrom
                   Q00  =  -0.241463

H          x = -0.378662  y =  0.848186  z =  1.608095 angstrom
           Maximum rank =  0   Radius =  0.325 angstrom
                   Q00  =   0.070252

H          x = -2.045662  y =  0.191186  z =  1.557095 angstrom
           Maximum rank =  0   Radius =  0.325 angstrom
                   Q00  =   0.054852

H          x = -1.388662  y =  2.010186  z = -0.257905 angstrom
           Maximum rank =  0   Radius =  0.325 angstrom
                   Q00  =   0.080230

H          x = -2.891662  y =  2.295186  z =  0.683095 angstrom
           Maximum rank =  0   Radius =  0.325 angstrom
                   Q00  =   0.074861

H          x = -2.769662  y =  1.661186  z =  3.296095 angstrom
           Maximum rank =  0   Radius =  0.325 angstrom
                   Q00  =   0.078438

H          x = -1.364612  y =  3.070546  z =  1.213515 angstrom
           Maximum rank =  0   Radius =  0.325 angstrom
                   Q00  =   0.043454

H          x = -1.475612  y =  2.797026  z =  2.877495 angstrom
           Maximum rank =  0   Radius =  0.325 angstrom
                   Q00  =   0.054488

H          x = -1.086742  y =  1.324396  z =  3.850635 angstrom
           Maximum rank =  0   Radius =  0.325 angstrom
                   Q00  =   0.076103

Total multipoles referred to origin at
           x =   0.000000,  y =    0.000000,  z =    0.000000 angstrom
                   Q00  =  -0.000000

Finished at 6:51:16 on 27 Apr 2020

  DMA results are available in the Python driver through the
	  variable('DMA DISTRIBUTED MULTIPOLES')
  and
	  variable('DMA TOTAL MULTIPOLES')
  commands.

    Psi4 stopped on: Monday, 27 April 2020 06:51AM
    Psi4 wall time for execution: 0:02:39.98

*** Psi4 exiting successfully. Buy a developer a beer!
