                               Psi4 1.3.2 release

  ==> Input File <==

--------------------------------------------------------------------------
import numpy as np
set {scf_type pk
basis cc-pvdz
d_convergence 10
gdma_switch   0
gdma_limit    0
gdma_origin   [ 0.0,  0.0,  0.0 ]
}
molecule test {
    units Angstrom
    0 1
    --
    0 1
    C               -1.521655291375807     2.404090366643097    -2.225856169935843
    C               -1.160655291375807     0.316090366643097    -0.629856169935843
    C               -1.871655291375807     1.497090366643097    -1.050856169935843
    C               -1.868655291375807    -0.250909633356903     0.470143830064157
    C               -2.936655291375807     1.607090366643097    -0.202856169935843
    C                0.419344708624193    -1.498909633356903    -0.469856169935843
    C               -0.278655291375807    -2.014909633356903     0.637143830064157
    C               -0.027655291375807    -0.356909633356903    -1.120856169935843
    C               -1.430655291375807    -1.404909633356903     1.114143830064157
    N               -2.933655291375807     0.573090366643097     0.720143830064157
    H                1.311344708624193    -2.005909633356903    -0.808856169935843
    H                0.088344708624193    -2.908909633356903     1.127143830064157
    H                0.512344708624193     0.043090366643097    -1.967856169935843
    H               -1.967655291375807    -1.805909633356903     1.963143830064157
    H               -0.460655291375807     2.295090366643097    -2.442856169935844
    H               -1.700655291375807     3.440090366643097    -1.935856169935843
    H               -3.686655291375807     2.373090366643097    -0.233856169935843
    H               -3.625655291375807     0.456090366643097     1.453143830064157
    H               -2.081335291375807     2.186237766643097    -3.147430169935844
    C                3.799344708624193    -0.029909633356903     0.481143830064157
    C                5.075344708624193    -0.790909633356903     0.097143830064157
    C                3.420344708624193    -0.224909633356903     1.959143830064157
    H                3.953344708624193     1.025090366643097     0.275143830064157
    H                2.969344708624193    -0.381909633356903    -0.128856169935843
    H                5.018344708624193    -1.815909633356903     0.464143830064157
    H                5.926344708624193    -0.302909633356903     0.578143830064157
    H                3.381344708624193    -1.276909633356903     2.211143830064156
    H                4.185344708624193     0.228090366643097     2.594143830064156
    H                5.233974708624193    -0.815203633356903    -0.991087169935843
    H                2.436894708624193     0.209285366643097     2.192161830064156

}
e, wfn = energy('scf', return_wfn=True)
gdma(wfn)
dmavals = variable('DMA DISTRIBUTED MULTIPOLES')
charges = np.array(dmavals)
print(charges)
np.save('SSI-100TRP-103LYS-2-dimer.npy', np.array(charges))--------------------------------------------------------------------------

*** tstart() called on ds3
*** at Mon Apr 27 22:18:46 2020

   => Loading Basis Set <=

    Name: CC-PVDZ
    Role: ORBITAL
    Keyword: BASIS
    atoms 1-9, 20-22   entry C          line   138 file /theoryfs2/ds/metcalf/miniconda2/envs/tf2gpu/share/psi4/basis/cc-pvdz.gbs
    atoms 10           entry N          line   168 file /theoryfs2/ds/metcalf/miniconda2/envs/tf2gpu/share/psi4/basis/cc-pvdz.gbs
    atoms 11-19, 23-30 entry H          line    22 file /theoryfs2/ds/metcalf/miniconda2/envs/tf2gpu/share/psi4/basis/cc-pvdz.gbs

         ---------------------------------------------------------
                                   SCF
               by Justin Turney, Rob Parrish, Andy Simmonett
                          and Daniel G. A. Smith
                              RHF Reference
                        1 Threads,    500 MiB Core
         ---------------------------------------------------------

  ==> Geometry <==

    Molecular point group: c1
    Full point group: C1

    Geometry (in Angstrom), charge = 0, multiplicity = 1:

       Center              X                  Y                   Z               Mass
    ------------   -----------------  -----------------  -----------------  -----------------
         C           -1.521655291376     2.404090366643    -2.225856169936    12.000000000000
         C           -1.160655291376     0.316090366643    -0.629856169936    12.000000000000
         C           -1.871655291376     1.497090366643    -1.050856169936    12.000000000000
         C           -1.868655291376    -0.250909633357     0.470143830064    12.000000000000
         C           -2.936655291376     1.607090366643    -0.202856169936    12.000000000000
         C            0.419344708624    -1.498909633357    -0.469856169936    12.000000000000
         C           -0.278655291376    -2.014909633357     0.637143830064    12.000000000000
         C           -0.027655291376    -0.356909633357    -1.120856169936    12.000000000000
         C           -1.430655291376    -1.404909633357     1.114143830064    12.000000000000
         N           -2.933655291376     0.573090366643     0.720143830064    14.003074004430
         H            1.311344708624    -2.005909633357    -0.808856169936     1.007825032230
         H            0.088344708624    -2.908909633357     1.127143830064     1.007825032230
         H            0.512344708624     0.043090366643    -1.967856169936     1.007825032230
         H           -1.967655291376    -1.805909633357     1.963143830064     1.007825032230
         H           -0.460655291376     2.295090366643    -2.442856169936     1.007825032230
         H           -1.700655291376     3.440090366643    -1.935856169936     1.007825032230
         H           -3.686655291376     2.373090366643    -0.233856169936     1.007825032230
         H           -3.625655291376     0.456090366643     1.453143830064     1.007825032230
         H           -2.081335291376     2.186237766643    -3.147430169936     1.007825032230
         C            3.799344708624    -0.029909633357     0.481143830064    12.000000000000
         C            5.075344708624    -0.790909633357     0.097143830064    12.000000000000
         C            3.420344708624    -0.224909633357     1.959143830064    12.000000000000
         H            3.953344708624     1.025090366643     0.275143830064     1.007825032230
         H            2.969344708624    -0.381909633357    -0.128856169936     1.007825032230
         H            5.018344708624    -1.815909633357     0.464143830064     1.007825032230
         H            5.926344708624    -0.302909633357     0.578143830064     1.007825032230
         H            3.381344708624    -1.276909633357     2.211143830064     1.007825032230
         H            4.185344708624     0.228090366643     2.594143830064     1.007825032230
         H            5.233974708624    -0.815203633357    -0.991087169936     1.007825032230
         H            2.436894708624     0.209285366643     2.192161830064     1.007825032230

  Running in c1 symmetry.

  Rotational constants: A =      0.03900  B =      0.01211  C =      0.01058 [cm^-1]
  Rotational constants: A =   1169.06484  B =    363.09986  C =    317.23776 [MHz]
  Nuclear repulsion =  733.483296977371310

  Charge       = 0
  Multiplicity = 1
  Electrons    = 96
  Nalpha       = 48
  Nbeta        = 48

  ==> Algorithm <==

  SCF Algorithm Type is PK.
  DIIS enabled.
  MOM disabled.
  Fractional occupation disabled.
  Guess Type is SAD.
  Energy threshold   = 1.00e-06
  Density threshold  = 1.00e-10
  Integral threshold = 0.00e+00

  ==> Primary Basis <==

  Basis Set: CC-PVDZ
    Blend: CC-PVDZ
    Number of shells: 129
    Number of basis function: 267
    Number of Cartesian functions: 280
    Spherical Harmonics?: true
    Max angular momentum: 2

  ==> Pre-Iterations <==

   -------------------------------------------------------
    Irrep   Nso     Nmo     Nalpha   Nbeta   Ndocc  Nsocc
   -------------------------------------------------------
     A        267     267       0       0       0       0
   -------------------------------------------------------
    Total     267     267      48      48      48       0
   -------------------------------------------------------

  ==> Integral Setup <==

  Using integral reordering PK algorithm.
  Sizing the integral batches needed.
  Building batch lookup table.
   Calculation information:
      Number of atoms:                  30
      Number of AO shells:             129
      Number of primitives:            371
      Number of atomic orbitals:       280
      Number of basis functions:       267

      Integral cutoff                 1.00e-12
      Number of threads:                 1

	Batch   1 pq = [       0,    9405] index = [             0,44231715] size =     44231715
	Batch   2 pq = [    9405,   13301] index = [      44231715,88464951] size =     44233236
	Batch   3 pq = [   13301,   16290] index = [      88464951,132690195] size =     44225244
	Batch   4 pq = [   16290,   18810] index = [     132690195,176917455] size =     44227260
	Batch   5 pq = [   18810,   21030] index = [     176917455,221140965] size =     44223510
	Batch   6 pq = [   21030,   23037] index = [     221140965,265363203] size =     44222238
	Batch   7 pq = [   23037,   24883] index = [     265363203,309594286] size =     44231083
	Batch   8 pq = [   24883,   26601] index = [     309594286,353819901] size =     44225615
	Batch   9 pq = [   26601,   28214] index = [     353819901,398029005] size =     44209104
	Batch  10 pq = [   28214,   29740] index = [     398029005,442248670] size =     44219665
	Batch  11 pq = [   29740,   31191] index = [     442248670,486454836] size =     44206166
	Batch  12 pq = [   31191,   32578] index = [     486454836,530679331] size =     44224495
	Batch  13 pq = [   32578,   33908] index = [     530679331,574893186] size =     44213855
	Batch  14 pq = [   33908,   35188] index = [     574893186,619115266] size =     44222080
	Batch  15 pq = [   35188,   35778] index = [     619115266,640050531] size =     20935265
  Task number: 58
  Buffer size: 11059200
  Buffer per thread: 2
  We computed 31396020 shell quartets total.
  Whereas there are 35158305 unique shell quartets.

  ==> DiskJK: Disk-Based J/K Matrices <==

    J tasked:                  Yes
    K tasked:                  Yes
    wK tasked:                  No
    Memory [MiB]:              375
    Schwarz Cutoff:          1E-12

    OpenMP threads:              1

  Minimum eigenvalue in the overlap matrix is 2.5187344705E-04.
  Using Symmetric Orthogonalization.

  SCF Guess: Superposition of Atomic Densities via on-the-fly atomic UHF.

  ==> Iterations <==

                        Total Energy        Delta E     RMS |[F,P]|

   @RHF iter SAD:  -517.90513372202099   -5.17905e+02   0.00000e+00
   @RHF iter   1:  -518.49864233510436   -5.93509e-01   2.47475e-03 DIIS
   @RHF iter   2:  -518.75372628035029   -2.55084e-01   1.09917e-03 DIIS
   @RHF iter   3:  -518.79947716101378   -4.57509e-02   2.85753e-04 DIIS
   @RHF iter   4:  -518.80362241018884   -4.14525e-03   1.30482e-04 DIIS
   @RHF iter   5:  -518.80430454142902   -6.82131e-04   1.93750e-05 DIIS
   @RHF iter   6:  -518.80433505616622   -3.05147e-05   8.63947e-06 DIIS
   @RHF iter   7:  -518.80434124396902   -6.18780e-06   3.42234e-06 DIIS
   @RHF iter   8:  -518.80434285337583   -1.60941e-06   1.41140e-06 DIIS
   @RHF iter   9:  -518.80434318973630   -3.36360e-07   6.16724e-07 DIIS
   @RHF iter  10:  -518.80434325845476   -6.87185e-08   2.73784e-07 DIIS
   @RHF iter  11:  -518.80434327464104   -1.61863e-08   1.09629e-07 DIIS
   @RHF iter  12:  -518.80434327718433   -2.54329e-09   4.19285e-08 DIIS
   @RHF iter  13:  -518.80434327740511   -2.20780e-10   1.19204e-08 DIIS
   @RHF iter  14:  -518.80434327743023   -2.51248e-11   4.87227e-09 DIIS
   @RHF iter  15:  -518.80434327742546    4.77485e-12   2.29834e-09 DIIS
   @RHF iter  16:  -518.80434327742842   -2.95586e-12   1.00485e-09 DIIS
   @RHF iter  17:  -518.80434327743149   -3.06954e-12   4.90990e-10 DIIS
   @RHF iter  18:  -518.80434327742739    4.09273e-12   1.81711e-10 DIIS
   @RHF iter  19:  -518.80434327742557    1.81899e-12   6.70927e-11 DIIS
  Energy and wave function converged.

  ==> Post-Iterations <==

    Orbital Energies [Eh]
    ---------------------

    Doubly Occupied:

       1A    -15.602832     2A    -11.265709     3A    -11.264840
       4A    -11.231800     5A    -11.231598     6A    -11.230524
       7A    -11.230402     8A    -11.223365     9A    -11.222418
      10A    -11.221919    11A    -11.211117    12A    -11.210368
      13A    -11.206982    14A     -1.292016    15A     -1.126742
      16A     -1.070009    17A     -1.042720    18A     -0.996885
      19A     -0.984884    20A     -0.931967    21A     -0.915504
      22A     -0.839348    23A     -0.803817    24A     -0.791005
      25A     -0.753412    26A     -0.719424    27A     -0.661236
      28A     -0.644076    29A     -0.617290    30A     -0.601446
      31A     -0.590785    32A     -0.588685    33A     -0.585598
      34A     -0.568303    35A     -0.552331    36A     -0.538290
      37A     -0.535380    38A     -0.527375    39A     -0.523547
      40A     -0.496016    41A     -0.471839    42A     -0.466055
      43A     -0.463799    44A     -0.462981    45A     -0.454130
      46A     -0.373930    47A     -0.294596    48A     -0.275682

    Virtual:

      49A      0.123836    50A      0.168024    51A      0.176682
      52A      0.180987    53A      0.192501    54A      0.209695
      55A      0.216000    56A      0.224046    57A      0.229041
      58A      0.239197    59A      0.244758    60A      0.256605
      61A      0.264225    62A      0.271591    63A      0.279701
      64A      0.292392    65A      0.300306    66A      0.310628
      67A      0.316139    68A      0.339662    69A      0.370633
      70A      0.376998    71A      0.388691    72A      0.398890
      73A      0.419943    74A      0.432850    75A      0.445563
      76A      0.468692    77A      0.478340    78A      0.502280
      79A      0.516601    80A      0.578329    81A      0.596631
      82A      0.604875    83A      0.611613    84A      0.619622
      85A      0.624211    86A      0.635821    87A      0.642387
      88A      0.646537    89A      0.664150    90A      0.693871
      91A      0.704488    92A      0.714830    93A      0.730715
      94A      0.731314    95A      0.739334    96A      0.744571
      97A      0.756725    98A      0.759443    99A      0.776032
     100A      0.784309   101A      0.789904   102A      0.802013
     103A      0.807466   104A      0.825851   105A      0.844799
     106A      0.855553   107A      0.862382   108A      0.864396
     109A      0.874068   110A      0.882478   111A      0.884054
     112A      0.895619   113A      0.897117   114A      0.905356
     115A      0.914160   116A      0.914618   117A      0.921183
     118A      0.929624   119A      0.935472   120A      0.949676
     121A      0.954349   122A      0.957802   123A      0.962880
     124A      0.970529   125A      0.983477   126A      0.990147
     127A      1.005152   128A      1.023297   129A      1.068659
     130A      1.079576   131A      1.091835   132A      1.123189
     133A      1.128264   134A      1.134124   135A      1.142606
     136A      1.146168   137A      1.154673   138A      1.173570
     139A      1.207566   140A      1.216377   141A      1.224116
     142A      1.229686   143A      1.251964   144A      1.255805
     145A      1.284631   146A      1.294948   147A      1.295443
     148A      1.327521   149A      1.329822   150A      1.360506
     151A      1.367453   152A      1.382261   153A      1.419576
     154A      1.445367   155A      1.485814   156A      1.498196
     157A      1.509884   158A      1.532857   159A      1.542789
     160A      1.562276   161A      1.595478   162A      1.629226
     163A      1.631795   164A      1.638472   165A      1.650804
     166A      1.677539   167A      1.692898   168A      1.696632
     169A      1.705060   170A      1.710187   171A      1.738805
     172A      1.750477   173A      1.764059   174A      1.785857
     175A      1.805186   176A      1.819785   177A      1.829895
     178A      1.861469   179A      1.871445   180A      1.882752
     181A      1.890849   182A      1.894061   183A      1.900296
     184A      1.904323   185A      1.912852   186A      1.919490
     187A      1.934720   188A      1.947592   189A      1.949044
     190A      1.954873   191A      1.960693   192A      1.965631
     193A      1.970598   194A      1.979915   195A      1.991531
     196A      2.000840   197A      2.001562   198A      2.007211
     199A      2.012308   200A      2.019582   201A      2.033792
     202A      2.051872   203A      2.065578   204A      2.073206
     205A      2.084091   206A      2.091626   207A      2.106731
     208A      2.119829   209A      2.119955   210A      2.140842
     211A      2.158410   212A      2.170000   213A      2.176201
     214A      2.185116   215A      2.225190   216A      2.264375
     217A      2.277451   218A      2.297110   219A      2.301568
     220A      2.306636   221A      2.313835   222A      2.331713
     223A      2.335750   224A      2.342419   225A      2.351198
     226A      2.386684   227A      2.399904   228A      2.447234
     229A      2.459303   230A      2.495402   231A      2.529865
     232A      2.557343   233A      2.579540   234A      2.582688
     235A      2.590454   236A      2.613731   237A      2.625036
     238A      2.652092   239A      2.657657   240A      2.673066
     241A      2.709385   242A      2.760441   243A      2.766970
     244A      2.773645   245A      2.782316   246A      2.784765
     247A      2.798912   248A      2.801999   249A      2.819154
     250A      2.821306   251A      2.842227   252A      2.867773
     253A      2.916872   254A      2.930598   255A      2.966789
     256A      2.979936   257A      2.982697   258A      3.011715
     259A      3.046823   260A      3.062998   261A      3.090529
     262A      3.114476   263A      3.195353   264A      3.289433
     265A      3.359280   266A      3.729066   267A      3.936911

    Final Occupation by Irrep:
              A
    DOCC [    48 ]

  @RHF Final Energy:  -518.80434327742557

   => Energetics <=

    Nuclear Repulsion Energy =            733.4832969773713103
    One-Electron Energy =               -2156.7453275197685798
    Two-Electron Energy =                 904.4576872649716961
    Total Energy =                       -518.8043432774255734

Computation Completed

Properties will be evaluated at   0.000000,   0.000000,   0.000000 [a0]

Properties computed using the SCF density matrix

  Nuclear Dipole Moment: [e a0]
     X:    20.1588      Y:     0.8820      Z:     1.1244

  Electronic Dipole Moment: [e a0]
     X:   -20.9627      Y:    -0.5698      Z:    -0.8191

  Dipole Moment: [e a0]
     X:    -0.8038      Y:     0.3121      Z:     0.3053     Total:     0.9148

  Dipole Moment: [D]
     X:    -2.0432      Y:     0.7934      Z:     0.7760     Total:     2.3251

*** tstop() called on ds3 at Mon Apr 27 22:28:10 2020
Module time:
	user time   =     252.62 seconds =       4.21 minutes
	system time =     114.90 seconds =       1.92 minutes
	total time  =        564 seconds =       9.40 minutes
Total time:
	user time   =     252.62 seconds =       4.21 minutes
	system time =     114.90 seconds =       1.92 minutes
	total time  =        564 seconds =       9.40 minutes
                                     G D M A

                                 by Anthony Stone

                           version 2.2.06, 22 June 2011

               Distributed Multipoles from Gaussian wavefunctions

Starting at 22:28:10 on 27 Apr 2020

Using SCF density matrix from file ./SSI/SSI-100TRP-103LYS-2-dimer.test.6899.fchk

                         Distributed Multipole Analysis

Standard DMA

Positions and radii in angstrom
Multipole moments in atomic units, ea_0^k for rank k

C          x = -1.521655  y =  2.404090  z = -2.225856 angstrom
           Maximum rank =  0   Radius =  0.650 angstrom
                   Q00  =  -0.219983

C          x = -1.160655  y =  0.316090  z = -0.629856 angstrom
           Maximum rank =  0   Radius =  0.650 angstrom
                   Q00  =  -0.052888

C          x = -1.871655  y =  1.497090  z = -1.050856 angstrom
           Maximum rank =  0   Radius =  0.650 angstrom
                   Q00  =  -0.123691

C          x = -1.868655  y = -0.250910  z =  0.470144 angstrom
           Maximum rank =  0   Radius =  0.650 angstrom
                   Q00  =   0.244240

C          x = -2.936655  y =  1.607090  z = -0.202856 angstrom
           Maximum rank =  0   Radius =  0.650 angstrom
                   Q00  =   0.076970

C          x =  0.419345  y = -1.498910  z = -0.469856 angstrom
           Maximum rank =  0   Radius =  0.650 angstrom
                   Q00  =  -0.109945

C          x = -0.278655  y = -2.014910  z =  0.637144 angstrom
           Maximum rank =  0   Radius =  0.650 angstrom
                   Q00  =  -0.003467

C          x = -0.027655  y = -0.356910  z = -1.120856 angstrom
           Maximum rank =  0   Radius =  0.650 angstrom
                   Q00  =  -0.094788

C          x = -1.430655  y = -1.404910  z =  1.114144 angstrom
           Maximum rank =  0   Radius =  0.650 angstrom
                   Q00  =  -0.118887

N          x = -2.933655  y =  0.573090  z =  0.720144 angstrom
           Maximum rank =  0   Radius =  0.650 angstrom
                   Q00  =  -0.502951

H          x =  1.311345  y = -2.005910  z = -0.808856 angstrom
           Maximum rank =  0   Radius =  0.325 angstrom
                   Q00  =   0.060823

H          x =  0.088345  y = -2.908910  z =  1.127144 angstrom
           Maximum rank =  0   Radius =  0.325 angstrom
                   Q00  =   0.065627

H          x =  0.512345  y =  0.043090  z = -1.967856 angstrom
           Maximum rank =  0   Radius =  0.325 angstrom
                   Q00  =   0.070038

H          x = -1.967655  y = -1.805910  z =  1.963144 angstrom
           Maximum rank =  0   Radius =  0.325 angstrom
                   Q00  =   0.073271

H          x = -0.460655  y =  2.295090  z = -2.442856 angstrom
           Maximum rank =  0   Radius =  0.325 angstrom
                   Q00  =   0.107652

H          x = -1.700655  y =  3.440090  z = -1.935856 angstrom
           Maximum rank =  0   Radius =  0.325 angstrom
                   Q00  =   0.106147

H          x = -3.686655  y =  2.373090  z = -0.233856 angstrom
           Maximum rank =  0   Radius =  0.325 angstrom
                   Q00  =   0.097786

H          x = -3.625655  y =  0.456090  z =  1.453144 angstrom
           Maximum rank =  0   Radius =  0.325 angstrom
                   Q00  =   0.218995

H          x = -2.081335  y =  2.186238  z = -3.147430 angstrom
           Maximum rank =  0   Radius =  0.325 angstrom
                   Q00  =   0.103444

C          x =  3.799345  y = -0.029910  z =  0.481144 angstrom
           Maximum rank =  0   Radius =  0.650 angstrom
                   Q00  =  -0.081774

C          x =  5.075345  y = -0.790910  z =  0.097144 angstrom
           Maximum rank =  0   Radius =  0.650 angstrom
                   Q00  =  -0.236331

C          x =  3.420345  y = -0.224910  z =  1.959144 angstrom
           Maximum rank =  0   Radius =  0.650 angstrom
                   Q00  =  -0.257462

H          x =  3.953345  y =  1.025090  z =  0.275144 angstrom
           Maximum rank =  0   Radius =  0.325 angstrom
                   Q00  =   0.047471

H          x =  2.969345  y = -0.381910  z = -0.128856 angstrom
           Maximum rank =  0   Radius =  0.325 angstrom
                   Q00  =   0.060594

H          x =  5.018345  y = -1.815910  z =  0.464144 angstrom
           Maximum rank =  0   Radius =  0.325 angstrom
                   Q00  =   0.073606

H          x =  5.926345  y = -0.302910  z =  0.578144 angstrom
           Maximum rank =  0   Radius =  0.325 angstrom
                   Q00  =   0.074113

H          x =  3.381345  y = -1.276910  z =  2.211144 angstrom
           Maximum rank =  0   Radius =  0.325 angstrom
                   Q00  =   0.075322

H          x =  4.185345  y =  0.228090  z =  2.594144 angstrom
           Maximum rank =  0   Radius =  0.325 angstrom
                   Q00  =   0.069763

H          x =  5.233975  y = -0.815204  z = -0.991087 angstrom
           Maximum rank =  0   Radius =  0.325 angstrom
                   Q00  =   0.082240

H          x =  2.436895  y =  0.209285  z =  2.192162 angstrom
           Maximum rank =  0   Radius =  0.325 angstrom
                   Q00  =   0.094065

Total multipoles referred to origin at
           x =   0.000000,  y =    0.000000,  z =    0.000000 angstrom
                   Q00  =  -0.000000

Finished at 22:28:10 on 27 Apr 2020

  DMA results are available in the Python driver through the
	  variable('DMA DISTRIBUTED MULTIPOLES')
  and
	  variable('DMA TOTAL MULTIPOLES')
  commands.

    Psi4 stopped on: Monday, 27 April 2020 10:28PM
    Psi4 wall time for execution: 0:09:23.70

*** Psi4 exiting successfully. Buy a developer a beer!
