                               Psi4 1.3.2 release

  ==> Input File <==

--------------------------------------------------------------------------
import numpy as np
set {scf_type pk
basis cc-pvdz
d_convergence 10
gdma_switch   0
gdma_limit    0
gdma_origin   [ 0.0,  0.0,  0.0 ]
}
molecule test {
    units Angstrom
    0 1
    --
    0 1
    C                0.569797145229026    -0.270987756820637     1.931793710549068
    C                1.998797145229026     0.173012243179363     2.067793710548068
    H                0.203797145229026    -0.060987756820637     0.937793710548068
    H                0.533797145229026    -1.318987756820637     2.169793710549068
    H               -0.042202854770974     0.266012243179363     2.654793710549068
    H                2.532797145229026    -0.129987756820637     1.165793710548068
    H                2.466064145229026    -0.319975756820637     2.933023710549068
    H                2.034844145229027     1.268839243179363     2.156473710548068
    C               -0.617202854770974     0.223012243179363    -1.675206289450932
    C               -1.956202854770974    -0.118987756820637    -2.322206289451932
    H                0.161797145229026     0.276012243179363    -2.436206289451932
    H               -0.666202854770974     1.178012243179364    -1.148206289451932
    H               -0.348202854770974    -0.583987756820637    -0.999206289451932
    H               -1.953202854770974    -1.178987756820637    -2.565206289450932
    H               -2.778335854770973     0.105164243179363    -1.626606289450932
    H               -2.087660854770974     0.426850243179363    -3.268136289450932

}
e, wfn = energy('scf', return_wfn=True)
gdma(wfn)
dmavals = variable('DMA DISTRIBUTED MULTIPOLES')
charges = np.array(dmavals)
print(charges)
np.save('SSI-019VAL-138VAL-1-dimer.npy', np.array(charges))--------------------------------------------------------------------------

*** tstart() called on ds3
*** at Sun Apr 26 23:25:07 2020

   => Loading Basis Set <=

    Name: CC-PVDZ
    Role: ORBITAL
    Keyword: BASIS
    atoms 1-2, 9-10  entry C          line   138 file /theoryfs2/ds/metcalf/miniconda2/envs/tf2gpu/share/psi4/basis/cc-pvdz.gbs
    atoms 3-8, 11-16 entry H          line    22 file /theoryfs2/ds/metcalf/miniconda2/envs/tf2gpu/share/psi4/basis/cc-pvdz.gbs

         ---------------------------------------------------------
                                   SCF
               by Justin Turney, Rob Parrish, Andy Simmonett
                          and Daniel G. A. Smith
                              RHF Reference
                        1 Threads,    500 MiB Core
         ---------------------------------------------------------

  ==> Geometry <==

    Molecular point group: c1
    Full point group: C1

    Geometry (in Angstrom), charge = 0, multiplicity = 1:

       Center              X                  Y                   Z               Mass
    ------------   -----------------  -----------------  -----------------  -----------------
         C            0.569797145229    -0.270987756821     1.931793710549    12.000000000000
         C            1.998797145229     0.173012243179     2.067793710548    12.000000000000
         H            0.203797145229    -0.060987756821     0.937793710548     1.007825032230
         H            0.533797145229    -1.318987756821     2.169793710549     1.007825032230
         H           -0.042202854771     0.266012243179     2.654793710549     1.007825032230
         H            2.532797145229    -0.129987756821     1.165793710548     1.007825032230
         H            2.466064145229    -0.319975756821     2.933023710549     1.007825032230
         H            2.034844145229     1.268839243179     2.156473710548     1.007825032230
         C           -0.617202854771     0.223012243179    -1.675206289451    12.000000000000
         C           -1.956202854771    -0.118987756821    -2.322206289452    12.000000000000
         H            0.161797145229     0.276012243179    -2.436206289452     1.007825032230
         H           -0.666202854771     1.178012243179    -1.148206289452     1.007825032230
         H           -0.348202854771    -0.583987756821    -0.999206289452     1.007825032230
         H           -1.953202854771    -1.178987756821    -2.565206289451     1.007825032230
         H           -2.778335854771     0.105164243179    -1.626606289451     1.007825032230
         H           -2.087660854771     0.426850243179    -3.268136289451     1.007825032230

  Running in c1 symmetry.

  Rotational constants: A =      0.56999  B =      0.04529  C =      0.04334 [cm^-1]
  Rotational constants: A =  17088.01834  B =   1357.82108  C =   1299.40300 [MHz]
  Nuclear repulsion =  121.639644231784260

  Charge       = 0
  Multiplicity = 1
  Electrons    = 36
  Nalpha       = 18
  Nbeta        = 18

  ==> Algorithm <==

  SCF Algorithm Type is PK.
  DIIS enabled.
  MOM disabled.
  Fractional occupation disabled.
  Guess Type is SAD.
  Energy threshold   = 1.00e-06
  Density threshold  = 1.00e-10
  Integral threshold = 0.00e+00

  ==> Primary Basis <==

  Basis Set: CC-PVDZ
    Blend: CC-PVDZ
    Number of shells: 60
    Number of basis function: 116
    Number of Cartesian functions: 120
    Spherical Harmonics?: true
    Max angular momentum: 2

  ==> Pre-Iterations <==

   -------------------------------------------------------
    Irrep   Nso     Nmo     Nalpha   Nbeta   Ndocc  Nsocc
   -------------------------------------------------------
     A        116     116       0       0       0       0
   -------------------------------------------------------
    Total     116     116      18      18      18       0
   -------------------------------------------------------

  ==> Integral Setup <==

  Using integral reordering PK algorithm.
  Sizing the integral batches needed.
  Building batch lookup table.
   Calculation information:
      Number of atoms:                  16
      Number of AO shells:              60
      Number of primitives:            148
      Number of atomic orbitals:       120
      Number of basis functions:       116

      Integral cutoff                 1.00e-12
      Number of threads:                 1

	Batch   1 pq = [       0,    6786] index = [             0,23028291] size =     23028291
  Task number: 3
  Buffer size: 11059200
  Buffer per thread: 2
  We computed 1396506 shell quartets total.
  Whereas there are 1675365 unique shell quartets.

  ==> DiskJK: Disk-Based J/K Matrices <==

    J tasked:                  Yes
    K tasked:                  Yes
    wK tasked:                  No
    Memory [MiB]:              375
    Schwarz Cutoff:          1E-12

    OpenMP threads:              1

  Minimum eigenvalue in the overlap matrix is 7.0153302194E-03.
  Using Symmetric Orthogonalization.

  SCF Guess: Superposition of Atomic Densities via on-the-fly atomic UHF.

  ==> Iterations <==

                        Total Energy        Delta E     RMS |[F,P]|

   @RHF iter SAD:  -157.43103219983527   -1.57431e+02   0.00000e+00
   @RHF iter   1:  -158.29867375842460   -8.67642e-01   4.27244e-03 DIIS
   @RHF iter   2:  -158.43464599717331   -1.35972e-01   1.81697e-03 DIIS
   @RHF iter   3:  -158.45854928291214   -2.39033e-02   3.51768e-04 DIIS
   @RHF iter   4:  -158.46039815735062   -1.84887e-03   3.94200e-05 DIIS
   @RHF iter   5:  -158.46042288822804   -2.47309e-05   6.97296e-06 DIIS
   @RHF iter   6:  -158.46042358180003   -6.93572e-07   1.42712e-06 DIIS
   @RHF iter   7:  -158.46042360107754   -1.92775e-08   3.16640e-07 DIIS
   @RHF iter   8:  -158.46042360208457   -1.00704e-09   4.29724e-08 DIIS
   @RHF iter   9:  -158.46042360211283   -2.82512e-11   9.00768e-09 DIIS
   @RHF iter  10:  -158.46042360211385   -1.02318e-12   2.32791e-09 DIIS
   @RHF iter  11:  -158.46042360211413   -2.84217e-13   7.04200e-10 DIIS
   @RHF iter  12:  -158.46042360211439   -2.55795e-13   1.77702e-10 DIIS
   @RHF iter  13:  -158.46042360211425    1.42109e-13   2.57696e-11 DIIS
  Energy and wave function converged.

  ==> Post-Iterations <==

    Orbital Energies [Eh]
    ---------------------

    Doubly Occupied:

       1A    -11.219237     2A    -11.217144     3A    -11.214935
       4A    -11.208310     5A     -1.025774     6A     -1.020256
       7A     -0.838783     8A     -0.830566     9A     -0.610070
      10A     -0.603109    11A     -0.601376    12A     -0.594085
      13A     -0.506332    14A     -0.497605    15A     -0.489658
      16A     -0.488069    17A     -0.482020    18A     -0.472490

    Virtual:

      19A      0.176201    20A      0.194906    21A      0.234987
      22A      0.237682    23A      0.240906    24A      0.249123
      25A      0.252230    26A      0.273735    27A      0.291321
      28A      0.299392    29A      0.317084    30A      0.339390
      31A      0.391116    32A      0.412514    33A      0.584170
      34A      0.596830    35A      0.599793    36A      0.609590
      37A      0.616647    38A      0.632500    39A      0.680320
      40A      0.684188    41A      0.697562    42A      0.804872
      43A      0.845830    44A      0.869191    45A      0.876067
      46A      0.879977    47A      0.891879    48A      0.892276
      49A      0.904813    50A      0.907209    51A      0.915545
      52A      0.926463    53A      0.928900    54A      0.945969
      55A      0.973891    56A      1.011214    57A      1.113743
      58A      1.118213    59A      1.126241    60A      1.159156
      61A      1.228915    62A      1.339411    63A      1.478297
      64A      1.485411    65A      1.496175    66A      1.512039
      67A      1.557060    68A      1.598774    69A      1.675726
      70A      1.680509    71A      1.686102    72A      1.709451
      73A      1.845105    74A      1.859015    75A      1.863807
      76A      1.872579    77A      1.915462    78A      1.922538
      79A      1.926879    80A      1.934107    81A      1.941701
      82A      1.946909    83A      1.950001    84A      1.961585
      85A      1.967876    86A      1.972322    87A      1.979234
      88A      2.023962    89A      2.138718    90A      2.140981
      91A      2.162301    92A      2.181356    93A      2.290333
      94A      2.299409    95A      2.303013    96A      2.311600
      97A      2.429528    98A      2.434157    99A      2.467493
     100A      2.470836   101A      2.583520   102A      2.588442
     103A      2.598441   104A      2.620620   105A      2.763348
     106A      2.767132   107A      2.785216   108A      2.814957
     109A      2.824928   110A      2.834391   111A      2.849010
     112A      2.859979   113A      2.935404   114A      2.958073
     115A      2.979956   116A      2.998516

    Final Occupation by Irrep:
              A
    DOCC [    18 ]

  @RHF Final Energy:  -158.46042360211425

   => Energetics <=

    Nuclear Repulsion Energy =            121.6396442317842599
    One-Electron Energy =                -452.3604989315792295
    Two-Electron Energy =                 172.2604310976807369
    Total Energy =                       -158.4604236021142469

Computation Completed

Properties will be evaluated at   0.000000,   0.000000,   0.000000 [a0]

Properties computed using the SCF density matrix

  Nuclear Dipole Moment: [e a0]
     X:     0.0537      Y:    -0.0675      Z:    -0.0243

  Electronic Dipole Moment: [e a0]
     X:    -0.0680      Y:     0.0472      Z:    -0.0162

  Dipole Moment: [e a0]
     X:    -0.0143      Y:    -0.0204      Z:    -0.0405     Total:     0.0475

  Dipole Moment: [D]
     X:    -0.0362      Y:    -0.0517      Z:    -0.1029     Total:     0.1208

*** tstop() called on ds3 at Sun Apr 26 23:25:16 2020
Module time:
	user time   =       7.26 seconds =       0.12 minutes
	system time =       2.77 seconds =       0.05 minutes
	total time  =          9 seconds =       0.15 minutes
Total time:
	user time   =       7.26 seconds =       0.12 minutes
	system time =       2.77 seconds =       0.05 minutes
	total time  =          9 seconds =       0.15 minutes
                                     G D M A

                                 by Anthony Stone

                           version 2.2.06, 22 June 2011

               Distributed Multipoles from Gaussian wavefunctions

Starting at 23:25:16 on 26 Apr 2020

Using SCF density matrix from file ./SSI/SSI-019VAL-138VAL-1-dimer.test.31359.fchk

                         Distributed Multipole Analysis

Standard DMA

Positions and radii in angstrom
Multipole moments in atomic units, ea_0^k for rank k

C          x =  0.569797  y = -0.270988  z =  1.931794 angstrom
           Maximum rank =  0   Radius =  0.650 angstrom
                   Q00  =  -0.236369

C          x =  1.998797  y =  0.173012  z =  2.067794 angstrom
           Maximum rank =  0   Radius =  0.650 angstrom
                   Q00  =  -0.231930

H          x =  0.203797  y = -0.060988  z =  0.937794 angstrom
           Maximum rank =  0   Radius =  0.325 angstrom
                   Q00  =   0.092177

H          x =  0.533797  y = -1.318988  z =  2.169794 angstrom
           Maximum rank =  0   Radius =  0.325 angstrom
                   Q00  =   0.079114

H          x = -0.042203  y =  0.266012  z =  2.654794 angstrom
           Maximum rank =  0   Radius =  0.325 angstrom
                   Q00  =   0.071173

H          x =  2.532797  y = -0.129988  z =  1.165794 angstrom
           Maximum rank =  0   Radius =  0.325 angstrom
                   Q00  =   0.072224

H          x =  2.466064  y = -0.319976  z =  2.933024 angstrom
           Maximum rank =  0   Radius =  0.325 angstrom
                   Q00  =   0.080636

H          x =  2.034844  y =  1.268839  z =  2.156474 angstrom
           Maximum rank =  0   Radius =  0.325 angstrom
                   Q00  =   0.073577

C          x = -0.617203  y =  0.223012  z = -1.675206 angstrom
           Maximum rank =  0   Radius =  0.650 angstrom
                   Q00  =  -0.228512

C          x = -1.956203  y = -0.118988  z = -2.322206 angstrom
           Maximum rank =  0   Radius =  0.650 angstrom
                   Q00  =  -0.247312

H          x =  0.161797  y =  0.276012  z = -2.436206 angstrom
           Maximum rank =  0   Radius =  0.325 angstrom
                   Q00  =   0.078957

H          x = -0.666203  y =  1.178012  z = -1.148206 angstrom
           Maximum rank =  0   Radius =  0.325 angstrom
                   Q00  =   0.078335

H          x = -0.348203  y = -0.583988  z = -0.999206 angstrom
           Maximum rank =  0   Radius =  0.325 angstrom
                   Q00  =   0.078429

H          x = -1.953203  y = -1.178988  z = -2.565206 angstrom
           Maximum rank =  0   Radius =  0.325 angstrom
                   Q00  =   0.082675

H          x = -2.778336  y =  0.105164  z = -1.626606 angstrom
           Maximum rank =  0   Radius =  0.325 angstrom
                   Q00  =   0.079388

H          x = -2.087661  y =  0.426850  z = -3.268136 angstrom
           Maximum rank =  0   Radius =  0.325 angstrom
                   Q00  =   0.077439

Total multipoles referred to origin at
           x =   0.000000,  y =    0.000000,  z =    0.000000 angstrom
                   Q00  =  -0.000000

Finished at 23:25:16 on 26 Apr 2020

  DMA results are available in the Python driver through the
	  variable('DMA DISTRIBUTED MULTIPOLES')
  and
	  variable('DMA TOTAL MULTIPOLES')
  commands.

    Psi4 stopped on: Sunday, 26 April 2020 11:25PM
    Psi4 wall time for execution: 0:00:09.86

*** Psi4 exiting successfully. Buy a developer a beer!
