                               Psi4 1.3.2 release

  ==> Input File <==

--------------------------------------------------------------------------
import numpy as np
set {scf_type pk
basis cc-pvdz
d_convergence 10
gdma_switch   0
gdma_limit    0
gdma_origin   [ 0.0,  0.0,  0.0 ]
}
molecule test {
    units Angstrom
    0 1
    --
    0 1
    C               -1.341246304825205    -2.254881267570299    -1.387936510120223
    C               -0.661246304825205    -1.069881267570299     0.703063489879777
    C               -0.323246304825205    -1.478881267570299    -0.556936510120223
    C                0.227753695174795    -0.339881267570299     1.463063489879777
    C                0.994753695174795    -1.217881267570299    -0.984936510120223
    C                1.499753695174795    -0.083881267570299     1.049063489879777
    C                1.908753695174795    -0.545881267570299    -0.183936510120223
    H               -1.619246304825205    -1.331881267570299     1.115063489879777
    H               -0.097246304825205     0.012118732429701     2.421063489879777
    H               -2.333246304825205    -1.831881267570299    -1.224936510120223
    H               -1.354246304825205    -3.280881267570299    -1.029936510120223
    H                1.330753695174795    -1.533881267570299    -1.957936510120223
    H                2.179753695174795     0.470118732429701     1.683063489879777
    H                2.915753695174795    -0.360881267570299    -0.532936510120223
    H               -1.125796304825205    -2.260641267570299    -2.466616510120224
    C               -1.324246304825205     2.581118732429701    -0.363936510120223
    C               -0.514246304825205     3.686118732429701     0.412063489879777
    H               -1.771246304825205     3.022118732429701    -1.251936510120223
    H               -0.641246304825205     1.786118732429701    -0.668936510120223
    H               -2.093246304825205     2.137118732429701     0.267063489879777
    H               -0.146246304825205     3.231118732429701     1.332063489879777
    H               -1.169926304825205     4.527602732429701     0.680363489879777
    H                0.367523695174795     4.033459732429701    -0.146366510120223

}
e, wfn = energy('scf', return_wfn=True)
gdma(wfn)
dmavals = variable('DMA DISTRIBUTED MULTIPOLES')
charges = np.array(dmavals)
print(charges)
np.save('SSI-008PHE-097VAL-1-dimer.npy', np.array(charges))--------------------------------------------------------------------------

*** tstart() called on ds3
*** at Sun Apr 26 23:55:08 2020

   => Loading Basis Set <=

    Name: CC-PVDZ
    Role: ORBITAL
    Keyword: BASIS
    atoms 1-7, 16-17  entry C          line   138 file /theoryfs2/ds/metcalf/miniconda2/envs/tf2gpu/share/psi4/basis/cc-pvdz.gbs
    atoms 8-15, 18-23 entry H          line    22 file /theoryfs2/ds/metcalf/miniconda2/envs/tf2gpu/share/psi4/basis/cc-pvdz.gbs

         ---------------------------------------------------------
                                   SCF
               by Justin Turney, Rob Parrish, Andy Simmonett
                          and Daniel G. A. Smith
                              RHF Reference
                        1 Threads,    500 MiB Core
         ---------------------------------------------------------

  ==> Geometry <==

    Molecular point group: c1
    Full point group: C1

    Geometry (in Angstrom), charge = 0, multiplicity = 1:

       Center              X                  Y                   Z               Mass
    ------------   -----------------  -----------------  -----------------  -----------------
         C           -1.341246304825    -2.254881267570    -1.387936510120    12.000000000000
         C           -0.661246304825    -1.069881267570     0.703063489880    12.000000000000
         C           -0.323246304825    -1.478881267570    -0.556936510120    12.000000000000
         C            0.227753695175    -0.339881267570     1.463063489880    12.000000000000
         C            0.994753695175    -1.217881267570    -0.984936510120    12.000000000000
         C            1.499753695175    -0.083881267570     1.049063489880    12.000000000000
         C            1.908753695175    -0.545881267570    -0.183936510120    12.000000000000
         H           -1.619246304825    -1.331881267570     1.115063489880     1.007825032230
         H           -0.097246304825     0.012118732430     2.421063489880     1.007825032230
         H           -2.333246304825    -1.831881267570    -1.224936510120     1.007825032230
         H           -1.354246304825    -3.280881267570    -1.029936510120     1.007825032230
         H            1.330753695175    -1.533881267570    -1.957936510120     1.007825032230
         H            2.179753695175     0.470118732430     1.683063489880     1.007825032230
         H            2.915753695175    -0.360881267570    -0.532936510120     1.007825032230
         H           -1.125796304825    -2.260641267570    -2.466616510120     1.007825032230
         C           -1.324246304825     2.581118732430    -0.363936510120    12.000000000000
         C           -0.514246304825     3.686118732430     0.412063489880    12.000000000000
         H           -1.771246304825     3.022118732430    -1.251936510120     1.007825032230
         H           -0.641246304825     1.786118732430    -0.668936510120     1.007825032230
         H           -2.093246304825     2.137118732430     0.267063489880     1.007825032230
         H           -0.146246304825     3.231118732430     1.332063489880     1.007825032230
         H           -1.169926304825     4.527602732430     0.680363489880     1.007825032230
         H            0.367523695175     4.033459732430    -0.146366510120     1.007825032230

  Running in c1 symmetry.

  Rotational constants: A =      0.06313  B =      0.03043  C =      0.02547 [cm^-1]
  Rotational constants: A =   1892.56854  B =    912.30506  C =    763.69614 [MHz]
  Nuclear repulsion =  415.341614243976380

  Charge       = 0
  Multiplicity = 1
  Electrons    = 68
  Nalpha       = 34
  Nbeta        = 34

  ==> Algorithm <==

  SCF Algorithm Type is PK.
  DIIS enabled.
  MOM disabled.
  Fractional occupation disabled.
  Guess Type is SAD.
  Energy threshold   = 1.00e-06
  Density threshold  = 1.00e-10
  Integral threshold = 0.00e+00

  ==> Primary Basis <==

  Basis Set: CC-PVDZ
    Blend: CC-PVDZ
    Number of shells: 96
    Number of basis function: 196
    Number of Cartesian functions: 205
    Spherical Harmonics?: true
    Max angular momentum: 2

  ==> Pre-Iterations <==

   -------------------------------------------------------
    Irrep   Nso     Nmo     Nalpha   Nbeta   Ndocc  Nsocc
   -------------------------------------------------------
     A        196     196       0       0       0       0
   -------------------------------------------------------
    Total     196     196      34      34      34       0
   -------------------------------------------------------

  ==> Integral Setup <==

  Using integral reordering PK algorithm.
  Sizing the integral batches needed.
  Building batch lookup table.
   Calculation information:
      Number of atoms:                  23
      Number of AO shells:              96
      Number of primitives:            268
      Number of atomic orbitals:       205
      Number of basis functions:       196

      Integral cutoff                 1.00e-12
      Number of threads:                 1

	Batch   1 pq = [       0,    9405] index = [             0,44231715] size =     44231715
	Batch   2 pq = [    9405,   13301] index = [      44231715,88464951] size =     44233236
	Batch   3 pq = [   13301,   16290] index = [      88464951,132690195] size =     44225244
	Batch   4 pq = [   16290,   18810] index = [     132690195,176917455] size =     44227260
	Batch   5 pq = [   18810,   19306] index = [     176917455,186370471] size =      9453016
  Task number: 17
  Buffer size: 11059200
  Buffer per thread: 2
  We computed 10322695 shell quartets total.
  Whereas there are 10841496 unique shell quartets.

  ==> DiskJK: Disk-Based J/K Matrices <==

    J tasked:                  Yes
    K tasked:                  Yes
    wK tasked:                  No
    Memory [MiB]:              375
    Schwarz Cutoff:          1E-12

    OpenMP threads:              1

  Minimum eigenvalue in the overlap matrix is 2.9105031051E-04.
  Using Symmetric Orthogonalization.

  SCF Guess: Superposition of Atomic Densities via on-the-fly atomic UHF.

  ==> Iterations <==

                        Total Energy        Delta E     RMS |[F,P]|

   @RHF iter SAD:  -347.88936507459243   -3.47889e+02   0.00000e+00
   @RHF iter   1:  -348.76490274137842   -8.75538e-01   2.89189e-03 DIIS
   @RHF iter   2:  -348.95646327070790   -1.91561e-01   1.20484e-03 DIIS
   @RHF iter   3:  -348.98667100906681   -3.02077e-02   2.57236e-04 DIIS
   @RHF iter   4:  -348.98911652672803   -2.44552e-03   5.10333e-05 DIIS
   @RHF iter   5:  -348.98918827372302   -7.17470e-05   1.54749e-05 DIIS
   @RHF iter   6:  -348.98919486345335   -6.58973e-06   4.23150e-06 DIIS
   @RHF iter   7:  -348.98919538102916   -5.17576e-07   1.25741e-06 DIIS
   @RHF iter   8:  -348.98919544515263   -6.41235e-08   3.76984e-07 DIIS
   @RHF iter   9:  -348.98919545845979   -1.33072e-08   1.71085e-07 DIIS
   @RHF iter  10:  -348.98919546171447   -3.25468e-09   7.59950e-08 DIIS
   @RHF iter  11:  -348.98919546250443   -7.89953e-10   2.70429e-08 DIIS
   @RHF iter  12:  -348.98919546258776   -8.33325e-11   1.30699e-08 DIIS
   @RHF iter  13:  -348.98919546259430   -6.53699e-12   3.38241e-09 DIIS
   @RHF iter  14:  -348.98919546259668   -2.38742e-12   9.50338e-10 DIIS
   @RHF iter  15:  -348.98919546259577    9.09495e-13   4.03190e-10 DIIS
   @RHF iter  16:  -348.98919546259663   -8.52651e-13   1.78547e-10 DIIS
   @RHF iter  17:  -348.98919546259646    1.70530e-13   7.15509e-11 DIIS
  Energy and wave function converged.

  ==> Post-Iterations <==

    Orbital Energies [Eh]
    ---------------------

    Doubly Occupied:

       1A    -11.241949     2A    -11.233771     3A    -11.232440
       4A    -11.231401     5A    -11.227814     6A    -11.226109
       7A    -11.224271     8A    -11.215693     9A    -11.210403
      10A     -1.159868    11A     -1.047171    12A     -1.013719
      13A     -0.998575    14A     -0.934940    15A     -0.832732
      16A     -0.825931    17A     -0.799168    18A     -0.695321
      19A     -0.634320    20A     -0.627682    21A     -0.585905
      22A     -0.584024    23A     -0.581602    24A     -0.575867
      25A     -0.564614    26A     -0.540123    27A     -0.496450
      28A     -0.488347    29A     -0.484803    30A     -0.480248
      31A     -0.477725    32A     -0.475169    33A     -0.333552
      34A     -0.325574

    Virtual:

      35A      0.137479    36A      0.143931    37A      0.173329
      38A      0.194548    39A      0.205253    40A      0.216221
      41A      0.236408    42A      0.247939    43A      0.256836
      44A      0.263881    45A      0.267868    46A      0.272962
      47A      0.283690    48A      0.285120    49A      0.301992
      50A      0.308061    51A      0.371044    52A      0.373832
      53A      0.390880    54A      0.456676    55A      0.468300
      56A      0.476418    57A      0.496796    58A      0.556399
      59A      0.575572    60A      0.592695    61A      0.606680
      62A      0.609665    63A      0.638499    64A      0.651124
      65A      0.682647    66A      0.693170    67A      0.699617
      68A      0.710974    69A      0.730756    70A      0.740284
      71A      0.745111    72A      0.759002    73A      0.763448
      74A      0.785798    75A      0.802267    76A      0.825427
      77A      0.841283    78A      0.849611    79A      0.859442
      80A      0.861107    81A      0.863707    82A      0.883816
      83A      0.896011    84A      0.897867    85A      0.901248
      86A      0.904558    87A      0.906119    88A      0.926800
      89A      0.936187    90A      0.941059    91A      0.955946
      92A      0.969292    93A      0.995172    94A      1.003447
      95A      1.024246    96A      1.086897    97A      1.124698
      98A      1.126057    99A      1.137796   100A      1.144326
     101A      1.152740   102A      1.167910   103A      1.194865
     104A      1.232776   105A      1.236308   106A      1.239500
     107A      1.264827   108A      1.280325   109A      1.297401
     110A      1.315381   111A      1.319894   112A      1.345307
     113A      1.414610   114A      1.461688   115A      1.484250
     116A      1.508906   117A      1.531458   118A      1.564301
     119A      1.589383   120A      1.595377   121A      1.650178
     122A      1.689776   123A      1.693097   124A      1.703457
     125A      1.739700   126A      1.749583   127A      1.773739
     128A      1.799015   129A      1.832864   130A      1.853909
     131A      1.869237   132A      1.881609   133A      1.884648
     134A      1.893129   135A      1.904954   136A      1.912700
     137A      1.914821   138A      1.923575   139A      1.937085
     140A      1.944843   141A      1.947429   142A      1.948399
     143A      1.958529   144A      1.965002   145A      1.974351
     146A      1.986643   147A      1.992565   148A      2.003950
     149A      2.050061   150A      2.069798   151A      2.088683
     152A      2.104678   153A      2.112363   154A      2.141803
     155A      2.150443   156A      2.169408   157A      2.179129
     158A      2.191791   159A      2.205444   160A      2.269418
     161A      2.274769   162A      2.289082   163A      2.296211
     164A      2.304866   165A      2.314674   166A      2.335678
     167A      2.345213   168A      2.445965   169A      2.462624
     170A      2.465547   171A      2.469242   172A      2.493405
     173A      2.550370   174A      2.558905   175A      2.585211
     176A      2.640145   177A      2.742536   178A      2.753909
     179A      2.767117   180A      2.771876   181A      2.796895
     182A      2.805250   183A      2.834203   184A      2.846753
     185A      2.854246   186A      2.861581   187A      2.867069
     188A      2.946388   189A      2.960872   190A      3.012128
     191A      3.024689   192A      3.053930   193A      3.175147
     194A      3.228516   195A      3.324114   196A      3.997754

    Final Occupation by Irrep:
              A
    DOCC [    34 ]

  @RHF Final Energy:  -348.98919546259646

   => Energetics <=

    Nuclear Repulsion Energy =            415.3416142439763803
    One-Electron Energy =               -1293.4470540129057099
    Two-Electron Energy =                 529.1162443063328737
    Total Energy =                       -348.9891954625963990

Computation Completed

Properties will be evaluated at   0.000000,   0.000000,   0.000000 [a0]

Properties computed using the SCF density matrix

  Nuclear Dipole Moment: [e a0]
     X:    -5.2104      Y:     8.0807      Z:    -1.6696

  Electronic Dipole Moment: [e a0]
     X:     5.1537      Y:    -8.2727      Z:     1.6114

  Dipole Moment: [e a0]
     X:    -0.0567      Y:    -0.1920      Z:    -0.0581     Total:     0.2085

  Dipole Moment: [D]
     X:    -0.1441      Y:    -0.4880      Z:    -0.1478     Total:     0.5298

*** tstop() called on ds3 at Sun Apr 26 23:56:44 2020
Module time:
	user time   =      71.48 seconds =       1.19 minutes
	system time =      28.04 seconds =       0.47 minutes
	total time  =         96 seconds =       1.60 minutes
Total time:
	user time   =      71.48 seconds =       1.19 minutes
	system time =      28.04 seconds =       0.47 minutes
	total time  =         96 seconds =       1.60 minutes
                                     G D M A

                                 by Anthony Stone

                           version 2.2.06, 22 June 2011

               Distributed Multipoles from Gaussian wavefunctions

Starting at 23:56:44 on 26 Apr 2020

Using SCF density matrix from file ./SSI/SSI-008PHE-097VAL-1-dimer.test.5281.fchk

                         Distributed Multipole Analysis

Standard DMA

Positions and radii in angstrom
Multipole moments in atomic units, ea_0^k for rank k

C          x = -1.341246  y = -2.254881  z = -1.387937 angstrom
           Maximum rank =  0   Radius =  0.650 angstrom
                   Q00  =  -0.213373

C          x = -0.661246  y = -1.069881  z =  0.703063 angstrom
           Maximum rank =  0   Radius =  0.650 angstrom
                   Q00  =  -0.081816

C          x = -0.323246  y = -1.478881  z = -0.556937 angstrom
           Maximum rank =  0   Radius =  0.650 angstrom
                   Q00  =  -0.094412

C          x =  0.227754  y = -0.339881  z =  1.463063 angstrom
           Maximum rank =  0   Radius =  0.650 angstrom
                   Q00  =   0.037868

C          x =  0.994754  y = -1.217881  z = -0.984937 angstrom
           Maximum rank =  0   Radius =  0.650 angstrom
                   Q00  =  -0.069372

C          x =  1.499754  y = -0.083881  z =  1.049063 angstrom
           Maximum rank =  0   Radius =  0.650 angstrom
                   Q00  =  -0.085263

C          x =  1.908754  y = -0.545881  z = -0.183937 angstrom
           Maximum rank =  0   Radius =  0.650 angstrom
                   Q00  =  -0.086497

H          x = -1.619246  y = -1.331881  z =  1.115063 angstrom
           Maximum rank =  0   Radius =  0.325 angstrom
                   Q00  =   0.051496

H          x = -0.097246  y =  0.012119  z =  2.421063 angstrom
           Maximum rank =  0   Radius =  0.325 angstrom
                   Q00  =   0.055670

H          x = -2.333246  y = -1.831881  z = -1.224937 angstrom
           Maximum rank =  0   Radius =  0.325 angstrom
                   Q00  =   0.101749

H          x = -1.354246  y = -3.280881  z = -1.029937 angstrom
           Maximum rank =  0   Radius =  0.325 angstrom
                   Q00  =   0.106036

H          x =  1.330754  y = -1.533881  z = -1.957937 angstrom
           Maximum rank =  0   Radius =  0.325 angstrom
                   Q00  =   0.054510

H          x =  2.179754  y =  0.470119  z =  1.683063 angstrom
           Maximum rank =  0   Radius =  0.325 angstrom
                   Q00  =   0.058314

H          x =  2.915754  y = -0.360881  z = -0.532937 angstrom
           Maximum rank =  0   Radius =  0.325 angstrom
                   Q00  =   0.064738

H          x = -1.125796  y = -2.260641  z = -2.466617 angstrom
           Maximum rank =  0   Radius =  0.325 angstrom
                   Q00  =   0.103782

C          x = -1.324246  y =  2.581119  z = -0.363937 angstrom
           Maximum rank =  0   Radius =  0.650 angstrom
                   Q00  =  -0.242157

C          x = -0.514246  y =  3.686119  z =  0.412063 angstrom
           Maximum rank =  0   Radius =  0.650 angstrom
                   Q00  =  -0.253206

H          x = -1.771246  y =  3.022119  z = -1.251937 angstrom
           Maximum rank =  0   Radius =  0.325 angstrom
                   Q00  =   0.075891

H          x = -0.641246  y =  1.786119  z = -0.668937 angstrom
           Maximum rank =  0   Radius =  0.325 angstrom
                   Q00  =   0.095583

H          x = -2.093246  y =  2.137119  z =  0.267063 angstrom
           Maximum rank =  0   Radius =  0.325 angstrom
                   Q00  =   0.080894

H          x = -0.146246  y =  3.231119  z =  1.332063 angstrom
           Maximum rank =  0   Radius =  0.325 angstrom
                   Q00  =   0.077136

H          x = -1.169926  y =  4.527603  z =  0.680363 angstrom
           Maximum rank =  0   Radius =  0.325 angstrom
                   Q00  =   0.078219

H          x =  0.367524  y =  4.033460  z = -0.146367 angstrom
           Maximum rank =  0   Radius =  0.325 angstrom
                   Q00  =   0.084210

Total multipoles referred to origin at
           x =   0.000000,  y =    0.000000,  z =    0.000000 angstrom
                   Q00  =  -0.000000

Finished at 23:56:44 on 26 Apr 2020

  DMA results are available in the Python driver through the
	  variable('DMA DISTRIBUTED MULTIPOLES')
  and
	  variable('DMA TOTAL MULTIPOLES')
  commands.

    Psi4 stopped on: Sunday, 26 April 2020 11:56PM
    Psi4 wall time for execution: 0:01:36.35

*** Psi4 exiting successfully. Buy a developer a beer!
