                               Psi4 1.3.2 release

  ==> Input File <==

--------------------------------------------------------------------------
import numpy as np
set {scf_type pk
basis cc-pvdz
d_convergence 10
gdma_switch   0
gdma_limit    0
gdma_origin   [ 0.0,  0.0,  0.0 ]
}
molecule test {
    units Angstrom
    0 1
    --
    0 1
    C                1.065104243797010    -1.302795449986262     0.507991439488114
    C                2.469104243797010    -0.708795449986262     0.480991439488114
    C                0.744104243797010    -1.964795449986262    -0.832008560511886
    H                0.999104243797010    -2.040795449986262     1.307991439488114
    H                0.340104243797010    -0.514795449986262     0.699991439488114
    H                2.501104243797010    -0.036795449986262    -0.363008560511886
    H                3.191104243797010    -1.513795449986262     0.331991439488114
    H                0.899104243797010    -1.232795449986262    -1.630008560511886
    H                1.429104243797011    -2.800795449986262    -0.991008560511886
    H                2.739931243797010    -0.117575449986262     1.368181439488114
    H               -0.293095756202990    -2.327635449986262    -0.882608560511886
    C               -1.592895756202989     1.378204550013738    -0.010008560511886
    C               -2.617895756202989     2.508204550013738    -0.109008560511886
    H               -0.577895756202989     1.778204550013738    -0.026008560511886
    H               -1.736895756202990     0.833204550013738     0.920991439488114
    H               -1.713895756202989     0.695204550013738    -0.852008560511886
    H               -2.480895756202989     3.158204550013738     0.750991439488114
    H               -2.463525756202990     3.093664550013738    -1.027388560511886
    H               -3.637315756202990     2.097844550013738    -0.060048560511886

}
e, wfn = energy('scf', return_wfn=True)
gdma(wfn)
dmavals = variable('DMA DISTRIBUTED MULTIPOLES')
charges = np.array(dmavals)
print(charges)
np.save('SSI-009LYS-171VAL-1-dimer.npy', np.array(charges))--------------------------------------------------------------------------

*** tstart() called on ds3
*** at Mon Apr 27 06:52:42 2020

   => Loading Basis Set <=

    Name: CC-PVDZ
    Role: ORBITAL
    Keyword: BASIS
    atoms 1-3, 12-13  entry C          line   138 file /theoryfs2/ds/metcalf/miniconda2/envs/tf2gpu/share/psi4/basis/cc-pvdz.gbs
    atoms 4-11, 14-19 entry H          line    22 file /theoryfs2/ds/metcalf/miniconda2/envs/tf2gpu/share/psi4/basis/cc-pvdz.gbs

         ---------------------------------------------------------
                                   SCF
               by Justin Turney, Rob Parrish, Andy Simmonett
                          and Daniel G. A. Smith
                              RHF Reference
                        1 Threads,    500 MiB Core
         ---------------------------------------------------------

  ==> Geometry <==

    Molecular point group: c1
    Full point group: C1

    Geometry (in Angstrom), charge = 0, multiplicity = 1:

       Center              X                  Y                   Z               Mass
    ------------   -----------------  -----------------  -----------------  -----------------
         C            1.065104243797    -1.302795449986     0.507991439488    12.000000000000
         C            2.469104243797    -0.708795449986     0.480991439488    12.000000000000
         C            0.744104243797    -1.964795449986    -0.832008560512    12.000000000000
         H            0.999104243797    -2.040795449986     1.307991439488     1.007825032230
         H            0.340104243797    -0.514795449986     0.699991439488     1.007825032230
         H            2.501104243797    -0.036795449986    -0.363008560512     1.007825032230
         H            3.191104243797    -1.513795449986     0.331991439488     1.007825032230
         H            0.899104243797    -1.232795449986    -1.630008560512     1.007825032230
         H            1.429104243797    -2.800795449986    -0.991008560512     1.007825032230
         H            2.739931243797    -0.117575449986     1.368181439488     1.007825032230
         H           -0.293095756203    -2.327635449986    -0.882608560512     1.007825032230
         C           -1.592895756203     1.378204550014    -0.010008560512    12.000000000000
         C           -2.617895756203     2.508204550014    -0.109008560512    12.000000000000
         H           -0.577895756203     1.778204550014    -0.026008560512     1.007825032230
         H           -1.736895756203     0.833204550014     0.920991439488     1.007825032230
         H           -1.713895756203     0.695204550014    -0.852008560512     1.007825032230
         H           -2.480895756203     3.158204550014     0.750991439488     1.007825032230
         H           -2.463525756203     3.093664550014    -1.027388560512     1.007825032230
         H           -3.637315756203     2.097844550014    -0.060048560512     1.007825032230

  Running in c1 symmetry.

  Rotational constants: A =      0.24338  B =      0.03674  C =      0.03374 [cm^-1]
  Rotational constants: A =   7296.49476  B =   1101.50944  C =   1011.46934 [MHz]
  Nuclear repulsion =  176.749027481704189

  Charge       = 0
  Multiplicity = 1
  Electrons    = 44
  Nalpha       = 22
  Nbeta        = 22

  ==> Algorithm <==

  SCF Algorithm Type is PK.
  DIIS enabled.
  MOM disabled.
  Fractional occupation disabled.
  Guess Type is SAD.
  Energy threshold   = 1.00e-06
  Density threshold  = 1.00e-10
  Integral threshold = 0.00e+00

  ==> Primary Basis <==

  Basis Set: CC-PVDZ
    Blend: CC-PVDZ
    Number of shells: 72
    Number of basis function: 140
    Number of Cartesian functions: 145
    Spherical Harmonics?: true
    Max angular momentum: 2

  ==> Pre-Iterations <==

   -------------------------------------------------------
    Irrep   Nso     Nmo     Nalpha   Nbeta   Ndocc  Nsocc
   -------------------------------------------------------
     A        140     140       0       0       0       0
   -------------------------------------------------------
    Total     140     140      22      22      22       0
   -------------------------------------------------------

  ==> Integral Setup <==

  Using integral reordering PK algorithm.
  Sizing the integral batches needed.
  Building batch lookup table.
   Calculation information:
      Number of atoms:                  19
      Number of AO shells:              72
      Number of primitives:            180
      Number of atomic orbitals:       145
      Number of basis functions:       140

      Integral cutoff                 1.00e-12
      Number of threads:                 1

	Batch   1 pq = [       0,    9405] index = [             0,44231715] size =     44231715
	Batch   2 pq = [    9405,    9870] index = [      44231715,48713385] size =      4481670
  Task number: 5
  Buffer size: 11059200
  Buffer per thread: 2
  We computed 2755454 shell quartets total.
  Whereas there are 3454506 unique shell quartets.

  ==> DiskJK: Disk-Based J/K Matrices <==

    J tasked:                  Yes
    K tasked:                  Yes
    wK tasked:                  No
    Memory [MiB]:              375
    Schwarz Cutoff:          1E-12

    OpenMP threads:              1

  Minimum eigenvalue in the overlap matrix is 5.6070748368E-03.
  Using Symmetric Orthogonalization.

  SCF Guess: Superposition of Atomic Densities via on-the-fly atomic UHF.

  ==> Iterations <==

                        Total Energy        Delta E     RMS |[F,P]|

   @RHF iter SAD:  -196.38548528535964   -1.96385e+02   0.00000e+00
   @RHF iter   1:  -197.31142287298024   -9.25938e-01   3.81283e-03 DIIS
   @RHF iter   2:  -197.47182408614336   -1.60401e-01   1.64884e-03 DIIS
   @RHF iter   3:  -197.50049170399606   -2.86676e-02   3.26945e-04 DIIS
   @RHF iter   4:  -197.50272660877448   -2.23490e-03   4.89181e-05 DIIS
   @RHF iter   5:  -197.50276639015610   -3.97814e-05   1.50270e-05 DIIS
   @RHF iter   6:  -197.50276989663124   -3.50648e-06   2.55616e-06 DIIS
   @RHF iter   7:  -197.50277001737996   -1.20749e-07   5.02594e-07 DIIS
   @RHF iter   8:  -197.50277002293936   -5.55940e-09   1.30326e-07 DIIS
   @RHF iter   9:  -197.50277002329648   -3.57119e-10   4.20793e-08 DIIS
   @RHF iter  10:  -197.50277002333721   -4.07283e-11   8.74707e-09 DIIS
   @RHF iter  11:  -197.50277002333914   -1.93268e-12   1.57779e-09 DIIS
   @RHF iter  12:  -197.50277002333900    1.42109e-13   2.87603e-10 DIIS
   @RHF iter  13:  -197.50277002333908   -8.52651e-14   5.41377e-11 DIIS
  Energy and wave function converged.

  ==> Post-Iterations <==

    Orbital Energies [Eh]
    ---------------------

    Doubly Occupied:

       1A    -11.219904     2A    -11.218167     3A    -11.216986
       4A    -11.216018     5A    -11.213730     6A     -1.054998
       7A     -1.019723     8A     -0.920950     9A     -0.838163
      10A     -0.796937    11A     -0.629032    12A     -0.600940
      13A     -0.598174    14A     -0.597056    15A     -0.540255
      16A     -0.529462    17A     -0.502394    18A     -0.489626
      19A     -0.485125    20A     -0.473518    21A     -0.468449
      22A     -0.466030

    Virtual:

      23A      0.170602    24A      0.193463    25A      0.218076
      26A      0.226916    27A      0.228548    28A      0.254677
      29A      0.260518    30A      0.268104    31A      0.273890
      32A      0.285600    33A      0.292543    34A      0.297611
      35A      0.317158    36A      0.326961    37A      0.370766
      38A      0.420764    39A      0.426807    40A      0.578430
      41A      0.590565    42A      0.595564    43A      0.602951
      44A      0.609409    45A      0.621186    46A      0.629875
      47A      0.687132    48A      0.695465    49A      0.708735
      50A      0.792372    51A      0.824225    52A      0.846070
      53A      0.869413    54A      0.879764    55A      0.881644
      56A      0.892681    57A      0.893924    58A      0.903375
      59A      0.907949    60A      0.911990    61A      0.915479
      62A      0.922563    63A      0.929701    64A      0.937892
      65A      0.951027    66A      0.980297    67A      0.985582
      68A      1.038212    69A      1.125872    70A      1.127325
      71A      1.131098    72A      1.135253    73A      1.221147
      74A      1.273900    75A      1.363020    76A      1.468428
      77A      1.476353    78A      1.486806    79A      1.496892
      80A      1.555527    81A      1.576337    82A      1.611079
      83A      1.676567    84A      1.678010    85A      1.691970
      86A      1.697690    87A      1.704383    88A      1.830642
      89A      1.855935    90A      1.861781    91A      1.878708
      92A      1.892449    93A      1.911157    94A      1.925034
      95A      1.935119    96A      1.938883    97A      1.945028
      98A      1.950152    99A      1.960766   100A      1.966252
     101A      1.966889   102A      1.981255   103A      1.982964
     104A      2.006183   105A      2.027439   106A      2.045968
     107A      2.061153   108A      2.090520   109A      2.117751
     110A      2.120953   111A      2.160686   112A      2.294414
     113A      2.300526   114A      2.303934   115A      2.320776
     116A      2.328128   117A      2.364042   118A      2.451874
     119A      2.467739   120A      2.500240   121A      2.546381
     122A      2.556450   123A      2.574902   124A      2.580778
     125A      2.609470   126A      2.647263   127A      2.755034
     128A      2.766242   129A      2.774600   130A      2.788449
     131A      2.803559   132A      2.821877   133A      2.846108
     134A      2.855844   135A      2.917081   136A      2.941512
     137A      2.955982   138A      2.969653   139A      2.979797
     140A      3.082260

    Final Occupation by Irrep:
              A
    DOCC [    22 ]

  @RHF Final Energy:  -197.50277002333908

   => Energetics <=

    Nuclear Repulsion Energy =            176.7490274817041893
    One-Electron Energy =                -614.3123174652658918
    Two-Electron Energy =                 240.0605199602226492
    Total Energy =                       -197.5027700233390817

Computation Completed

Properties will be evaluated at   0.000000,   0.000000,   0.000000 [a0]

Properties computed using the SCF density matrix

  Nuclear Dipole Moment: [e a0]
     X:    -0.7537      Y:     1.0044      Z:    -0.4237

  Electronic Dipole Moment: [e a0]
     X:     0.7183      Y:    -0.9777      Z:     0.4485

  Dipole Moment: [e a0]
     X:    -0.0354      Y:     0.0266      Z:     0.0248     Total:     0.0508

  Dipole Moment: [D]
     X:    -0.0900      Y:     0.0677      Z:     0.0631     Total:     0.1291

*** tstop() called on ds3 at Mon Apr 27 06:53:06 2020
Module time:
	user time   =      15.21 seconds =       0.25 minutes
	system time =       6.45 seconds =       0.11 minutes
	total time  =         24 seconds =       0.40 minutes
Total time:
	user time   =      15.21 seconds =       0.25 minutes
	system time =       6.45 seconds =       0.11 minutes
	total time  =         24 seconds =       0.40 minutes
                                     G D M A

                                 by Anthony Stone

                           version 2.2.06, 22 June 2011

               Distributed Multipoles from Gaussian wavefunctions

Starting at 6:53:6 on 27 Apr 2020

Using SCF density matrix from file ./SSI/SSI-009LYS-171VAL-1-dimer.test.7482.fchk

                         Distributed Multipole Analysis

Standard DMA

Positions and radii in angstrom
Multipole moments in atomic units, ea_0^k for rank k

C          x =  1.065104  y = -1.302795  z =  0.507991 angstrom
           Maximum rank =  0   Radius =  0.650 angstrom
                   Q00  =  -0.089725

C          x =  2.469104  y = -0.708795  z =  0.480991 angstrom
           Maximum rank =  0   Radius =  0.650 angstrom
                   Q00  =  -0.227945

C          x =  0.744104  y = -1.964795  z = -0.832009 angstrom
           Maximum rank =  0   Radius =  0.650 angstrom
                   Q00  =  -0.252904

H          x =  0.999104  y = -2.040795  z =  1.307991 angstrom
           Maximum rank =  0   Radius =  0.325 angstrom
                   Q00  =   0.046374

H          x =  0.340104  y = -0.514795  z =  0.699991 angstrom
           Maximum rank =  0   Radius =  0.325 angstrom
                   Q00  =   0.055697

H          x =  2.501104  y = -0.036795  z = -0.363009 angstrom
           Maximum rank =  0   Radius =  0.325 angstrom
                   Q00  =   0.071374

H          x =  3.191104  y = -1.513795  z =  0.331991 angstrom
           Maximum rank =  0   Radius =  0.325 angstrom
                   Q00  =   0.075712

H          x =  0.899104  y = -1.232795  z = -1.630009 angstrom
           Maximum rank =  0   Radius =  0.325 angstrom
                   Q00  =   0.073402

H          x =  1.429104  y = -2.800795  z = -0.991009 angstrom
           Maximum rank =  0   Radius =  0.325 angstrom
                   Q00  =   0.076022

H          x =  2.739931  y = -0.117575  z =  1.368181 angstrom
           Maximum rank =  0   Radius =  0.325 angstrom
                   Q00  =   0.084446

H          x = -0.293096  y = -2.327635  z = -0.882609 angstrom
           Maximum rank =  0   Radius =  0.325 angstrom
                   Q00  =   0.085158

C          x = -1.592896  y =  1.378205  z = -0.010009 angstrom
           Maximum rank =  0   Radius =  0.650 angstrom
                   Q00  =  -0.255859

C          x = -2.617896  y =  2.508205  z = -0.109009 angstrom
           Maximum rank =  0   Radius =  0.650 angstrom
                   Q00  =  -0.219168

H          x = -0.577896  y =  1.778205  z = -0.026009 angstrom
           Maximum rank =  0   Radius =  0.325 angstrom
                   Q00  =   0.077488

H          x = -1.736896  y =  0.833205  z =  0.920991 angstrom
           Maximum rank =  0   Radius =  0.325 angstrom
                   Q00  =   0.078076

H          x = -1.713896  y =  0.695205  z = -0.852009 angstrom
           Maximum rank =  0   Radius =  0.325 angstrom
                   Q00  =   0.080164

H          x = -2.480896  y =  3.158205  z =  0.750991 angstrom
           Maximum rank =  0   Radius =  0.325 angstrom
                   Q00  =   0.078745

H          x = -2.463526  y =  3.093665  z = -1.027389 angstrom
           Maximum rank =  0   Radius =  0.325 angstrom
                   Q00  =   0.081999

H          x = -3.637316  y =  2.097845  z = -0.060049 angstrom
           Maximum rank =  0   Radius =  0.325 angstrom
                   Q00  =   0.080942

Total multipoles referred to origin at
           x =   0.000000,  y =    0.000000,  z =    0.000000 angstrom
                   Q00  =  -0.000000

Finished at 6:53:6 on 27 Apr 2020

  DMA results are available in the Python driver through the
	  variable('DMA DISTRIBUTED MULTIPOLES')
  and
	  variable('DMA TOTAL MULTIPOLES')
  commands.

    Psi4 stopped on: Monday, 27 April 2020 06:53AM
    Psi4 wall time for execution: 0:00:23.72

*** Psi4 exiting successfully. Buy a developer a beer!
