                               Psi4 1.3.2 release

  ==> Input File <==

--------------------------------------------------------------------------
import numpy as np
set {scf_type pk
basis cc-pvdz
d_convergence 10
gdma_switch   0
gdma_limit    0
gdma_origin   [ 0.0,  0.0,  0.0 ]
}
molecule test {
    units Angstrom
    0 1
    --
    0 1
    C               -0.681636674388599    -0.402912910603670     2.132848380776736
    C               -1.431636674388599     0.899087089396330     2.424848380776736
    H               -1.234636674388599    -1.024912910603670     1.431848380776735
    H                0.285363325611401    -0.164912910603670     1.693848380776735
    H               -0.499636674388599    -0.944912910603670     3.056848380776735
    H               -1.559636674388599     1.433087089396330     1.483848380776736
    H               -2.420628674388599     0.727807089396330     2.874908380776735
    H               -0.824683674388599     1.538947089396330     3.082258380776735
    C                0.468363325611401    -1.485912910603670    -1.547151619223264
    C                0.482363325611401    -0.063912910603670    -1.164151619223265
    O               -0.494636674388599     0.654087089396330    -1.321151619223265
    N                1.609363325611401     0.362087089396330    -0.628151619223265
    H                0.644363325611401    -2.102912910603670    -0.669151619223265
    H                1.303363325611401    -1.646912910603670    -2.231151619223264
    H                1.680363325611401     1.334087089396330    -0.367151619223265
    H                2.414363325611401    -0.250912910603670    -0.573151619223265
    H               -0.457164674388599    -1.764602910603670    -2.072251619223265

}
e, wfn = energy('scf', return_wfn=True)
gdma(wfn)
dmavals = variable('DMA DISTRIBUTED MULTIPOLES')
charges = np.array(dmavals)
print(charges)
np.save('SSI-059LEU-119GLN-1-dimer.npy', np.array(charges))--------------------------------------------------------------------------

*** tstart() called on ds3
*** at Mon Apr 27 12:51:40 2020

   => Loading Basis Set <=

    Name: CC-PVDZ
    Role: ORBITAL
    Keyword: BASIS
    atoms 1-2, 9-10  entry C          line   138 file /theoryfs2/ds/metcalf/miniconda2/envs/tf2gpu/share/psi4/basis/cc-pvdz.gbs
    atoms 3-8, 13-17 entry H          line    22 file /theoryfs2/ds/metcalf/miniconda2/envs/tf2gpu/share/psi4/basis/cc-pvdz.gbs
    atoms 11         entry O          line   198 file /theoryfs2/ds/metcalf/miniconda2/envs/tf2gpu/share/psi4/basis/cc-pvdz.gbs
    atoms 12         entry N          line   168 file /theoryfs2/ds/metcalf/miniconda2/envs/tf2gpu/share/psi4/basis/cc-pvdz.gbs

         ---------------------------------------------------------
                                   SCF
               by Justin Turney, Rob Parrish, Andy Simmonett
                          and Daniel G. A. Smith
                              RHF Reference
                        1 Threads,    500 MiB Core
         ---------------------------------------------------------

  ==> Geometry <==

    Molecular point group: c1
    Full point group: C1

    Geometry (in Angstrom), charge = 0, multiplicity = 1:

       Center              X                  Y                   Z               Mass
    ------------   -----------------  -----------------  -----------------  -----------------
         C           -0.681636674389    -0.402912910604     2.132848380777    12.000000000000
         C           -1.431636674389     0.899087089396     2.424848380777    12.000000000000
         H           -1.234636674389    -1.024912910604     1.431848380777     1.007825032230
         H            0.285363325611    -0.164912910604     1.693848380777     1.007825032230
         H           -0.499636674389    -0.944912910604     3.056848380777     1.007825032230
         H           -1.559636674389     1.433087089396     1.483848380777     1.007825032230
         H           -2.420628674389     0.727807089396     2.874908380777     1.007825032230
         H           -0.824683674389     1.538947089396     3.082258380777     1.007825032230
         C            0.468363325611    -1.485912910604    -1.547151619223    12.000000000000
         C            0.482363325611    -0.063912910604    -1.164151619223    12.000000000000
         O           -0.494636674389     0.654087089396    -1.321151619223    15.994914619570
         N            1.609363325611     0.362087089396    -0.628151619223    14.003074004430
         H            0.644363325611    -2.102912910604    -0.669151619223     1.007825032230
         H            1.303363325611    -1.646912910604    -2.231151619223     1.007825032230
         H            1.680363325611     1.334087089396    -0.367151619223     1.007825032230
         H            2.414363325611    -0.250912910604    -0.573151619223     1.007825032230
         H           -0.457164674389    -1.764602910604    -2.072251619223     1.007825032230

  Running in c1 symmetry.

  Rotational constants: A =      0.15738  B =      0.04760  C =      0.04644 [cm^-1]
  Rotational constants: A =   4718.05839  B =   1427.01677  C =   1392.29885 [MHz]
  Nuclear repulsion =  241.340469610041993

  Charge       = 0
  Multiplicity = 1
  Electrons    = 50
  Nalpha       = 25
  Nbeta        = 25

  ==> Algorithm <==

  SCF Algorithm Type is PK.
  DIIS enabled.
  MOM disabled.
  Fractional occupation disabled.
  Guess Type is SAD.
  Energy threshold   = 1.00e-06
  Density threshold  = 1.00e-10
  Integral threshold = 0.00e+00

  ==> Primary Basis <==

  Basis Set: CC-PVDZ
    Blend: CC-PVDZ
    Number of shells: 69
    Number of basis function: 139
    Number of Cartesian functions: 145
    Spherical Harmonics?: true
    Max angular momentum: 2

  ==> Pre-Iterations <==

   -------------------------------------------------------
    Irrep   Nso     Nmo     Nalpha   Nbeta   Ndocc  Nsocc
   -------------------------------------------------------
     A        139     139       0       0       0       0
   -------------------------------------------------------
    Total     139     139      25      25      25       0
   -------------------------------------------------------

  ==> Integral Setup <==

  Using integral reordering PK algorithm.
  Sizing the integral batches needed.
  Building batch lookup table.
   Calculation information:
      Number of atoms:                  17
      Number of AO shells:              69
      Number of primitives:            187
      Number of atomic orbitals:       145
      Number of basis functions:       139

      Integral cutoff                 1.00e-12
      Number of threads:                 1

	Batch   1 pq = [       0,    9730] index = [             0,47341315] size =     47341315
  Task number: 5
  Buffer size: 11059200
  Buffer per thread: 2
  We computed 2754829 shell quartets total.
  Whereas there are 2917320 unique shell quartets.

  ==> DiskJK: Disk-Based J/K Matrices <==

    J tasked:                  Yes
    K tasked:                  Yes
    wK tasked:                  No
    Memory [MiB]:              375
    Schwarz Cutoff:          1E-12

    OpenMP threads:              1

  Minimum eigenvalue in the overlap matrix is 4.0315456458E-03.
  Using Symmetric Orthogonalization.

  SCF Guess: Superposition of Atomic Densities via on-the-fly atomic UHF.

  ==> Iterations <==

                        Total Energy        Delta E     RMS |[F,P]|

   @RHF iter SAD:  -286.04903529204313   -2.86049e+02   0.00000e+00
   @RHF iter   1:  -286.99560453318435   -9.46569e-01   4.62829e-03 DIIS
   @RHF iter   2:  -287.17323491799914   -1.77630e-01   2.56526e-03 DIIS
   @RHF iter   3:  -287.22236116427939   -4.91262e-02   5.36731e-04 DIIS
   @RHF iter   4:  -287.22567789520554   -3.31673e-03   2.21071e-04 DIIS
   @RHF iter   5:  -287.22627623119752   -5.98336e-04   3.38190e-05 DIIS
   @RHF iter   6:  -287.22630582463398   -2.95934e-05   1.47459e-05 DIIS
   @RHF iter   7:  -287.22631025682836   -4.43219e-06   5.99312e-06 DIIS
   @RHF iter   8:  -287.22631122135147   -9.64523e-07   2.05648e-06 DIIS
   @RHF iter   9:  -287.22631134327469   -1.21923e-07   5.07885e-07 DIIS
   @RHF iter  10:  -287.22631134842953   -5.15485e-09   1.54027e-07 DIIS
   @RHF iter  11:  -287.22631134897813   -5.48596e-10   3.47716e-08 DIIS
   @RHF iter  12:  -287.22631134900803   -2.98996e-11   8.13524e-09 DIIS
   @RHF iter  13:  -287.22631134900945   -1.42109e-12   1.96915e-09 DIIS
   @RHF iter  14:  -287.22631134901098   -1.53477e-12   9.09900e-10 DIIS
   @RHF iter  15:  -287.22631134901127   -2.84217e-13   3.96539e-10 DIIS
   @RHF iter  16:  -287.22631134900882    2.44427e-12   1.47825e-10 DIIS
   @RHF iter  17:  -287.22631134900928   -4.54747e-13   5.86667e-11 DIIS
  Energy and wave function converged.

  ==> Post-Iterations <==

    Orbital Energies [Eh]
    ---------------------

    Doubly Occupied:

       1A    -20.505300     2A    -15.589632     3A    -11.343528
       4A    -11.238230     5A    -11.208720     6A    -11.207958
       7A     -1.373859     8A     -1.222980     9A     -1.010361
      10A     -1.008311    11A     -0.829194    12A     -0.800930
      13A     -0.729739    14A     -0.660373    15A     -0.623583
      16A     -0.588933    17A     -0.586044    18A     -0.574874
      19A     -0.558754    20A     -0.520361    21A     -0.492015
      22A     -0.478311    23A     -0.474304    24A     -0.412737
      25A     -0.406692

    Virtual:

      26A      0.157582    27A      0.192688    28A      0.203094
      29A      0.210442    30A      0.235168    31A      0.250922
      32A      0.261073    33A      0.267944    34A      0.281664
      35A      0.290815    36A      0.301623    37A      0.314652
      38A      0.387608    39A      0.408344    40A      0.465484
      41A      0.544672    42A      0.602982    43A      0.606731
      44A      0.609816    45A      0.641682    46A      0.648929
      47A      0.680738    48A      0.697310    49A      0.711877
      50A      0.743842    51A      0.752487    52A      0.836892
      53A      0.841659    54A      0.858859    55A      0.876995
      56A      0.893679    57A      0.902583    58A      0.907067
      59A      0.921851    60A      0.928398    61A      0.932805
      62A      0.943913    63A      0.966719    64A      0.977011
      65A      1.029721    66A      1.065875    67A      1.073914
      68A      1.127398    69A      1.139380    70A      1.147586
      71A      1.186866    72A      1.253962    73A      1.329337
      74A      1.354977    75A      1.381149    76A      1.386234
      77A      1.433424    78A      1.469047    79A      1.491647
      80A      1.498639    81A      1.515444    82A      1.609206
      83A      1.656753    84A      1.674298    85A      1.681196
      86A      1.700716    87A      1.771045    88A      1.801396
      89A      1.862118    90A      1.872270    91A      1.884781
      92A      1.894699    93A      1.918549    94A      1.931603
      95A      1.940536    96A      1.946863    97A      1.957424
      98A      1.961997    99A      1.969049   100A      1.988340
     101A      1.991175   102A      2.035822   103A      2.047233
     104A      2.108833   105A      2.112538   106A      2.130262
     107A      2.152716   108A      2.255055   109A      2.269931
     110A      2.310928   111A      2.326707   112A      2.447774
     113A      2.459009   114A      2.469414   115A      2.485388
     116A      2.511578   117A      2.561701   118A      2.567825
     119A      2.590190   120A      2.601374   121A      2.613680
     122A      2.714449   123A      2.751066   124A      2.771772
     125A      2.798909   126A      2.811050   127A      2.872625
     128A      2.875155   129A      2.894817   130A      2.968614
     131A      2.983167   132A      3.010985   133A      3.100963
     134A      3.147556   135A      3.290123   136A      3.526368
     137A      3.568494   138A      3.882826   139A      3.921604

    Final Occupation by Irrep:
              A
    DOCC [    25 ]

  @RHF Final Energy:  -287.22631134900928

   => Energetics <=

    Nuclear Repulsion Energy =            241.3404696100419926
    One-Electron Energy =                -868.2421176803486560
    Two-Electron Energy =                 339.6753367212974126
    Total Energy =                       -287.2263113490092792

Computation Completed

Properties will be evaluated at   0.000000,   0.000000,   0.000000 [a0]

Properties computed using the SCF density matrix

  Nuclear Dipole Moment: [e a0]
     X:    -0.6338      Y:    -2.6848      Z:     7.2240

  Electronic Dipole Moment: [e a0]
     X:     2.1624      Y:     1.9945      Z:    -7.0619

  Dipole Moment: [e a0]
     X:     1.5286      Y:    -0.6904      Z:     0.1622     Total:     1.6851

  Dipole Moment: [D]
     X:     3.8854      Y:    -1.7547      Z:     0.4122     Total:     4.2831

*** tstop() called on ds3 at Mon Apr 27 12:52:12 2020
Module time:
	user time   =      22.91 seconds =       0.38 minutes
	system time =       9.28 seconds =       0.15 minutes
	total time  =         32 seconds =       0.53 minutes
Total time:
	user time   =      22.91 seconds =       0.38 minutes
	system time =       9.28 seconds =       0.15 minutes
	total time  =         32 seconds =       0.53 minutes
                                     G D M A

                                 by Anthony Stone

                           version 2.2.06, 22 June 2011

               Distributed Multipoles from Gaussian wavefunctions

Starting at 12:52:12 on 27 Apr 2020

Using SCF density matrix from file ./SSI/SSI-059LEU-119GLN-1-dimer.test.4398.fchk

                         Distributed Multipole Analysis

Standard DMA

Positions and radii in angstrom
Multipole moments in atomic units, ea_0^k for rank k

C          x = -0.681637  y = -0.402913  z =  2.132848 angstrom
           Maximum rank =  0   Radius =  0.650 angstrom
                   Q00  =  -0.237650

C          x = -1.431637  y =  0.899087  z =  2.424848 angstrom
           Maximum rank =  0   Radius =  0.650 angstrom
                   Q00  =  -0.230460

H          x = -1.234637  y = -1.024913  z =  1.431848 angstrom
           Maximum rank =  0   Radius =  0.325 angstrom
                   Q00  =   0.083138

H          x =  0.285363  y = -0.164913  z =  1.693848 angstrom
           Maximum rank =  0   Radius =  0.325 angstrom
                   Q00  =   0.067890

H          x = -0.499637  y = -0.944913  z =  3.056848 angstrom
           Maximum rank =  0   Radius =  0.325 angstrom
                   Q00  =   0.069285

H          x = -1.559637  y =  1.433087  z =  1.483848 angstrom
           Maximum rank =  0   Radius =  0.325 angstrom
                   Q00  =   0.093813

H          x = -2.420629  y =  0.727807  z =  2.874908 angstrom
           Maximum rank =  0   Radius =  0.325 angstrom
                   Q00  =   0.078554

H          x = -0.824684  y =  1.538947  z =  3.082258 angstrom
           Maximum rank =  0   Radius =  0.325 angstrom
                   Q00  =   0.068467

C          x =  0.468363  y = -1.485913  z = -1.547152 angstrom
           Maximum rank =  0   Radius =  0.650 angstrom
                   Q00  =  -0.259395

C          x =  0.482363  y = -0.063913  z = -1.164152 angstrom
           Maximum rank =  0   Radius =  0.650 angstrom
                   Q00  =   0.846111

O          x = -0.494637  y =  0.654087  z = -1.321152 angstrom
           Maximum rank =  0   Radius =  0.650 angstrom
                   Q00  =  -0.802173

N          x =  1.609363  y =  0.362087  z = -0.628152 angstrom
           Maximum rank =  0   Radius =  0.650 angstrom
                   Q00  =  -0.539182

H          x =  0.644363  y = -2.102913  z = -0.669152 angstrom
           Maximum rank =  0   Radius =  0.325 angstrom
                   Q00  =   0.110159

H          x =  1.303363  y = -1.646913  z = -2.231152 angstrom
           Maximum rank =  0   Radius =  0.325 angstrom
                   Q00  =   0.095656

H          x =  1.680363  y =  1.334087  z = -0.367152 angstrom
           Maximum rank =  0   Radius =  0.325 angstrom
                   Q00  =   0.220999

H          x =  2.414363  y = -0.250913  z = -0.573152 angstrom
           Maximum rank =  0   Radius =  0.325 angstrom
                   Q00  =   0.206382

H          x = -0.457165  y = -1.764603  z = -2.072252 angstrom
           Maximum rank =  0   Radius =  0.325 angstrom
                   Q00  =   0.128407

Total multipoles referred to origin at
           x =   0.000000,  y =    0.000000,  z =    0.000000 angstrom
                   Q00  =  -0.000000

Finished at 12:52:12 on 27 Apr 2020

  DMA results are available in the Python driver through the
	  variable('DMA DISTRIBUTED MULTIPOLES')
  and
	  variable('DMA TOTAL MULTIPOLES')
  commands.

    Psi4 stopped on: Monday, 27 April 2020 12:52PM
    Psi4 wall time for execution: 0:00:31.73

*** Psi4 exiting successfully. Buy a developer a beer!
