                               Psi4 1.3.2 release

  ==> Input File <==

--------------------------------------------------------------------------
import numpy as np
set {scf_type pk
basis cc-pvdz
d_convergence 10
gdma_switch   0
gdma_limit    0
gdma_origin   [ 0.0,  0.0,  0.0 ]
}
molecule test {
    units Angstrom
    0 1
    --
    0 1
    C               -0.376979751852957     1.640038466554701    -0.607167683451793
    C               -1.437979751852957     2.608038466554701    -1.086167683451792
    H                0.040020248147043     1.089038466554701    -1.454167683451792
    H                0.420020248147043     2.186038466554701    -0.103167683451792
    H               -0.824979751852957     0.941038466554701     0.096832316548208
    H               -1.817979751852957     3.135038466554701    -0.212167683451792
    H               -2.259114751852957     2.034248466554701    -1.540595683451792
    H               -1.007637751852957     3.353058466554701    -1.771554683451793
    C                1.262020248147043    -1.603961533445299     0.403832316548208
    C                0.555020248147043    -2.645961533445299     1.285832316548207
    H                2.248020248147044    -1.390961533445299     0.817832316548208
    H                1.365020248147043    -1.957961533445299    -0.620167683451793
    H                0.694020248147043    -0.679961533445299     0.344832316548208
    H               -0.449979751852957    -2.791961533445299     0.895832316548207
    H                0.485823248147043    -2.284281533445299     2.322364316548208
    H                1.081989248147043    -3.611351533445299     1.267834316548207

}
e, wfn = energy('scf', return_wfn=True)
gdma(wfn)
dmavals = variable('DMA DISTRIBUTED MULTIPOLES')
charges = np.array(dmavals)
print(charges)
np.save('SSI-016LEU-046ILE-1-dimer.npy', np.array(charges))--------------------------------------------------------------------------

*** tstart() called on ds3
*** at Mon Apr 27 16:38:06 2020

   => Loading Basis Set <=

    Name: CC-PVDZ
    Role: ORBITAL
    Keyword: BASIS
    atoms 1-2, 9-10  entry C          line   138 file /theoryfs2/ds/metcalf/miniconda2/envs/tf2gpu/share/psi4/basis/cc-pvdz.gbs
    atoms 3-8, 11-16 entry H          line    22 file /theoryfs2/ds/metcalf/miniconda2/envs/tf2gpu/share/psi4/basis/cc-pvdz.gbs

         ---------------------------------------------------------
                                   SCF
               by Justin Turney, Rob Parrish, Andy Simmonett
                          and Daniel G. A. Smith
                              RHF Reference
                        1 Threads,    500 MiB Core
         ---------------------------------------------------------

  ==> Geometry <==

    Molecular point group: c1
    Full point group: C1

    Geometry (in Angstrom), charge = 0, multiplicity = 1:

       Center              X                  Y                   Z               Mass
    ------------   -----------------  -----------------  -----------------  -----------------
         C           -0.376979751853     1.640038466555    -0.607167683452    12.000000000000
         C           -1.437979751853     2.608038466555    -1.086167683452    12.000000000000
         H            0.040020248147     1.089038466555    -1.454167683452     1.007825032230
         H            0.420020248147     2.186038466555    -0.103167683452     1.007825032230
         H           -0.824979751853     0.941038466555     0.096832316548     1.007825032230
         H           -1.817979751853     3.135038466555    -0.212167683452     1.007825032230
         H           -2.259114751853     2.034248466555    -1.540595683452     1.007825032230
         H           -1.007637751853     3.353058466555    -1.771554683452     1.007825032230
         C            1.262020248147    -1.603961533445     0.403832316548    12.000000000000
         C            0.555020248147    -2.645961533445     1.285832316548    12.000000000000
         H            2.248020248147    -1.390961533445     0.817832316548     1.007825032230
         H            1.365020248147    -1.957961533445    -0.620167683452     1.007825032230
         H            0.694020248147    -0.679961533445     0.344832316548     1.007825032230
         H           -0.449979751853    -2.791961533445     0.895832316548     1.007825032230
         H            0.485823248147    -2.284281533445     2.322364316548     1.007825032230
         H            1.081989248147    -3.611351533445     1.267834316548     1.007825032230

  Running in c1 symmetry.

  Rotational constants: A =      0.61720  B =      0.04223  C =      0.04085 [cm^-1]
  Rotational constants: A =  18503.12372  B =   1266.08826  C =   1224.63151 [MHz]
  Nuclear repulsion =  120.383997619883829

  Charge       = 0
  Multiplicity = 1
  Electrons    = 36
  Nalpha       = 18
  Nbeta        = 18

  ==> Algorithm <==

  SCF Algorithm Type is PK.
  DIIS enabled.
  MOM disabled.
  Fractional occupation disabled.
  Guess Type is SAD.
  Energy threshold   = 1.00e-06
  Density threshold  = 1.00e-10
  Integral threshold = 0.00e+00

  ==> Primary Basis <==

  Basis Set: CC-PVDZ
    Blend: CC-PVDZ
    Number of shells: 60
    Number of basis function: 116
    Number of Cartesian functions: 120
    Spherical Harmonics?: true
    Max angular momentum: 2

  ==> Pre-Iterations <==

   -------------------------------------------------------
    Irrep   Nso     Nmo     Nalpha   Nbeta   Ndocc  Nsocc
   -------------------------------------------------------
     A        116     116       0       0       0       0
   -------------------------------------------------------
    Total     116     116      18      18      18       0
   -------------------------------------------------------

  ==> Integral Setup <==

  Using integral reordering PK algorithm.
  Sizing the integral batches needed.
  Building batch lookup table.
   Calculation information:
      Number of atoms:                  16
      Number of AO shells:              60
      Number of primitives:            148
      Number of atomic orbitals:       120
      Number of basis functions:       116

      Integral cutoff                 1.00e-12
      Number of threads:                 1

	Batch   1 pq = [       0,    6786] index = [             0,23028291] size =     23028291
  Task number: 3
  Buffer size: 11059200
  Buffer per thread: 2
  We computed 1353538 shell quartets total.
  Whereas there are 1675365 unique shell quartets.

  ==> DiskJK: Disk-Based J/K Matrices <==

    J tasked:                  Yes
    K tasked:                  Yes
    wK tasked:                  No
    Memory [MiB]:              375
    Schwarz Cutoff:          1E-12

    OpenMP threads:              1

  Minimum eigenvalue in the overlap matrix is 5.3950431580E-03.
  Using Symmetric Orthogonalization.

  SCF Guess: Superposition of Atomic Densities via on-the-fly atomic UHF.

  ==> Iterations <==

                        Total Energy        Delta E     RMS |[F,P]|

   @RHF iter SAD:  -157.36942272373821   -1.57369e+02   0.00000e+00
   @RHF iter   1:  -158.30619616274819   -9.36773e-01   4.21949e-03 DIIS
   @RHF iter   2:  -158.43991120868426   -1.33715e-01   1.79493e-03 DIIS
   @RHF iter   3:  -158.46330220784614   -2.33910e-02   3.51237e-04 DIIS
   @RHF iter   4:  -158.46515087781756   -1.84867e-03   3.96094e-05 DIIS
   @RHF iter   5:  -158.46517567226678   -2.47944e-05   7.21161e-06 DIIS
   @RHF iter   6:  -158.46517640275516   -7.30488e-07   1.50258e-06 DIIS
   @RHF iter   7:  -158.46517642392135   -2.11662e-08   3.41085e-07 DIIS
   @RHF iter   8:  -158.46517642514908   -1.22773e-09   4.97784e-08 DIIS
   @RHF iter   9:  -158.46517642519194   -4.28599e-11   1.20587e-08 DIIS
   @RHF iter  10:  -158.46517642519416   -2.21689e-12   3.79997e-09 DIIS
   @RHF iter  11:  -158.46517642519458   -4.26326e-13   8.69783e-10 DIIS
   @RHF iter  12:  -158.46517642519427    3.12639e-13   1.55379e-10 DIIS
   @RHF iter  13:  -158.46517642519422    5.68434e-14   3.14859e-11 DIIS
  Energy and wave function converged.

  ==> Post-Iterations <==

    Orbital Energies [Eh]
    ---------------------

    Doubly Occupied:

       1A    -11.219090     2A    -11.218611     3A    -11.216495
       4A    -11.214169     5A     -1.023939     6A     -1.014165
       7A     -0.839747     8A     -0.832723     9A     -0.605235
      10A     -0.600395    11A     -0.596983    12A     -0.591558
      13A     -0.508625    14A     -0.496173    15A     -0.489163
      16A     -0.485178    17A     -0.483049    18A     -0.478298

    Virtual:

      19A      0.175374    20A      0.194482    21A      0.223602
      22A      0.243691    23A      0.247444    24A      0.258551
      25A      0.263000    26A      0.276900    27A      0.280363
      28A      0.288281    29A      0.292860    30A      0.335846
      31A      0.399504    32A      0.423204    33A      0.589370
      34A      0.598306    35A      0.599089    36A      0.601584
      37A      0.609776    38A      0.651742    39A      0.656633
      40A      0.683098    41A      0.704747    42A      0.758461
      43A      0.842441    44A      0.876614    45A      0.889271
      46A      0.893001    47A      0.894794    48A      0.895101
      49A      0.901062    50A      0.905003    51A      0.912145
      52A      0.915764    53A      0.933337    54A      0.952576
      55A      0.972792    56A      1.027522    57A      1.120168
      58A      1.126186    59A      1.134075    60A      1.148523
      61A      1.232126    62A      1.307340    63A      1.467801
      64A      1.478956    65A      1.482490    66A      1.486825
      67A      1.569802    68A      1.609755    69A      1.672372
      70A      1.684018    71A      1.689392    72A      1.701335
      73A      1.844784    74A      1.848992    75A      1.870977
      76A      1.879614    77A      1.896066    78A      1.914424
      79A      1.933966    80A      1.941430    81A      1.945653
      82A      1.947934    83A      1.951001    84A      1.955201
      85A      1.968377    86A      1.978267    87A      1.989731
      88A      2.040651    89A      2.085252    90A      2.098943
      91A      2.118975    92A      2.133142    93A      2.297014
      94A      2.298415    95A      2.319574    96A      2.339234
      97A      2.445923    98A      2.455571    99A      2.464798
     100A      2.481140   101A      2.555921   102A      2.569418
     103A      2.575179   104A      2.584265   105A      2.753236
     106A      2.763372   107A      2.784519   108A      2.818278
     109A      2.836400   110A      2.851290   111A      2.859999
     112A      2.866188   113A      2.937128   114A      2.947341
     115A      2.961871   116A      2.989109

    Final Occupation by Irrep:
              A
    DOCC [    18 ]

  @RHF Final Energy:  -158.46517642519422

   => Energetics <=

    Nuclear Repulsion Energy =            120.3839976198838286
    One-Electron Energy =                -449.8711562424546742
    Two-Electron Energy =                 171.0219821973766443
    Total Energy =                       -158.4651764251942154

Computation Completed

Properties will be evaluated at   0.000000,   0.000000,   0.000000 [a0]

Properties computed using the SCF density matrix

  Nuclear Dipole Moment: [e a0]
     X:    -0.0232      Y:     0.0206      Z:     0.0410

  Electronic Dipole Moment: [e a0]
     X:     0.0075      Y:     0.0144      Z:    -0.0448

  Dipole Moment: [e a0]
     X:    -0.0158      Y:     0.0351      Z:    -0.0038     Total:     0.0386

  Dipole Moment: [D]
     X:    -0.0401      Y:     0.0891      Z:    -0.0097     Total:     0.0982

*** tstop() called on ds3 at Mon Apr 27 16:38:18 2020
Module time:
	user time   =       7.47 seconds =       0.12 minutes
	system time =       4.12 seconds =       0.07 minutes
	total time  =         12 seconds =       0.20 minutes
Total time:
	user time   =       7.47 seconds =       0.12 minutes
	system time =       4.12 seconds =       0.07 minutes
	total time  =         12 seconds =       0.20 minutes
                                     G D M A

                                 by Anthony Stone

                           version 2.2.06, 22 June 2011

               Distributed Multipoles from Gaussian wavefunctions

Starting at 16:38:18 on 27 Apr 2020

Using SCF density matrix from file ./SSI/SSI-016LEU-046ILE-1-dimer.test.27498.fchk

                         Distributed Multipole Analysis

Standard DMA

Positions and radii in angstrom
Multipole moments in atomic units, ea_0^k for rank k

C          x = -0.376980  y =  1.640038  z = -0.607168 angstrom
           Maximum rank =  0   Radius =  0.650 angstrom
                   Q00  =  -0.239459

C          x = -1.437980  y =  2.608038  z = -1.086168 angstrom
           Maximum rank =  0   Radius =  0.650 angstrom
                   Q00  =  -0.223484

H          x =  0.040020  y =  1.089038  z = -1.454168 angstrom
           Maximum rank =  0   Radius =  0.325 angstrom
                   Q00  =   0.077035

H          x =  0.420020  y =  2.186038  z = -0.103168 angstrom
           Maximum rank =  0   Radius =  0.325 angstrom
                   Q00  =   0.078699

H          x = -0.824980  y =  0.941038  z =  0.096832 angstrom
           Maximum rank =  0   Radius =  0.325 angstrom
                   Q00  =   0.073260

H          x = -1.817980  y =  3.135038  z = -0.212168 angstrom
           Maximum rank =  0   Radius =  0.325 angstrom
                   Q00  =   0.076777

H          x = -2.259115  y =  2.034248  z = -1.540596 angstrom
           Maximum rank =  0   Radius =  0.325 angstrom
                   Q00  =   0.078272

H          x = -1.007638  y =  3.353058  z = -1.771555 angstrom
           Maximum rank =  0   Radius =  0.325 angstrom
                   Q00  =   0.080684

C          x =  1.262020  y = -1.603962  z =  0.403832 angstrom
           Maximum rank =  0   Radius =  0.650 angstrom
                   Q00  =  -0.250592

C          x =  0.555020  y = -2.645962  z =  1.285832 angstrom
           Maximum rank =  0   Radius =  0.650 angstrom
                   Q00  =  -0.234621

H          x =  2.248020  y = -1.390962  z =  0.817832 angstrom
           Maximum rank =  0   Radius =  0.325 angstrom
                   Q00  =   0.077437

H          x =  1.365020  y = -1.957962  z = -0.620168 angstrom
           Maximum rank =  0   Radius =  0.325 angstrom
                   Q00  =   0.078532

H          x =  0.694020  y = -0.679962  z =  0.344832 angstrom
           Maximum rank =  0   Radius =  0.325 angstrom
                   Q00  =   0.089615

H          x = -0.449980  y = -2.791962  z =  0.895832 angstrom
           Maximum rank =  0   Radius =  0.325 angstrom
                   Q00  =   0.077179

H          x =  0.485823  y = -2.284282  z =  2.322364 angstrom
           Maximum rank =  0   Radius =  0.325 angstrom
                   Q00  =   0.079150

H          x =  1.081989  y = -3.611352  z =  1.267834 angstrom
           Maximum rank =  0   Radius =  0.325 angstrom
                   Q00  =   0.081518

Total multipoles referred to origin at
           x =   0.000000,  y =    0.000000,  z =    0.000000 angstrom
                   Q00  =  -0.000000

Finished at 16:38:18 on 27 Apr 2020

  DMA results are available in the Python driver through the
	  variable('DMA DISTRIBUTED MULTIPOLES')
  and
	  variable('DMA TOTAL MULTIPOLES')
  commands.

    Psi4 stopped on: Monday, 27 April 2020 04:38PM
    Psi4 wall time for execution: 0:00:11.44

*** Psi4 exiting successfully. Buy a developer a beer!
