                               Psi4 1.3.2 release

  ==> Input File <==

--------------------------------------------------------------------------
import numpy as np
set {scf_type pk
basis cc-pvdz
d_convergence 10
gdma_switch   0
gdma_limit    0
gdma_origin   [ 0.0,  0.0,  0.0 ]
}
molecule test {
    units Angstrom
    0 1
    --
    0 1
    C               -1.444980460154857     0.199332450688047    -2.060857785072230
    C               -0.173980460154857     0.463332450688047    -1.267857785072230
    O                0.814019539845143    -0.267667549311953    -1.324857785072230
    N               -0.232980460154857     1.476332450688047    -0.458857785072230
    H               -2.264980460154857     0.813332450688047    -1.683857785072230
    H               -1.716980460154857    -0.848667549311953    -1.928857785072230
    H                0.593019539845143     1.697332450688047     0.077142214927770
    H               -1.075980460154857     2.020332450688047    -0.352857785072230
    H               -1.277739460154857     0.414572450688047    -3.126547785072230
    C               -0.120980460154857    -0.623667549311953     2.192142214927770
    C                1.152019539845143    -1.265667549311953     2.768142214927770
    H                0.185019539845143     0.128332450688047     1.488142214927770
    H               -0.740980460154857    -1.376667549311953     1.706142214927770
    H               -0.686980460154857    -0.151667549311953     2.995142214927770
    H                0.820019539845143    -1.905667549311953     3.582142214927770
    H                1.845739539845143    -0.515797549311953     3.176132214927770
    H                1.638159539845143    -1.934284549311953     2.042452214927770

}
e, wfn = energy('scf', return_wfn=True)
gdma(wfn)
dmavals = variable('DMA DISTRIBUTED MULTIPOLES')
charges = np.array(dmavals)
print(charges)
np.save('SSI-183GLN-205LEU-1-dimer.npy', np.array(charges))--------------------------------------------------------------------------

*** tstart() called on ds3
*** at Tue Apr 28 21:46:35 2020

   => Loading Basis Set <=

    Name: CC-PVDZ
    Role: ORBITAL
    Keyword: BASIS
    atoms 1-2, 10-11 entry C          line   138 file /theoryfs2/ds/metcalf/miniconda2/envs/tf2gpu/share/psi4/basis/cc-pvdz.gbs
    atoms 3          entry O          line   198 file /theoryfs2/ds/metcalf/miniconda2/envs/tf2gpu/share/psi4/basis/cc-pvdz.gbs
    atoms 4          entry N          line   168 file /theoryfs2/ds/metcalf/miniconda2/envs/tf2gpu/share/psi4/basis/cc-pvdz.gbs
    atoms 5-9, 12-17 entry H          line    22 file /theoryfs2/ds/metcalf/miniconda2/envs/tf2gpu/share/psi4/basis/cc-pvdz.gbs

         ---------------------------------------------------------
                                   SCF
               by Justin Turney, Rob Parrish, Andy Simmonett
                          and Daniel G. A. Smith
                              RHF Reference
                        1 Threads,    500 MiB Core
         ---------------------------------------------------------

  ==> Geometry <==

    Molecular point group: c1
    Full point group: C1

    Geometry (in Angstrom), charge = 0, multiplicity = 1:

       Center              X                  Y                   Z               Mass
    ------------   -----------------  -----------------  -----------------  -----------------
         C           -1.444980460155     0.199332450688    -2.060857785072    12.000000000000
         C           -0.173980460155     0.463332450688    -1.267857785072    12.000000000000
         O            0.814019539845    -0.267667549312    -1.324857785072    15.994914619570
         N           -0.232980460155     1.476332450688    -0.458857785072    14.003074004430
         H           -2.264980460155     0.813332450688    -1.683857785072     1.007825032230
         H           -1.716980460155    -0.848667549312    -1.928857785072     1.007825032230
         H            0.593019539845     1.697332450688     0.077142214928     1.007825032230
         H           -1.075980460155     2.020332450688    -0.352857785072     1.007825032230
         H           -1.277739460155     0.414572450688    -3.126547785072     1.007825032230
         C           -0.120980460155    -0.623667549312     2.192142214928    12.000000000000
         C            1.152019539845    -1.265667549312     2.768142214928    12.000000000000
         H            0.185019539845     0.128332450688     1.488142214928     1.007825032230
         H           -0.740980460155    -1.376667549312     1.706142214928     1.007825032230
         H           -0.686980460155    -0.151667549312     2.995142214928     1.007825032230
         H            0.820019539845    -1.905667549312     3.582142214928     1.007825032230
         H            1.845739539845    -0.515797549312     3.176132214928     1.007825032230
         H            1.638159539845    -1.934284549312     2.042452214928     1.007825032230

  Running in c1 symmetry.

  Rotational constants: A =      0.18266  B =      0.04176  C =      0.04015 [cm^-1]
  Rotational constants: A =   5476.01748  B =   1251.94554  C =   1203.73327 [MHz]
  Nuclear repulsion =  237.561350481772365

  Charge       = 0
  Multiplicity = 1
  Electrons    = 50
  Nalpha       = 25
  Nbeta        = 25

  ==> Algorithm <==

  SCF Algorithm Type is PK.
  DIIS enabled.
  MOM disabled.
  Fractional occupation disabled.
  Guess Type is SAD.
  Energy threshold   = 1.00e-06
  Density threshold  = 1.00e-10
  Integral threshold = 0.00e+00

  ==> Primary Basis <==

  Basis Set: CC-PVDZ
    Blend: CC-PVDZ
    Number of shells: 69
    Number of basis function: 139
    Number of Cartesian functions: 145
    Spherical Harmonics?: true
    Max angular momentum: 2

  ==> Pre-Iterations <==

   -------------------------------------------------------
    Irrep   Nso     Nmo     Nalpha   Nbeta   Ndocc  Nsocc
   -------------------------------------------------------
     A        139     139       0       0       0       0
   -------------------------------------------------------
    Total     139     139      25      25      25       0
   -------------------------------------------------------

  ==> Integral Setup <==

  Using integral reordering PK algorithm.
  Sizing the integral batches needed.
  Building batch lookup table.
   Calculation information:
      Number of atoms:                  17
      Number of AO shells:              69
      Number of primitives:            187
      Number of atomic orbitals:       145
      Number of basis functions:       139

      Integral cutoff                 1.00e-12
      Number of threads:                 1

	Batch   1 pq = [       0,    9730] index = [             0,47341315] size =     47341315
  Task number: 5
  Buffer size: 11059200
  Buffer per thread: 2
  We computed 2547062 shell quartets total.
  Whereas there are 2917320 unique shell quartets.

  ==> DiskJK: Disk-Based J/K Matrices <==

    J tasked:                  Yes
    K tasked:                  Yes
    wK tasked:                  No
    Memory [MiB]:              375
    Schwarz Cutoff:          1E-12

    OpenMP threads:              1

  Minimum eigenvalue in the overlap matrix is 4.2753913058E-03.
  Using Symmetric Orthogonalization.

  SCF Guess: Superposition of Atomic Densities via on-the-fly atomic UHF.

  ==> Iterations <==

                        Total Energy        Delta E     RMS |[F,P]|

   @RHF iter SAD:  -286.01917829922098   -2.86019e+02   0.00000e+00
   @RHF iter   1:  -286.98910488423275   -9.69927e-01   4.63892e-03 DIIS
   @RHF iter   2:  -287.16489738622863   -1.75793e-01   2.58968e-03 DIIS
   @RHF iter   3:  -287.21475813687312   -4.98608e-02   5.45850e-04 DIIS
   @RHF iter   4:  -287.21810836888073   -3.35023e-03   2.15808e-04 DIIS
   @RHF iter   5:  -287.21869036848722   -5.82000e-04   3.26211e-05 DIIS
   @RHF iter   6:  -287.21871749843359   -2.71299e-05   1.39150e-05 DIIS
   @RHF iter   7:  -287.21872135655690   -3.85812e-06   5.58596e-06 DIIS
   @RHF iter   8:  -287.21872222602337   -8.69466e-07   1.98802e-06 DIIS
   @RHF iter   9:  -287.21872234385114   -1.17828e-07   5.02808e-07 DIIS
   @RHF iter  10:  -287.21872234953321   -5.68207e-09   1.62105e-07 DIIS
   @RHF iter  11:  -287.21872235014530   -6.12090e-10   3.59189e-08 DIIS
   @RHF iter  12:  -287.21872235017514   -2.98428e-11   7.66026e-09 DIIS
   @RHF iter  13:  -287.21872235017787   -2.72848e-12   1.48061e-09 DIIS
   @RHF iter  14:  -287.21872235017656    1.30740e-12   6.25101e-10 DIIS
   @RHF iter  15:  -287.21872235017884   -2.27374e-12   2.25889e-10 DIIS
   @RHF iter  16:  -287.21872235017810    7.38964e-13   7.96200e-11 DIIS
  Energy and wave function converged.

  ==> Post-Iterations <==

    Orbital Energies [Eh]
    ---------------------

    Doubly Occupied:

       1A    -20.499237     2A    -15.591115     3A    -11.344551
       4A    -11.243359     5A    -11.210935     6A    -11.208459
       7A     -1.368871     8A     -1.226597     9A     -1.010169
      10A     -0.999629    11A     -0.831412    12A     -0.807389
      13A     -0.735818    14A     -0.653112    15A     -0.617417
      16A     -0.594703    17A     -0.587772    18A     -0.566956
      19A     -0.556471    20A     -0.528124    21A     -0.492464
      22A     -0.484417    23A     -0.470404    24A     -0.408186
      25A     -0.402114

    Virtual:

      26A      0.159409    27A      0.192765    28A      0.201365
      29A      0.211968    30A      0.228146    31A      0.244436
      32A      0.258130    33A      0.277540    34A      0.278694
      35A      0.284439    36A      0.300487    37A      0.363230
      38A      0.376698    39A      0.403039    40A      0.461146
      41A      0.548882    42A      0.598427    43A      0.608682
      44A      0.614444    45A      0.640307    46A      0.662213
      47A      0.672639    48A      0.694388    49A      0.700398
      50A      0.715158    51A      0.766346    52A      0.830059
      53A      0.842848    54A      0.847330    55A      0.867425
      56A      0.891422    57A      0.896040    58A      0.900017
      59A      0.901538    60A      0.915730    61A      0.925138
      62A      0.944203    63A      0.957805    64A      0.988753
      65A      1.018021    66A      1.043729    67A      1.080439
      68A      1.114984    69A      1.124718    70A      1.136862
      71A      1.184235    72A      1.245272    73A      1.346221
      74A      1.359184    75A      1.383332    76A      1.414758
      77A      1.451420    78A      1.468493    79A      1.484383
      80A      1.514860    81A      1.524721    82A      1.598986
      83A      1.633898    84A      1.659901    85A      1.687983
      86A      1.695337    87A      1.751658    88A      1.813311
      89A      1.840903    90A      1.859696    91A      1.879638
      92A      1.889694    93A      1.895047    94A      1.908017
      95A      1.919695    96A      1.927137    97A      1.945566
      98A      1.954397    99A      1.964226   100A      1.977503
     101A      1.991824   102A      2.022152   103A      2.072455
     104A      2.082771   105A      2.117445   106A      2.127922
     107A      2.184431   108A      2.220912   109A      2.296627
     110A      2.304648   111A      2.314855   112A      2.417056
     113A      2.442068   114A      2.451826   115A      2.454056
     116A      2.504224   117A      2.544361   118A      2.563448
     119A      2.583882   120A      2.611266   121A      2.642949
     122A      2.746438   123A      2.764296   124A      2.775806
     125A      2.789477   126A      2.812392   127A      2.843109
     128A      2.871240   129A      2.884490   130A      2.951845
     131A      2.999951   132A      3.017224   133A      3.094882
     134A      3.138785   135A      3.286209   136A      3.508869
     137A      3.539836   138A      3.879224   139A      3.919624

    Final Occupation by Irrep:
              A
    DOCC [    25 ]

  @RHF Final Energy:  -287.21872235017810

   => Energetics <=

    Nuclear Repulsion Energy =            237.5613504817723651
    One-Electron Energy =                -860.6807838394987584
    Two-Electron Energy =                 335.9007110075482956
    Total Energy =                       -287.2187223501780977

Computation Completed

Properties will be evaluated at   0.000000,   0.000000,   0.000000 [a0]

Properties computed using the SCF density matrix

  Nuclear Dipole Moment: [e a0]
     X:    -2.5094      Y:    -1.5607      Z:     7.4714

  Electronic Dipole Moment: [e a0]
     X:     1.3044      Y:     2.7479      Z:    -7.2250

  Dipole Moment: [e a0]
     X:    -1.2050      Y:     1.1872      Z:     0.2464     Total:     1.7094

  Dipole Moment: [D]
     X:    -3.0628      Y:     3.0176      Z:     0.6264     Total:     4.3449

*** tstop() called on ds3 at Tue Apr 28 21:46:57 2020
Module time:
	user time   =      16.72 seconds =       0.28 minutes
	system time =       6.60 seconds =       0.11 minutes
	total time  =         22 seconds =       0.37 minutes
Total time:
	user time   =      16.72 seconds =       0.28 minutes
	system time =       6.60 seconds =       0.11 minutes
	total time  =         22 seconds =       0.37 minutes
                                     G D M A

                                 by Anthony Stone

                           version 2.2.06, 22 June 2011

               Distributed Multipoles from Gaussian wavefunctions

Starting at 21:46:57 on 28 Apr 2020

Using SCF density matrix from file ./SSI/SSI-183GLN-205LEU-1-dimer.test.29392.fchk

                         Distributed Multipole Analysis

Standard DMA

Positions and radii in angstrom
Multipole moments in atomic units, ea_0^k for rank k

C          x = -1.444980  y =  0.199332  z = -2.060858 angstrom
           Maximum rank =  0   Radius =  0.650 angstrom
                   Q00  =  -0.261784

C          x = -0.173980  y =  0.463332  z = -1.267858 angstrom
           Maximum rank =  0   Radius =  0.650 angstrom
                   Q00  =   0.812048

O          x =  0.814020  y = -0.267668  z = -1.324858 angstrom
           Maximum rank =  0   Radius =  0.650 angstrom
                   Q00  =  -0.809295

N          x = -0.232980  y =  1.476332  z = -0.458858 angstrom
           Maximum rank =  0   Radius =  0.650 angstrom
                   Q00  =  -0.494085

H          x = -2.264980  y =  0.813332  z = -1.683858 angstrom
           Maximum rank =  0   Radius =  0.325 angstrom
                   Q00  =   0.072363

H          x = -1.716980  y = -0.848668  z = -1.928858 angstrom
           Maximum rank =  0   Radius =  0.325 angstrom
                   Q00  =   0.130034

H          x =  0.593020  y =  1.697332  z =  0.077142 angstrom
           Maximum rank =  0   Radius =  0.325 angstrom
                   Q00  =   0.219240

H          x = -1.075980  y =  2.020332  z = -0.352858 angstrom
           Maximum rank =  0   Radius =  0.325 angstrom
                   Q00  =   0.209462

H          x = -1.277739  y =  0.414572  z = -3.126548 angstrom
           Maximum rank =  0   Radius =  0.325 angstrom
                   Q00  =   0.133913

C          x = -0.120980  y = -0.623668  z =  2.192142 angstrom
           Maximum rank =  0   Radius =  0.650 angstrom
                   Q00  =  -0.238597

C          x =  1.152020  y = -1.265668  z =  2.768142 angstrom
           Maximum rank =  0   Radius =  0.650 angstrom
                   Q00  =  -0.239148

H          x =  0.185020  y =  0.128332  z =  1.488142 angstrom
           Maximum rank =  0   Radius =  0.325 angstrom
                   Q00  =   0.080770

H          x = -0.740980  y = -1.376668  z =  1.706142 angstrom
           Maximum rank =  0   Radius =  0.325 angstrom
                   Q00  =   0.084629

H          x = -0.686980  y = -0.151668  z =  2.995142 angstrom
           Maximum rank =  0   Radius =  0.325 angstrom
                   Q00  =   0.064505

H          x =  0.820020  y = -1.905668  z =  3.582142 angstrom
           Maximum rank =  0   Radius =  0.325 angstrom
                   Q00  =   0.067700

H          x =  1.845740  y = -0.515798  z =  3.176132 angstrom
           Maximum rank =  0   Radius =  0.325 angstrom
                   Q00  =   0.076289

H          x =  1.638160  y = -1.934285  z =  2.042452 angstrom
           Maximum rank =  0   Radius =  0.325 angstrom
                   Q00  =   0.091956

Total multipoles referred to origin at
           x =   0.000000,  y =    0.000000,  z =    0.000000 angstrom
                   Q00  =  -0.000000

Finished at 21:46:57 on 28 Apr 2020

  DMA results are available in the Python driver through the
	  variable('DMA DISTRIBUTED MULTIPOLES')
  and
	  variable('DMA TOTAL MULTIPOLES')
  commands.

    Psi4 stopped on: Tuesday, 28 April 2020 09:46PM
    Psi4 wall time for execution: 0:00:22.97

*** Psi4 exiting successfully. Buy a developer a beer!
