                               Psi4 1.3.2 release

  ==> Input File <==

--------------------------------------------------------------------------
import numpy as np
set {scf_type pk
basis cc-pvdz
d_convergence 10
gdma_switch   0
gdma_limit    0
gdma_origin   [ 0.0,  0.0,  0.0 ]
}
molecule test {
    units Angstrom
    0 1
    --
    0 1
    C                2.271378694885680    -2.419159251339392     1.107442239495625
    C                1.610378694885680    -3.762159251339392     1.414442239495625
    H                3.340378694885680    -2.464159251339392     1.314442239495625
    H                2.136378694885680    -2.177159251339392     0.051442239495625
    H                1.823378694885680    -1.632159251339393     1.713442239495625
    H                2.081378694885680    -4.491159251339393     0.754442239495625
    H                1.776478694885680    -4.091471251339392     2.450762239495625
    H                0.541798694885680    -3.744795251339393     1.153992239495625
    C                0.952378694885680     1.167840748660607    -2.269557760504375
    C               -0.281621305114320    -0.141159251339393    -0.504557760504375
    C                0.015378694885680     1.079840748660607    -1.091557760504375
    C               -1.221621305114320    -0.248159251339393     0.522442239495625
    C               -0.642621305114320     2.194840748660608    -0.636557760504375
    C               -1.863621305114320     0.888840748660607     0.982442239495625
    C               -1.576621305114320     2.106840748660607     0.382442239495625
    H                0.196378694885680    -1.037159251339393    -0.872557760504375
    H               -1.460621305114320    -1.211159251339393     0.947442239495625
    H                0.421378694885680     1.686840748660607    -3.069557760504375
    H                1.179378694885680     0.164840748660607    -2.633557760504375
    H               -0.469621305114320     3.142840748660608    -1.110557760504375
    H               -2.602621305114320     0.819840748660607     1.766442239495625
    H               -2.085621305114320     3.001840748660607     0.709442239495625
    H                1.892028694885680     1.703049748660607    -2.068047760504375

}
e, wfn = energy('scf', return_wfn=True)
gdma(wfn)
dmavals = variable('DMA DISTRIBUTED MULTIPOLES')
charges = np.array(dmavals)
print(charges)
np.save('SSI-107VAL-147PHE-2-dimer.npy', np.array(charges))--------------------------------------------------------------------------

*** tstart() called on ds3
*** at Tue Apr 28 09:06:02 2020

   => Loading Basis Set <=

    Name: CC-PVDZ
    Role: ORBITAL
    Keyword: BASIS
    atoms 1-2, 9-15  entry C          line   138 file /theoryfs2/ds/metcalf/miniconda2/envs/tf2gpu/share/psi4/basis/cc-pvdz.gbs
    atoms 3-8, 16-23 entry H          line    22 file /theoryfs2/ds/metcalf/miniconda2/envs/tf2gpu/share/psi4/basis/cc-pvdz.gbs

         ---------------------------------------------------------
                                   SCF
               by Justin Turney, Rob Parrish, Andy Simmonett
                          and Daniel G. A. Smith
                              RHF Reference
                        1 Threads,    500 MiB Core
         ---------------------------------------------------------

  ==> Geometry <==

    Molecular point group: c1
    Full point group: C1

    Geometry (in Angstrom), charge = 0, multiplicity = 1:

       Center              X                  Y                   Z               Mass
    ------------   -----------------  -----------------  -----------------  -----------------
         C            2.271378694886    -2.419159251339     1.107442239496    12.000000000000
         C            1.610378694886    -3.762159251339     1.414442239496    12.000000000000
         H            3.340378694886    -2.464159251339     1.314442239496     1.007825032230
         H            2.136378694886    -2.177159251339     0.051442239496     1.007825032230
         H            1.823378694886    -1.632159251339     1.713442239496     1.007825032230
         H            2.081378694886    -4.491159251339     0.754442239496     1.007825032230
         H            1.776478694886    -4.091471251339     2.450762239496     1.007825032230
         H            0.541798694886    -3.744795251339     1.153992239496     1.007825032230
         C            0.952378694886     1.167840748661    -2.269557760504    12.000000000000
         C           -0.281621305114    -0.141159251339    -0.504557760504    12.000000000000
         C            0.015378694886     1.079840748661    -1.091557760504    12.000000000000
         C           -1.221621305114    -0.248159251339     0.522442239496    12.000000000000
         C           -0.642621305114     2.194840748661    -0.636557760504    12.000000000000
         C           -1.863621305114     0.888840748661     0.982442239496    12.000000000000
         C           -1.576621305114     2.106840748661     0.382442239496    12.000000000000
         H            0.196378694886    -1.037159251339    -0.872557760504     1.007825032230
         H           -1.460621305114    -1.211159251339     0.947442239496     1.007825032230
         H            0.421378694886     1.686840748661    -3.069557760504     1.007825032230
         H            1.179378694886     0.164840748661    -2.633557760504     1.007825032230
         H           -0.469621305114     3.142840748661    -1.110557760504     1.007825032230
         H           -2.602621305114     0.819840748661     1.766442239496     1.007825032230
         H           -2.085621305114     3.001840748661     0.709442239496     1.007825032230
         H            1.892028694886     1.703049748661    -2.068047760504     1.007825032230

  Running in c1 symmetry.

  Rotational constants: A =      0.07198  B =      0.02395  C =      0.01914 [cm^-1]
  Rotational constants: A =   2157.76589  B =    718.13999  C =    573.66146 [MHz]
  Nuclear repulsion =  404.152866727567073

  Charge       = 0
  Multiplicity = 1
  Electrons    = 68
  Nalpha       = 34
  Nbeta        = 34

  ==> Algorithm <==

  SCF Algorithm Type is PK.
  DIIS enabled.
  MOM disabled.
  Fractional occupation disabled.
  Guess Type is SAD.
  Energy threshold   = 1.00e-06
  Density threshold  = 1.00e-10
  Integral threshold = 0.00e+00

  ==> Primary Basis <==

  Basis Set: CC-PVDZ
    Blend: CC-PVDZ
    Number of shells: 96
    Number of basis function: 196
    Number of Cartesian functions: 205
    Spherical Harmonics?: true
    Max angular momentum: 2

  ==> Pre-Iterations <==

   -------------------------------------------------------
    Irrep   Nso     Nmo     Nalpha   Nbeta   Ndocc  Nsocc
   -------------------------------------------------------
     A        196     196       0       0       0       0
   -------------------------------------------------------
    Total     196     196      34      34      34       0
   -------------------------------------------------------

  ==> Integral Setup <==

  Using integral reordering PK algorithm.
  Sizing the integral batches needed.
  Building batch lookup table.
   Calculation information:
      Number of atoms:                  23
      Number of AO shells:              96
      Number of primitives:            268
      Number of atomic orbitals:       205
      Number of basis functions:       196

      Integral cutoff                 1.00e-12
      Number of threads:                 1

	Batch   1 pq = [       0,    9405] index = [             0,44231715] size =     44231715
	Batch   2 pq = [    9405,   13301] index = [      44231715,88464951] size =     44233236
	Batch   3 pq = [   13301,   16290] index = [      88464951,132690195] size =     44225244
	Batch   4 pq = [   16290,   18810] index = [     132690195,176917455] size =     44227260
	Batch   5 pq = [   18810,   19306] index = [     176917455,186370471] size =      9453016
  Task number: 17
  Buffer size: 11059200
  Buffer per thread: 2
  We computed 9037854 shell quartets total.
  Whereas there are 10841496 unique shell quartets.

  ==> DiskJK: Disk-Based J/K Matrices <==

    J tasked:                  Yes
    K tasked:                  Yes
    wK tasked:                  No
    Memory [MiB]:              375
    Schwarz Cutoff:          1E-12

    OpenMP threads:              1

  Minimum eigenvalue in the overlap matrix is 2.9340739976E-04.
  Using Symmetric Orthogonalization.

  SCF Guess: Superposition of Atomic Densities via on-the-fly atomic UHF.

  ==> Iterations <==

                        Total Energy        Delta E     RMS |[F,P]|

   @RHF iter SAD:  -347.94200937507992   -3.47942e+02   0.00000e+00
   @RHF iter   1:  -348.76427564417133   -8.22266e-01   2.91293e-03 DIIS
   @RHF iter   2:  -348.95841677706534   -1.94141e-01   1.21608e-03 DIIS
   @RHF iter   3:  -348.98926237822798   -3.08456e-02   2.59767e-04 DIIS
   @RHF iter   4:  -348.99173880449007   -2.47643e-03   5.63050e-05 DIIS
   @RHF iter   5:  -348.99181953690061   -8.07324e-05   1.92395e-05 DIIS
   @RHF iter   6:  -348.99182852039559   -8.98349e-06   5.00862e-06 DIIS
   @RHF iter   7:  -348.99182924569493   -7.25299e-07   1.23172e-06 DIIS
   @RHF iter   8:  -348.99182930589262   -6.01977e-08   3.61646e-07 DIIS
   @RHF iter   9:  -348.99182931710084   -1.12082e-08   1.75110e-07 DIIS
   @RHF iter  10:  -348.99182932009694   -2.99610e-09   7.69449e-08 DIIS
   @RHF iter  11:  -348.99182932094249   -8.45546e-10   2.46109e-08 DIIS
   @RHF iter  12:  -348.99182932100484   -6.23572e-11   8.31965e-09 DIIS
   @RHF iter  13:  -348.99182932100797   -3.12639e-12   3.69424e-09 DIIS
   @RHF iter  14:  -348.99182932100774    2.27374e-13   9.37330e-10 DIIS
   @RHF iter  15:  -348.99182932100717    5.68434e-13   4.43400e-10 DIIS
   @RHF iter  16:  -348.99182932100877   -1.59162e-12   2.25086e-10 DIIS
   @RHF iter  17:  -348.99182932101041   -1.64846e-12   8.18376e-11 DIIS
  Energy and wave function converged.

  ==> Post-Iterations <==

    Orbital Energies [Eh]
    ---------------------

    Doubly Occupied:

       1A    -11.236718     2A    -11.233924     3A    -11.232740
       4A    -11.229794     5A    -11.229590     6A    -11.228598
       7A    -11.225330     8A    -11.219334     9A    -11.215465
      10A     -1.156771    11A     -1.046620    12A     -1.017776
      13A     -1.010980    14A     -0.932786    15A     -0.836180
      16A     -0.826363    17A     -0.796672    18A     -0.692969
      19A     -0.632687    20A     -0.628574    21A     -0.599272
      22A     -0.595271    23A     -0.579521    24A     -0.576921
      25A     -0.564910    26A     -0.535281    27A     -0.501536
      28A     -0.491050    29A     -0.488195    30A     -0.482503
      31A     -0.481080    32A     -0.479444    33A     -0.331048
      34A     -0.324680

    Virtual:

      35A      0.136985    36A      0.143548    37A      0.165345
      38A      0.192379    39A      0.201665    40A      0.223140
      41A      0.230994    42A      0.242695    43A      0.249842
      44A      0.264169    45A      0.265689    46A      0.272737
      47A      0.279313    48A      0.289817    49A      0.321255
      50A      0.339162    51A      0.376078    52A      0.380748
      53A      0.397914    54A      0.453504    55A      0.465841
      56A      0.479461    57A      0.507936    58A      0.565676
      59A      0.587212    60A      0.596808    61A      0.602383
      62A      0.621009    63A      0.634962    64A      0.665838
      65A      0.680030    66A      0.691361    67A      0.697101
      68A      0.701426    69A      0.721541    70A      0.743802
      71A      0.747825    72A      0.751633    73A      0.759837
      74A      0.766358    75A      0.787682    76A      0.802485
      77A      0.835557    78A      0.850738    79A      0.859301
      80A      0.862616    81A      0.871477    82A      0.879392
      83A      0.890728    84A      0.892393    85A      0.898490
      86A      0.905759    87A      0.912093    88A      0.918750
      89A      0.930345    90A      0.945448    91A      0.955902
      92A      0.961805    93A      0.991030    94A      1.007722
      95A      1.018589    96A      1.051038    97A      1.119702
      98A      1.127196    99A      1.134792   100A      1.146654
     101A      1.155694   102A      1.167583   103A      1.189996
     104A      1.233454   105A      1.238834   106A      1.248875
     107A      1.259257   108A      1.269901   109A      1.304068
     110A      1.313525   111A      1.324029   112A      1.340083
     113A      1.416194   114A      1.464265   115A      1.484954
     116A      1.513243   117A      1.527991   118A      1.541705
     119A      1.579675   120A      1.612610   121A      1.678364
     122A      1.682313   123A      1.686767   124A      1.702085
     125A      1.736962   126A      1.751396   127A      1.765582
     128A      1.798148   129A      1.819355   130A      1.858831
     131A      1.866120   132A      1.877244   133A      1.891375
     134A      1.892329   135A      1.903349   136A      1.907884
     137A      1.920428   138A      1.926212   139A      1.941451
     140A      1.947418   141A      1.953559   142A      1.957188
     143A      1.964637   144A      1.971106   145A      1.977655
     146A      1.984592   147A      1.994620   148A      2.019575
     149A      2.037180   150A      2.049235   151A      2.081719
     152A      2.088940   153A      2.118211   154A      2.133031
     155A      2.139087   156A      2.163427   157A      2.174727
     158A      2.178072   159A      2.205573   160A      2.247847
     161A      2.279174   162A      2.296259   163A      2.299119
     164A      2.310468   165A      2.315463   166A      2.323591
     167A      2.363492   168A      2.443622   169A      2.449942
     170A      2.475298   171A      2.486760   172A      2.524622
     173A      2.543018   174A      2.550872   175A      2.582282
     176A      2.639038   177A      2.735900   178A      2.758764
     179A      2.761201   180A      2.773504   181A      2.792273
     182A      2.800061   183A      2.834731   184A      2.845204
     185A      2.854081   186A      2.866077   187A      2.874834
     188A      2.942964   189A      2.967311   190A      2.994991
     191A      3.021803   192A      3.038485   193A      3.175090
     194A      3.218411   195A      3.317555   196A      3.985978

    Final Occupation by Irrep:
              A
    DOCC [    34 ]

  @RHF Final Energy:  -348.99182932101041

   => Energetics <=

    Nuclear Repulsion Energy =            404.1528667275670728
    One-Electron Energy =               -1270.9682298162401821
    Two-Electron Energy =                 517.8235337676627523
    Total Energy =                       -348.9918293210104139

Computation Completed

Properties will be evaluated at   0.000000,   0.000000,   0.000000 [a0]

Properties computed using the SCF density matrix

  Nuclear Dipole Moment: [e a0]
     X:     8.2220      Y:    -9.6840      Z:     1.0383

  Electronic Dipole Moment: [e a0]
     X:    -8.1779      Y:     9.7219      Z:    -1.1742

  Dipole Moment: [e a0]
     X:     0.0442      Y:     0.0379      Z:    -0.1359     Total:     0.1478

  Dipole Moment: [D]
     X:     0.1122      Y:     0.0964      Z:    -0.3455     Total:     0.3758

*** tstop() called on ds3 at Tue Apr 28 09:08:15 2020
Module time:
	user time   =      62.95 seconds =       1.05 minutes
	system time =      27.49 seconds =       0.46 minutes
	total time  =        133 seconds =       2.22 minutes
Total time:
	user time   =      62.95 seconds =       1.05 minutes
	system time =      27.49 seconds =       0.46 minutes
	total time  =        133 seconds =       2.22 minutes
                                     G D M A

                                 by Anthony Stone

                           version 2.2.06, 22 June 2011

               Distributed Multipoles from Gaussian wavefunctions

Starting at 9:8:15 on 28 Apr 2020

Using SCF density matrix from file ./SSI/SSI-107VAL-147PHE-2-dimer.test.9524.fchk

                         Distributed Multipole Analysis

Standard DMA

Positions and radii in angstrom
Multipole moments in atomic units, ea_0^k for rank k

C          x =  2.271379  y = -2.419159  z =  1.107442 angstrom
           Maximum rank =  0   Radius =  0.650 angstrom
                   Q00  =  -0.231843

C          x =  1.610379  y = -3.762159  z =  1.414442 angstrom
           Maximum rank =  0   Radius =  0.650 angstrom
                   Q00  =  -0.238448

H          x =  3.340379  y = -2.464159  z =  1.314442 angstrom
           Maximum rank =  0   Radius =  0.325 angstrom
                   Q00  =   0.079357

H          x =  2.136379  y = -2.177159  z =  0.051442 angstrom
           Maximum rank =  0   Radius =  0.325 angstrom
                   Q00  =   0.074369

H          x =  1.823379  y = -1.632159  z =  1.713442 angstrom
           Maximum rank =  0   Radius =  0.325 angstrom
                   Q00  =   0.084576

H          x =  2.081379  y = -4.491159  z =  0.754442 angstrom
           Maximum rank =  0   Radius =  0.325 angstrom
                   Q00  =   0.072271

H          x =  1.776479  y = -4.091471  z =  2.450762 angstrom
           Maximum rank =  0   Radius =  0.325 angstrom
                   Q00  =   0.083631

H          x =  0.541799  y = -3.744795  z =  1.153992 angstrom
           Maximum rank =  0   Radius =  0.325 angstrom
                   Q00  =   0.076843

C          x =  0.952379  y =  1.167841  z = -2.269558 angstrom
           Maximum rank =  0   Radius =  0.650 angstrom
                   Q00  =  -0.203371

C          x = -0.281621  y = -0.141159  z = -0.504558 angstrom
           Maximum rank =  0   Radius =  0.650 angstrom
                   Q00  =  -0.026134

C          x =  0.015379  y =  1.079841  z = -1.091558 angstrom
           Maximum rank =  0   Radius =  0.650 angstrom
                   Q00  =  -0.103069

C          x = -1.221621  y = -0.248159  z =  0.522442 angstrom
           Maximum rank =  0   Radius =  0.650 angstrom
                   Q00  =  -0.081943

C          x = -0.642621  y =  2.194841  z = -0.636558 angstrom
           Maximum rank =  0   Radius =  0.650 angstrom
                   Q00  =  -0.086743

C          x = -1.863621  y =  0.888841  z =  0.982442 angstrom
           Maximum rank =  0   Radius =  0.650 angstrom
                   Q00  =  -0.088689

C          x = -1.576621  y =  2.106841  z =  0.382442 angstrom
           Maximum rank =  0   Radius =  0.650 angstrom
                   Q00  =  -0.007326

H          x =  0.196379  y = -1.037159  z = -0.872558 angstrom
           Maximum rank =  0   Radius =  0.325 angstrom
                   Q00  =   0.055801

H          x = -1.460621  y = -1.211159  z =  0.947442 angstrom
           Maximum rank =  0   Radius =  0.325 angstrom
                   Q00  =   0.064526

H          x =  0.421379  y =  1.686841  z = -3.069558 angstrom
           Maximum rank =  0   Radius =  0.325 angstrom
                   Q00  =   0.098612

H          x =  1.179379  y =  0.164841  z = -2.633558 angstrom
           Maximum rank =  0   Radius =  0.325 angstrom
                   Q00  =   0.097761

H          x = -0.469621  y =  3.142841  z = -1.110558 angstrom
           Maximum rank =  0   Radius =  0.325 angstrom
                   Q00  =   0.051207

H          x = -2.602621  y =  0.819841  z =  1.766442 angstrom
           Maximum rank =  0   Radius =  0.325 angstrom
                   Q00  =   0.061474

H          x = -2.085621  y =  3.001841  z =  0.709442 angstrom
           Maximum rank =  0   Radius =  0.325 angstrom
                   Q00  =   0.061668

H          x =  1.892029  y =  1.703050  z = -2.068048 angstrom
           Maximum rank =  0   Radius =  0.325 angstrom
                   Q00  =   0.105472

Total multipoles referred to origin at
           x =   0.000000,  y =    0.000000,  z =    0.000000 angstrom
                   Q00  =  -0.000000

Finished at 9:8:15 on 28 Apr 2020

  DMA results are available in the Python driver through the
	  variable('DMA DISTRIBUTED MULTIPOLES')
  and
	  variable('DMA TOTAL MULTIPOLES')
  commands.

    Psi4 stopped on: Tuesday, 28 April 2020 09:08AM
    Psi4 wall time for execution: 0:02:12.93

*** Psi4 exiting successfully. Buy a developer a beer!
