                               Psi4 1.3.2 release

  ==> Input File <==

--------------------------------------------------------------------------
import numpy as np
set {scf_type pk
basis cc-pvdz
d_convergence 10
gdma_switch   0
gdma_limit    0
gdma_origin   [ 0.0,  0.0,  0.0 ]
}
molecule test {
    units Angstrom
    0 1
    --
    0 1
    C                1.878435451423053     0.347539763689553    -1.231056013907683
    C                0.725435451423054    -0.292460236310447     0.983943986092317
    C                1.463435451423053     0.523539763689553     0.196943986092317
    C                1.354435451423053     1.441539763689553     2.214943986092317
    N                0.614435451423054     0.339539763689553     2.213943986092317
    N                1.900435451423053     1.563539763689553     1.014943986092317
    H                0.277435451423053    -1.231460236310447     0.693943986092317
    H                0.087435451423054    -0.003460236310447     3.009943986092317
    H                1.783435451423053     1.297539763689553    -1.759056013907683
    H                1.198435451423054    -0.367460236310447    -1.695056013907683
    H                1.507435451423053     2.109539763689553     3.055943986092317
    H                2.908515451423054    -0.028720236310447    -1.316896013907683
    C               -1.819564548576946    -1.223460236310447    -1.586056013907683
    C               -2.685564548576946    -2.235460236310447    -2.335056013907683
    C               -2.790564548576946    -0.131460236310447    -1.048056013907683
    H               -1.306564548576947    -1.703460236310447    -0.755056013907683
    H               -1.096564548576947    -0.787460236310447    -2.277056013907683
    H               -3.155564548576947    -1.710460236310447    -3.170056013907683
    H               -3.490564548576947    -2.536460236310446    -1.659056013907683
    H               -3.479564548576946     0.151539763689553    -1.847056013907683
    H               -3.391564548576946    -0.554460236310447    -0.243056013907683
    H               -2.239504548576946    -3.154650236310446    -2.742636013907683
    H               -2.232474548576946     0.773739763689553    -0.766736013907683

}
e, wfn = energy('scf', return_wfn=True)
gdma(wfn)
dmavals = variable('DMA DISTRIBUTED MULTIPOLES')
charges = np.array(dmavals)
print(charges)
np.save('SSI-035HIE-059ARG-1-dimer.npy', np.array(charges))--------------------------------------------------------------------------

*** tstart() called on ds3
*** at Sun Apr 26 20:33:04 2020

   => Loading Basis Set <=

    Name: CC-PVDZ
    Role: ORBITAL
    Keyword: BASIS
    atoms 1-4, 13-15  entry C          line   138 file /theoryfs2/ds/metcalf/miniconda2/envs/tf2gpu/share/psi4/basis/cc-pvdz.gbs
    atoms 5-6         entry N          line   168 file /theoryfs2/ds/metcalf/miniconda2/envs/tf2gpu/share/psi4/basis/cc-pvdz.gbs
    atoms 7-12, 16-23 entry H          line    22 file /theoryfs2/ds/metcalf/miniconda2/envs/tf2gpu/share/psi4/basis/cc-pvdz.gbs

         ---------------------------------------------------------
                                   SCF
               by Justin Turney, Rob Parrish, Andy Simmonett
                          and Daniel G. A. Smith
                              RHF Reference
                        1 Threads,    500 MiB Core
         ---------------------------------------------------------

  ==> Geometry <==

    Molecular point group: c1
    Full point group: C1

    Geometry (in Angstrom), charge = 0, multiplicity = 1:

       Center              X                  Y                   Z               Mass
    ------------   -----------------  -----------------  -----------------  -----------------
         C            1.878435451423     0.347539763690    -1.231056013908    12.000000000000
         C            0.725435451423    -0.292460236310     0.983943986092    12.000000000000
         C            1.463435451423     0.523539763690     0.196943986092    12.000000000000
         C            1.354435451423     1.441539763690     2.214943986092    12.000000000000
         N            0.614435451423     0.339539763690     2.213943986092    14.003074004430
         N            1.900435451423     1.563539763690     1.014943986092    14.003074004430
         H            0.277435451423    -1.231460236310     0.693943986092     1.007825032230
         H            0.087435451423    -0.003460236310     3.009943986092     1.007825032230
         H            1.783435451423     1.297539763690    -1.759056013908     1.007825032230
         H            1.198435451423    -0.367460236310    -1.695056013908     1.007825032230
         H            1.507435451423     2.109539763690     3.055943986092     1.007825032230
         H            2.908515451423    -0.028720236310    -1.316896013908     1.007825032230
         C           -1.819564548577    -1.223460236310    -1.586056013908    12.000000000000
         C           -2.685564548577    -2.235460236310    -2.335056013908    12.000000000000
         C           -2.790564548577    -0.131460236310    -1.048056013908    12.000000000000
         H           -1.306564548577    -1.703460236310    -0.755056013908     1.007825032230
         H           -1.096564548577    -0.787460236310    -2.277056013908     1.007825032230
         H           -3.155564548577    -1.710460236310    -3.170056013908     1.007825032230
         H           -3.490564548577    -2.536460236310    -1.659056013908     1.007825032230
         H           -3.479564548577     0.151539763690    -1.847056013908     1.007825032230
         H           -3.391564548577    -0.554460236310    -0.243056013908     1.007825032230
         H           -2.239504548577    -3.154650236310    -2.742636013908     1.007825032230
         H           -2.232474548577     0.773739763690    -0.766736013908     1.007825032230

  Running in c1 symmetry.

  Rotational constants: A =      0.08818  B =      0.02064  C =      0.01843 [cm^-1]
  Rotational constants: A =   2643.53159  B =    618.74339  C =    552.57570 [MHz]
  Nuclear repulsion =  427.834251887145513

  Charge       = 0
  Multiplicity = 1
  Electrons    = 70
  Nalpha       = 35
  Nbeta        = 35

  ==> Algorithm <==

  SCF Algorithm Type is PK.
  DIIS enabled.
  MOM disabled.
  Fractional occupation disabled.
  Guess Type is SAD.
  Energy threshold   = 1.00e-06
  Density threshold  = 1.00e-10
  Integral threshold = 0.00e+00

  ==> Primary Basis <==

  Basis Set: CC-PVDZ
    Blend: CC-PVDZ
    Number of shells: 96
    Number of basis function: 196
    Number of Cartesian functions: 205
    Spherical Harmonics?: true
    Max angular momentum: 2

  ==> Pre-Iterations <==

   -------------------------------------------------------
    Irrep   Nso     Nmo     Nalpha   Nbeta   Ndocc  Nsocc
   -------------------------------------------------------
     A        196     196       0       0       0       0
   -------------------------------------------------------
    Total     196     196      35      35      35       0
   -------------------------------------------------------

  ==> Integral Setup <==

  Using integral reordering PK algorithm.
  Sizing the integral batches needed.
  Building batch lookup table.
   Calculation information:
      Number of atoms:                  23
      Number of AO shells:              96
      Number of primitives:            268
      Number of atomic orbitals:       205
      Number of basis functions:       196

      Integral cutoff                 1.00e-12
      Number of threads:                 1

	Batch   1 pq = [       0,    9405] index = [             0,44231715] size =     44231715
	Batch   2 pq = [    9405,   13301] index = [      44231715,88464951] size =     44233236
	Batch   3 pq = [   13301,   16290] index = [      88464951,132690195] size =     44225244
	Batch   4 pq = [   16290,   18810] index = [     132690195,176917455] size =     44227260
	Batch   5 pq = [   18810,   19306] index = [     176917455,186370471] size =      9453016
  Task number: 17
  Buffer size: 11059200
  Buffer per thread: 2
  We computed 9037621 shell quartets total.
  Whereas there are 10841496 unique shell quartets.

  ==> DiskJK: Disk-Based J/K Matrices <==

    J tasked:                  Yes
    K tasked:                  Yes
    wK tasked:                  No
    Memory [MiB]:              375
    Schwarz Cutoff:          1E-12

    OpenMP threads:              1

  Minimum eigenvalue in the overlap matrix is 1.1869674683E-03.
  Using Symmetric Orthogonalization.

  SCF Guess: Superposition of Atomic Densities via on-the-fly atomic UHF.

  ==> Iterations <==

                        Total Energy        Delta E     RMS |[F,P]|

   @RHF iter SAD:  -381.19106048740235   -3.81191e+02   0.00000e+00
   @RHF iter   1:  -381.88511064611964   -6.94050e-01   3.13412e-03 DIIS
   @RHF iter   2:  -382.08253725065720   -1.97427e-01   1.57677e-03 DIIS
   @RHF iter   3:  -382.12818358593012   -4.56463e-02   3.97548e-04 DIIS
   @RHF iter   4:  -382.13204741725758   -3.86383e-03   1.68572e-04 DIIS
   @RHF iter   5:  -382.13266150451096   -6.14087e-04   2.55631e-05 DIIS
   @RHF iter   6:  -382.13268638076426   -2.48763e-05   1.07763e-05 DIIS
   @RHF iter   7:  -382.13269062511768   -4.24435e-06   3.88029e-06 DIIS
   @RHF iter   8:  -382.13269153723928   -9.12122e-07   1.59920e-06 DIIS
   @RHF iter   9:  -382.13269174067415   -2.03435e-07   5.71949e-07 DIIS
   @RHF iter  10:  -382.13269176137754   -2.07034e-08   1.71212e-07 DIIS
   @RHF iter  11:  -382.13269176359250   -2.21496e-09   7.34787e-08 DIIS
   @RHF iter  12:  -382.13269176386956   -2.77055e-10   3.05733e-08 DIIS
   @RHF iter  13:  -382.13269176391861   -4.90559e-11   9.51163e-09 DIIS
   @RHF iter  14:  -382.13269176392453   -5.91172e-12   3.14120e-09 DIIS
   @RHF iter  15:  -382.13269176392635   -1.81899e-12   1.18382e-09 DIIS
   @RHF iter  16:  -382.13269176392691   -5.68434e-13   4.21411e-10 DIIS
   @RHF iter  17:  -382.13269176392674    1.70530e-13   1.47181e-10 DIIS
   @RHF iter  18:  -382.13269176392544    1.30740e-12   4.60496e-11 DIIS
  Energy and wave function converged.

  ==> Post-Iterations <==

    Orbital Energies [Eh]
    ---------------------

    Doubly Occupied:

       1A    -15.617366     2A    -15.525275     3A    -11.292228
       4A    -11.249748     5A    -11.241104     6A    -11.225758
       7A    -11.223616     8A    -11.219377     9A    -11.217637
      10A     -1.337609    11A     -1.146013    12A     -1.055217
      13A     -1.032965    14A     -0.940214    15A     -0.917700
      16A     -0.813335    17A     -0.804908    18A     -0.759743
      19A     -0.738961    20A     -0.631900    21A     -0.609474
      22A     -0.602111    23A     -0.600011    24A     -0.593429
      25A     -0.552207    26A     -0.540387    27A     -0.539334
      28A     -0.525575    29A     -0.521894    30A     -0.477202
      31A     -0.475276    32A     -0.466809    33A     -0.405185
      34A     -0.372698    35A     -0.311286

    Virtual:

      36A      0.171503    37A      0.182215    38A      0.190251
      39A      0.202339    40A      0.214417    41A      0.224855
      42A      0.228512    43A      0.230721    44A      0.250484
      45A      0.258564    46A      0.268066    47A      0.290182
      48A      0.300992    49A      0.308268    50A      0.327981
      51A      0.354476    52A      0.376584    53A      0.382522
      54A      0.393301    55A      0.412405    56A      0.417038
      57A      0.474266    58A      0.497201    59A      0.575959
      60A      0.591669    61A      0.604244    62A      0.607967
      63A      0.614549    64A      0.623900    65A      0.652512
      66A      0.664138    67A      0.698237    68A      0.703869
      69A      0.723133    70A      0.763440    71A      0.766725
      72A      0.783548    73A      0.793293    74A      0.817314
      75A      0.818861    76A      0.837863    77A      0.850538
      78A      0.858872    79A      0.870195    80A      0.890988
      81A      0.893276    82A      0.902631    83A      0.907757
      84A      0.914037    85A      0.918746    86A      0.931688
      87A      0.945892    88A      0.954580    89A      0.962050
      90A      0.978053    91A      0.985687    92A      0.990126
      93A      1.013481    94A      1.040744    95A      1.067132
      96A      1.091098    97A      1.106021    98A      1.116125
      99A      1.134971   100A      1.146338   101A      1.164556
     102A      1.174610   103A      1.212510   104A      1.257941
     105A      1.278162   106A      1.308740   107A      1.318362
     108A      1.350981   109A      1.357775   110A      1.420167
     111A      1.443546   112A      1.458222   113A      1.488042
     114A      1.490483   115A      1.530632   116A      1.568675
     117A      1.587214   118A      1.592851   119A      1.617567
     120A      1.631629   121A      1.672310   122A      1.688542
     123A      1.698572   124A      1.712441   125A      1.730000
     126A      1.770453   127A      1.804187   128A      1.823034
     129A      1.845765   130A      1.851854   131A      1.884941
     132A      1.888585   133A      1.897906   134A      1.902058
     135A      1.926343   136A      1.930331   137A      1.936896
     138A      1.950249   139A      1.957842   140A      1.964488
     141A      1.967604   142A      1.976273   143A      1.989165
     144A      1.989740   145A      2.007766   146A      2.026925
     147A      2.046794   148A      2.061272   149A      2.086211
     150A      2.120779   151A      2.127083   152A      2.140808
     153A      2.153031   154A      2.196718   155A      2.214870
     156A      2.235612   157A      2.273398   158A      2.297847
     159A      2.306876   160A      2.315827   161A      2.347576
     162A      2.365133   163A      2.386209   164A      2.430658
     165A      2.450914   166A      2.493459   167A      2.499387
     168A      2.528464   169A      2.548240   170A      2.554385
     171A      2.601211   172A      2.612662   173A      2.640168
     174A      2.702928   175A      2.730262   176A      2.746694
     177A      2.759285   178A      2.774220   179A      2.782373
     180A      2.790675   181A      2.794059   182A      2.832903
     183A      2.838499   184A      2.867057   185A      2.885428
     186A      2.892729   187A      2.914340   188A      2.947679
     189A      2.966478   190A      2.968032   191A      3.060340
     192A      3.079399   193A      3.161166   194A      3.228759
     195A      3.472195   196A      3.796466

    Final Occupation by Irrep:
              A
    DOCC [    35 ]

  @RHF Final Energy:  -382.13269176392544

   => Energetics <=

    Nuclear Repulsion Energy =            427.8342518871455127
    One-Electron Energy =               -1364.7667864800262123
    Two-Electron Energy =                 554.7998428289553203
    Total Energy =                       -382.1326917639254361

Computation Completed

Properties will be evaluated at   0.000000,   0.000000,   0.000000 [a0]

Properties computed using the SCF density matrix

  Nuclear Dipole Moment: [e a0]
     X:   -11.8472      Y:    -7.2669      Z:   -10.7639

  Electronic Dipole Moment: [e a0]
     X:    11.0689      Y:     6.5447      Z:    11.5430

  Dipole Moment: [e a0]
     X:    -0.7784      Y:    -0.7222      Z:     0.7791     Total:     1.3170

  Dipole Moment: [D]
     X:    -1.9784      Y:    -1.8356      Z:     1.9803     Total:     3.3474

*** tstop() called on ds3 at Sun Apr 26 20:34:32 2020
Module time:
	user time   =      59.13 seconds =       0.99 minutes
	system time =      32.13 seconds =       0.54 minutes
	total time  =         88 seconds =       1.47 minutes
Total time:
	user time   =      59.13 seconds =       0.99 minutes
	system time =      32.13 seconds =       0.54 minutes
	total time  =         88 seconds =       1.47 minutes
                                     G D M A

                                 by Anthony Stone

                           version 2.2.06, 22 June 2011

               Distributed Multipoles from Gaussian wavefunctions

Starting at 20:34:32 on 26 Apr 2020

Using SCF density matrix from file ./SSI/SSI-035HIE-059ARG-1-dimer.test.20606.fchk

                         Distributed Multipole Analysis

Standard DMA

Positions and radii in angstrom
Multipole moments in atomic units, ea_0^k for rank k

C          x =  1.878435  y =  0.347540  z = -1.231056 angstrom
           Maximum rank =  0   Radius =  0.650 angstrom
                   Q00  =  -0.193512

C          x =  0.725435  y = -0.292460  z =  0.983944 angstrom
           Maximum rank =  0   Radius =  0.650 angstrom
                   Q00  =   0.008243

C          x =  1.463435  y =  0.523540  z =  0.196944 angstrom
           Maximum rank =  0   Radius =  0.650 angstrom
                   Q00  =   0.230128

C          x =  1.354435  y =  1.441540  z =  2.214944 angstrom
           Maximum rank =  0   Radius =  0.650 angstrom
                   Q00  =   0.474449

N          x =  0.614435  y =  0.339540  z =  2.213944 angstrom
           Maximum rank =  0   Radius =  0.650 angstrom
                   Q00  =  -0.495057

N          x =  1.900435  y =  1.563540  z =  1.014944 angstrom
           Maximum rank =  0   Radius =  0.650 angstrom
                   Q00  =  -0.782826

H          x =  0.277435  y = -1.231460  z =  0.693944 angstrom
           Maximum rank =  0   Radius =  0.325 angstrom
                   Q00  =   0.102903

H          x =  0.087435  y = -0.003460  z =  3.009944 angstrom
           Maximum rank =  0   Radius =  0.325 angstrom
                   Q00  =   0.213177

H          x =  1.783435  y =  1.297540  z = -1.759056 angstrom
           Maximum rank =  0   Radius =  0.325 angstrom
                   Q00  =   0.116053

H          x =  1.198435  y = -0.367460  z = -1.695056 angstrom
           Maximum rank =  0   Radius =  0.325 angstrom
                   Q00  =   0.094529

H          x =  1.507435  y =  2.109540  z =  3.055944 angstrom
           Maximum rank =  0   Radius =  0.325 angstrom
                   Q00  =   0.126008

H          x =  2.908515  y = -0.028720  z = -1.316896 angstrom
           Maximum rank =  0   Radius =  0.325 angstrom
                   Q00  =   0.105337

C          x = -1.819565  y = -1.223460  z = -1.586056 angstrom
           Maximum rank =  0   Radius =  0.650 angstrom
                   Q00  =  -0.092352

C          x = -2.685565  y = -2.235460  z = -2.335056 angstrom
           Maximum rank =  0   Radius =  0.650 angstrom
                   Q00  =  -0.242280

C          x = -2.790565  y = -0.131460  z = -1.048056 angstrom
           Maximum rank =  0   Radius =  0.650 angstrom
                   Q00  =  -0.227479

H          x = -1.306565  y = -1.703460  z = -0.755056 angstrom
           Maximum rank =  0   Radius =  0.325 angstrom
                   Q00  =   0.044220

H          x = -1.096565  y = -0.787460  z = -2.277056 angstrom
           Maximum rank =  0   Radius =  0.325 angstrom
                   Q00  =   0.056828

H          x = -3.155565  y = -1.710460  z = -3.170056 angstrom
           Maximum rank =  0   Radius =  0.325 angstrom
                   Q00  =   0.074054

H          x = -3.490565  y = -2.536460  z = -1.659056 angstrom
           Maximum rank =  0   Radius =  0.325 angstrom
                   Q00  =   0.066810

H          x = -3.479565  y =  0.151540  z = -1.847056 angstrom
           Maximum rank =  0   Radius =  0.325 angstrom
                   Q00  =   0.074689

H          x = -3.391565  y = -0.554460  z = -0.243056 angstrom
           Maximum rank =  0   Radius =  0.325 angstrom
                   Q00  =   0.066641

H          x = -2.239505  y = -3.154650  z = -2.742636 angstrom
           Maximum rank =  0   Radius =  0.325 angstrom
                   Q00  =   0.084890

H          x = -2.232475  y =  0.773740  z = -0.766736 angstrom
           Maximum rank =  0   Radius =  0.325 angstrom
                   Q00  =   0.094546

Total multipoles referred to origin at
           x =   0.000000,  y =    0.000000,  z =    0.000000 angstrom
                   Q00  =  -0.000000

Finished at 20:34:32 on 26 Apr 2020

  DMA results are available in the Python driver through the
	  variable('DMA DISTRIBUTED MULTIPOLES')
  and
	  variable('DMA TOTAL MULTIPOLES')
  commands.

    Psi4 stopped on: Sunday, 26 April 2020 08:34PM
    Psi4 wall time for execution: 0:01:28.12

*** Psi4 exiting successfully. Buy a developer a beer!
