                               Psi4 1.3.2 release

  ==> Input File <==

--------------------------------------------------------------------------
import numpy as np
set {scf_type pk
basis cc-pvdz
d_convergence 10
gdma_switch   0
gdma_limit    0
gdma_origin   [ 0.0,  0.0,  0.0 ]
}
molecule test {
    units Angstrom
    0 1
    --
    0 1
    C               -0.175034122534130    -0.559485249498083    -2.129647878396339
    C                0.194965877465870    -1.223485249498083    -3.436647878396339
    H               -0.181034122534130     0.523514750501917    -2.223647878396338
    H               -1.171034122534130    -0.884485249498083    -1.827647878396339
    H                0.528965877465870    -0.847485249498083    -1.351647878396339
    H               -0.597034122534130    -1.016485249498083    -4.157647878396339
    H                1.148045877465870    -0.853395249498083    -3.842455878396339
    H                0.254155877465870    -2.315175249498084    -3.315348878396339
    C               -0.186034122534130     0.861514750501917     1.459352121603661
    C                1.300965877465870     0.855514750501917     1.803352121603661
    C               -1.136034122534130     0.119514750501917     2.404352121603661
    H               -0.497034122534130     1.905514750501917     1.409352121603661
    H               -0.311034122534130     0.457514750501917     0.456352121603661
    H                1.843965877465870     1.302514750501917     0.972352121603661
    H               -0.628034122534130    -0.047485249498083     3.347352121603661
    H                1.661685877465870    -0.172095249498083     1.957952121603661
    H                1.456975877465870     1.460844750501916     2.708472121603661
    H               -2.033728122534130     0.714854750501917     2.627332121603661
    H               -1.460924122534130    -0.866045249498083     2.039492121603661

}
e, wfn = energy('scf', return_wfn=True)
gdma(wfn)
dmavals = variable('DMA DISTRIBUTED MULTIPOLES')
charges = np.array(dmavals)
print(charges)
np.save('SSI-017VAL-049LEU-1-dimer.npy', np.array(charges))--------------------------------------------------------------------------

*** tstart() called on ds3
*** at Mon Apr 27 13:59:49 2020

   => Loading Basis Set <=

    Name: CC-PVDZ
    Role: ORBITAL
    Keyword: BASIS
    atoms 1-2, 9-11  entry C          line   138 file /theoryfs2/ds/metcalf/miniconda2/envs/tf2gpu/share/psi4/basis/cc-pvdz.gbs
    atoms 3-8, 12-19 entry H          line    22 file /theoryfs2/ds/metcalf/miniconda2/envs/tf2gpu/share/psi4/basis/cc-pvdz.gbs

         ---------------------------------------------------------
                                   SCF
               by Justin Turney, Rob Parrish, Andy Simmonett
                          and Daniel G. A. Smith
                              RHF Reference
                        1 Threads,    500 MiB Core
         ---------------------------------------------------------

  ==> Geometry <==

    Molecular point group: c1
    Full point group: C1

    Geometry (in Angstrom), charge = 0, multiplicity = 1:

       Center              X                  Y                   Z               Mass
    ------------   -----------------  -----------------  -----------------  -----------------
         C           -0.175034122534    -0.559485249498    -2.129647878396    12.000000000000
         C            0.194965877466    -1.223485249498    -3.436647878396    12.000000000000
         H           -0.181034122534     0.523514750502    -2.223647878396     1.007825032230
         H           -1.171034122534    -0.884485249498    -1.827647878396     1.007825032230
         H            0.528965877466    -0.847485249498    -1.351647878396     1.007825032230
         H           -0.597034122534    -1.016485249498    -4.157647878396     1.007825032230
         H            1.148045877466    -0.853395249498    -3.842455878396     1.007825032230
         H            0.254155877466    -2.315175249498    -3.315348878396     1.007825032230
         C           -0.186034122534     0.861514750502     1.459352121604    12.000000000000
         C            1.300965877466     0.855514750502     1.803352121604    12.000000000000
         C           -1.136034122534     0.119514750502     2.404352121604    12.000000000000
         H           -0.497034122534     1.905514750502     1.409352121604     1.007825032230
         H           -0.311034122534     0.457514750502     0.456352121604     1.007825032230
         H            1.843965877466     1.302514750502     0.972352121604     1.007825032230
         H           -0.628034122534    -0.047485249498     3.347352121604     1.007825032230
         H            1.661685877466    -0.172095249498     1.957952121604     1.007825032230
         H            1.456975877466     1.460844750502     2.708472121604     1.007825032230
         H           -2.033728122534     0.714854750502     2.627332121604     1.007825032230
         H           -1.460924122534    -0.866045249498     2.039492121604     1.007825032230

  Running in c1 symmetry.

  Rotational constants: A =      0.22952  B =      0.03561  C =      0.03235 [cm^-1]
  Rotational constants: A =   6880.93746  B =   1067.46709  C =    969.74725 [MHz]
  Nuclear repulsion =  175.029252188420003

  Charge       = 0
  Multiplicity = 1
  Electrons    = 44
  Nalpha       = 22
  Nbeta        = 22

  ==> Algorithm <==

  SCF Algorithm Type is PK.
  DIIS enabled.
  MOM disabled.
  Fractional occupation disabled.
  Guess Type is SAD.
  Energy threshold   = 1.00e-06
  Density threshold  = 1.00e-10
  Integral threshold = 0.00e+00

  ==> Primary Basis <==

  Basis Set: CC-PVDZ
    Blend: CC-PVDZ
    Number of shells: 72
    Number of basis function: 140
    Number of Cartesian functions: 145
    Spherical Harmonics?: true
    Max angular momentum: 2

  ==> Pre-Iterations <==

   -------------------------------------------------------
    Irrep   Nso     Nmo     Nalpha   Nbeta   Ndocc  Nsocc
   -------------------------------------------------------
     A        140     140       0       0       0       0
   -------------------------------------------------------
    Total     140     140      22      22      22       0
   -------------------------------------------------------

  ==> Integral Setup <==

  Using integral reordering PK algorithm.
  Sizing the integral batches needed.
  Building batch lookup table.
   Calculation information:
      Number of atoms:                  19
      Number of AO shells:              72
      Number of primitives:            180
      Number of atomic orbitals:       145
      Number of basis functions:       140

      Integral cutoff                 1.00e-12
      Number of threads:                 1

	Batch   1 pq = [       0,    9405] index = [             0,44231715] size =     44231715
	Batch   2 pq = [    9405,    9870] index = [      44231715,48713385] size =      4481670
  Task number: 5
  Buffer size: 11059200
  Buffer per thread: 2
  We computed 2741068 shell quartets total.
  Whereas there are 3454506 unique shell quartets.

  ==> DiskJK: Disk-Based J/K Matrices <==

    J tasked:                  Yes
    K tasked:                  Yes
    wK tasked:                  No
    Memory [MiB]:              375
    Schwarz Cutoff:          1E-12

    OpenMP threads:              1

  Minimum eigenvalue in the overlap matrix is 5.0076257947E-03.
  Using Symmetric Orthogonalization.

  SCF Guess: Superposition of Atomic Densities via on-the-fly atomic UHF.

  ==> Iterations <==

                        Total Energy        Delta E     RMS |[F,P]|

   @RHF iter SAD:  -196.37316358908373   -1.96373e+02   0.00000e+00
   @RHF iter   1:  -197.30683962317789   -9.33676e-01   3.81157e-03 DIIS
   @RHF iter   2:  -197.46735269814695   -1.60513e-01   1.64406e-03 DIIS
   @RHF iter   3:  -197.49588636014727   -2.85337e-02   3.26091e-04 DIIS
   @RHF iter   4:  -197.49813303951453   -2.24668e-03   4.97685e-05 DIIS
   @RHF iter   5:  -197.49817391773507   -4.08782e-05   1.49422e-05 DIIS
   @RHF iter   6:  -197.49817742313584   -3.50540e-06   2.47018e-06 DIIS
   @RHF iter   7:  -197.49817753441388   -1.11278e-07   5.09613e-07 DIIS
   @RHF iter   8:  -197.49817753996598   -5.55210e-09   1.44103e-07 DIIS
   @RHF iter   9:  -197.49817754039535   -4.29367e-10   4.45336e-08 DIIS
   @RHF iter  10:  -197.49817754044329   -4.79474e-11   8.51833e-09 DIIS
   @RHF iter  11:  -197.49817754044452   -1.22213e-12   1.56532e-09 DIIS
   @RHF iter  12:  -197.49817754044483   -3.12639e-13   2.73164e-10 DIIS
   @RHF iter  13:  -197.49817754044506   -2.27374e-13   5.10740e-11 DIIS
  Energy and wave function converged.

  ==> Post-Iterations <==

    Orbital Energies [Eh]
    ---------------------

    Doubly Occupied:

       1A    -11.218853     2A    -11.217728     3A    -11.216619
       4A    -11.216094     5A    -11.214887     6A     -1.049844
       7A     -1.023145     8A     -0.926039     9A     -0.838123
      10A     -0.794596    11A     -0.621303    12A     -0.600123
      13A     -0.599344    14A     -0.594586    15A     -0.546011
      16A     -0.535285    17A     -0.508826    18A     -0.485624
      19A     -0.483937    20A     -0.477180    21A     -0.462089
      22A     -0.457272

    Virtual:

      23A      0.169666    24A      0.193988    25A      0.219659
      26A      0.224725    27A      0.228534    28A      0.252624
      29A      0.257782    30A      0.268051    31A      0.273735
      32A      0.278728    33A      0.290088    34A      0.296330
      35A      0.298896    36A      0.336062    37A      0.389176
      38A      0.430287    39A      0.441735    40A      0.586673
      41A      0.592577    42A      0.597146    43A      0.599311
      44A      0.614488    45A      0.648795    46A      0.659664
      47A      0.686673    48A      0.696848    49A      0.722719
      50A      0.752748    51A      0.823449    52A      0.847606
      53A      0.867634    54A      0.879910    55A      0.884469
      56A      0.890812    57A      0.890918    58A      0.896358
      59A      0.900652    60A      0.903293    61A      0.913308
      62A      0.914785    63A      0.922092    64A      0.931738
      65A      0.944701    66A      0.959422    67A      0.989209
      68A      1.037743    69A      1.103412    70A      1.110197
      71A      1.129874    72A      1.132776    73A      1.218481
      74A      1.329990    75A      1.390725    76A      1.436337
      77A      1.466494    78A      1.483141    79A      1.485799
      80A      1.513798    81A      1.587526    82A      1.669808
      83A      1.683300    84A      1.683965    85A      1.693482
      86A      1.696123    87A      1.721105    88A      1.800859
      89A      1.844297    90A      1.860233    91A      1.867353
      92A      1.886094    93A      1.904079    94A      1.922235
      95A      1.926166    96A      1.937180    97A      1.944808
      98A      1.950601    99A      1.953393   100A      1.961371
     101A      1.965716   102A      1.988998   103A      1.990209
     104A      2.007288   105A      2.016182   106A      2.060599
     107A      2.083673   108A      2.103606   109A      2.121732
     110A      2.153142   111A      2.199965   112A      2.283397
     113A      2.309708   114A      2.317007   115A      2.330632
     116A      2.349395   117A      2.380623   118A      2.430375
     119A      2.455684   120A      2.462693   121A      2.513754
     122A      2.554592   123A      2.565064   124A      2.576266
     125A      2.624833   126A      2.666256   127A      2.752994
     128A      2.760431   129A      2.775032   130A      2.789041
     131A      2.799780   132A      2.833885   133A      2.862262
     134A      2.868072   135A      2.906098   136A      2.920063
     137A      2.945413   138A      2.953379   139A      2.962310
     140A      3.072716

    Final Occupation by Irrep:
              A
    DOCC [    22 ]

  @RHF Final Energy:  -197.49817754044506

   => Energetics <=

    Nuclear Repulsion Energy =            175.0292521884200028
    One-Electron Energy =                -610.8798469434182152
    Two-Electron Energy =                 238.3524172145531566
    Total Energy =                       -197.4981775404450559

Computation Completed

Properties will be evaluated at   0.000000,   0.000000,   0.000000 [a0]

Properties computed using the SCF density matrix

  Nuclear Dipole Moment: [e a0]
     X:     0.0131      Y:    -0.5980      Z:    -1.1247

  Electronic Dipole Moment: [e a0]
     X:    -0.0311      Y:     0.6141      Z:     1.0782

  Dipole Moment: [e a0]
     X:    -0.0180      Y:     0.0161      Z:    -0.0465     Total:     0.0524

  Dipole Moment: [D]
     X:    -0.0457      Y:     0.0409      Z:    -0.1183     Total:     0.1332

*** tstop() called on ds3 at Mon Apr 27 14:00:10 2020
Module time:
	user time   =      14.71 seconds =       0.25 minutes
	system time =       6.24 seconds =       0.10 minutes
	total time  =         21 seconds =       0.35 minutes
Total time:
	user time   =      14.71 seconds =       0.25 minutes
	system time =       6.24 seconds =       0.10 minutes
	total time  =         21 seconds =       0.35 minutes
                                     G D M A

                                 by Anthony Stone

                           version 2.2.06, 22 June 2011

               Distributed Multipoles from Gaussian wavefunctions

Starting at 14:0:10 on 27 Apr 2020

Using SCF density matrix from file ./SSI/SSI-017VAL-049LEU-1-dimer.test.8463.fchk

                         Distributed Multipole Analysis

Standard DMA

Positions and radii in angstrom
Multipole moments in atomic units, ea_0^k for rank k

C          x = -0.175034  y = -0.559485  z = -2.129648 angstrom
           Maximum rank =  0   Radius =  0.650 angstrom
                   Q00  =  -0.250339

C          x =  0.194966  y = -1.223485  z = -3.436648 angstrom
           Maximum rank =  0   Radius =  0.650 angstrom
                   Q00  =  -0.216515

H          x = -0.181034  y =  0.523515  z = -2.223648 angstrom
           Maximum rank =  0   Radius =  0.325 angstrom
                   Q00  =   0.079872

H          x = -1.171034  y = -0.884485  z = -1.827648 angstrom
           Maximum rank =  0   Radius =  0.325 angstrom
                   Q00  =   0.077206

H          x =  0.528966  y = -0.847485  z = -1.351648 angstrom
           Maximum rank =  0   Radius =  0.325 angstrom
                   Q00  =   0.074788

H          x = -0.597034  y = -1.016485  z = -4.157648 angstrom
           Maximum rank =  0   Radius =  0.325 angstrom
                   Q00  =   0.077477

H          x =  1.148046  y = -0.853395  z = -3.842456 angstrom
           Maximum rank =  0   Radius =  0.325 angstrom
                   Q00  =   0.080863

H          x =  0.254156  y = -2.315175  z = -3.315349 angstrom
           Maximum rank =  0   Radius =  0.325 angstrom
                   Q00  =   0.079006

C          x = -0.186034  y =  0.861515  z =  1.459352 angstrom
           Maximum rank =  0   Radius =  0.650 angstrom
                   Q00  =  -0.089798

C          x =  1.300966  y =  0.855515  z =  1.803352 angstrom
           Maximum rank =  0   Radius =  0.650 angstrom
                   Q00  =  -0.241076

C          x = -1.136034  y =  0.119515  z =  2.404352 angstrom
           Maximum rank =  0   Radius =  0.650 angstrom
                   Q00  =  -0.253052

H          x = -0.497034  y =  1.905515  z =  1.409352 angstrom
           Maximum rank =  0   Radius =  0.325 angstrom
                   Q00  =   0.046170

H          x = -0.311034  y =  0.457515  z =  0.456352 angstrom
           Maximum rank =  0   Radius =  0.325 angstrom
                   Q00  =   0.055631

H          x =  1.843966  y =  1.302515  z =  0.972352 angstrom
           Maximum rank =  0   Radius =  0.325 angstrom
                   Q00  =   0.084802

H          x = -0.628034  y = -0.047485  z =  3.347352 angstrom
           Maximum rank =  0   Radius =  0.325 angstrom
                   Q00  =   0.073170

H          x =  1.661686  y = -0.172095  z =  1.957952 angstrom
           Maximum rank =  0   Radius =  0.325 angstrom
                   Q00  =   0.075458

H          x =  1.456976  y =  1.460845  z =  2.708472 angstrom
           Maximum rank =  0   Radius =  0.325 angstrom
                   Q00  =   0.078911

H          x = -2.033728  y =  0.714855  z =  2.627332 angstrom
           Maximum rank =  0   Radius =  0.325 angstrom
                   Q00  =   0.086754

H          x = -1.460924  y = -0.866045  z =  2.039492 angstrom
           Maximum rank =  0   Radius =  0.325 angstrom
                   Q00  =   0.080670

Total multipoles referred to origin at
           x =   0.000000,  y =    0.000000,  z =    0.000000 angstrom
                   Q00  =  -0.000000

Finished at 14:0:10 on 27 Apr 2020

  DMA results are available in the Python driver through the
	  variable('DMA DISTRIBUTED MULTIPOLES')
  and
	  variable('DMA TOTAL MULTIPOLES')
  commands.

    Psi4 stopped on: Monday, 27 April 2020 02:00PM
    Psi4 wall time for execution: 0:00:20.52

*** Psi4 exiting successfully. Buy a developer a beer!
