                               Psi4 1.3.2 release

  ==> Input File <==

--------------------------------------------------------------------------
import numpy as np
set {scf_type pk
basis cc-pvdz
d_convergence 10
gdma_switch   0
gdma_limit    0
gdma_origin   [ 0.0,  0.0,  0.0 ]
}
molecule test {
    units Angstrom
    -1 1
    --
    -1 1
    C                1.147364270235010     2.856720350958131    -1.432677967068754
    S                1.423364270235010     1.397720350958131    -0.419677967068754
    H                0.624364270235010     1.746720350958131     0.599322032931246
    H                1.431364270235010     3.701720350958131    -0.821677967068754
    H                0.103364270235010     2.927720350958131    -1.745677967068754
    H                1.837084270235010     2.912565350958131    -2.287757967068754
    C               -1.282635729764990    -0.257279649041869     0.349322032931246
    C               -2.148635729764990    -0.215279649041869     1.604322032931246
    C               -0.511635729764990    -1.557279649041869     0.185322032931246
    O                0.046364270235010    -2.062279649041869     1.187322032931246
    O               -0.442635729764990    -2.056279649041869    -0.964677967068754
    H               -1.883635729764990    -0.098279649041869    -0.546677967068754
    H               -0.632635729764990     0.572720350958131     0.496322032931246
    H               -1.515635729764990    -0.298279649041869     2.488322032931246
    H               -2.874895729764990    -1.040854649041869     1.573242032931246
    H               -2.668775729764990     0.753912350958131     1.615202032931246

}
e, wfn = energy('scf', return_wfn=True)
gdma(wfn)
dmavals = variable('DMA DISTRIBUTED MULTIPOLES')
charges = np.array(dmavals)
print(charges)
np.save('SSI-087CYS-119ASP-1-dimer.npy', np.array(charges))--------------------------------------------------------------------------

*** tstart() called on ds3
*** at Mon Apr 27 08:02:48 2020

   => Loading Basis Set <=

    Name: CC-PVDZ
    Role: ORBITAL
    Keyword: BASIS
    atoms 1, 7-9     entry C          line   138 file /theoryfs2/ds/metcalf/miniconda2/envs/tf2gpu/share/psi4/basis/cc-pvdz.gbs
    atoms 2          entry S          line   598 file /theoryfs2/ds/metcalf/miniconda2/envs/tf2gpu/share/psi4/basis/cc-pvdz.gbs
    atoms 3-6, 12-16 entry H          line    22 file /theoryfs2/ds/metcalf/miniconda2/envs/tf2gpu/share/psi4/basis/cc-pvdz.gbs
    atoms 10-11      entry O          line   198 file /theoryfs2/ds/metcalf/miniconda2/envs/tf2gpu/share/psi4/basis/cc-pvdz.gbs

         ---------------------------------------------------------
                                   SCF
               by Justin Turney, Rob Parrish, Andy Simmonett
                          and Daniel G. A. Smith
                              RHF Reference
                        1 Threads,    500 MiB Core
         ---------------------------------------------------------

  ==> Geometry <==

    Molecular point group: c1
    Full point group: C1

    Geometry (in Angstrom), charge = -1, multiplicity = 1:

       Center              X                  Y                   Z               Mass
    ------------   -----------------  -----------------  -----------------  -----------------
         C            1.147364270235     2.856720350958    -1.432677967069    12.000000000000
         S            1.423364270235     1.397720350958    -0.419677967069    31.972071174400
         H            0.624364270235     1.746720350958     0.599322032931     1.007825032230
         H            1.431364270235     3.701720350958    -0.821677967069     1.007825032230
         H            0.103364270235     2.927720350958    -1.745677967069     1.007825032230
         H            1.837084270235     2.912565350958    -2.287757967069     1.007825032230
         C           -1.282635729765    -0.257279649042     0.349322032931    12.000000000000
         C           -2.148635729765    -0.215279649042     1.604322032931    12.000000000000
         C           -0.511635729765    -1.557279649042     0.185322032931    12.000000000000
         O            0.046364270235    -2.062279649042     1.187322032931    15.994914619570
         O           -0.442635729765    -2.056279649042    -0.964677967069    15.994914619570
         H           -1.883635729765    -0.098279649042    -0.546677967069     1.007825032230
         H           -0.632635729765     0.572720350958     0.496322032931     1.007825032230
         H           -1.515635729765    -0.298279649042     2.488322032931     1.007825032230
         H           -2.874895729765    -1.040854649042     1.573242032931     1.007825032230
         H           -2.668775729765     0.753912350958     1.615202032931     1.007825032230

  Running in c1 symmetry.

  Rotational constants: A =      0.09464  B =      0.03068  C =      0.02716 [cm^-1]
  Rotational constants: A =   2837.14894  B =    919.66345  C =    814.35159 [MHz]
  Nuclear repulsion =  353.763254720468012

  Charge       = -1
  Multiplicity = 1
  Electrons    = 66
  Nalpha       = 33
  Nbeta        = 33

  ==> Algorithm <==

  SCF Algorithm Type is PK.
  DIIS enabled.
  MOM disabled.
  Fractional occupation disabled.
  Guess Type is SAD.
  Energy threshold   = 1.00e-06
  Density threshold  = 1.00e-10
  Integral threshold = 0.00e+00

  ==> Primary Basis <==

  Basis Set: CC-PVDZ
    Blend: CC-PVDZ
    Number of shells: 71
    Number of basis function: 147
    Number of Cartesian functions: 154
    Spherical Harmonics?: true
    Max angular momentum: 2

  ==> Pre-Iterations <==

   -------------------------------------------------------
    Irrep   Nso     Nmo     Nalpha   Nbeta   Ndocc  Nsocc
   -------------------------------------------------------
     A        147     147       0       0       0       0
   -------------------------------------------------------
    Total     147     147      33      33      33       0
   -------------------------------------------------------

  ==> Integral Setup <==

  Using integral reordering PK algorithm.
  Sizing the integral batches needed.
  Building batch lookup table.
   Calculation information:
      Number of atoms:                  16
      Number of AO shells:              71
      Number of primitives:            227
      Number of atomic orbitals:       154
      Number of basis functions:       147

      Integral cutoff                 1.00e-12
      Number of threads:                 1

	Batch   1 pq = [       0,    9405] index = [             0,44231715] size =     44231715
	Batch   2 pq = [    9405,   10878] index = [      44231715,59170881] size =     14939166
  Task number: 6
  Buffer size: 11059200
  Buffer per thread: 2
  We computed 2791759 shell quartets total.
  Whereas there are 3267846 unique shell quartets.

  ==> DiskJK: Disk-Based J/K Matrices <==

    J tasked:                  Yes
    K tasked:                  Yes
    wK tasked:                  No
    Memory [MiB]:              375
    Schwarz Cutoff:          1E-12

    OpenMP threads:              1

  Minimum eigenvalue in the overlap matrix is 4.0481199404E-03.
  Using Symmetric Orthogonalization.

  SCF Guess: Superposition of Atomic Densities via on-the-fly atomic UHF.

  ==> Iterations <==

                        Total Energy        Delta E     RMS |[F,P]|

   @RHF iter SAD:  -702.61649955738983   -7.02616e+02   0.00000e+00
   @RHF iter   1:  -703.71481752264060   -1.09832e+00   4.85992e-03 DIIS
   @RHF iter   2:  -703.91770890667408   -2.02891e-01   2.68235e-03 DIIS
   @RHF iter   3:  -703.97461059529007   -5.69017e-02   4.34964e-04 DIIS
   @RHF iter   4:  -703.97758101644126   -2.97042e-03   1.63596e-04 DIIS
   @RHF iter   5:  -703.97800932484199   -4.28308e-04   2.77255e-05 DIIS
   @RHF iter   6:  -703.97802786305851   -1.85382e-05   6.97697e-06 DIIS
   @RHF iter   7:  -703.97802910828500   -1.24523e-06   2.09826e-06 DIIS
   @RHF iter   8:  -703.97802923763925   -1.29354e-07   7.60057e-07 DIIS
   @RHF iter   9:  -703.97802925480914   -1.71699e-08   2.72557e-07 DIIS
   @RHF iter  10:  -703.97802925708675   -2.27760e-09   1.39379e-07 DIIS
   @RHF iter  11:  -703.97802925756037   -4.73619e-10   3.74124e-08 DIIS
   @RHF iter  12:  -703.97802925762460   -6.42331e-11   1.50159e-08 DIIS
   @RHF iter  13:  -703.97802925763017   -5.57066e-12   4.61737e-09 DIIS
   @RHF iter  14:  -703.97802925763187   -1.70530e-12   1.47198e-09 DIIS
   @RHF iter  15:  -703.97802925763619   -4.32010e-12   4.73182e-10 DIIS
   @RHF iter  16:  -703.97802925762574    1.04592e-11   1.53794e-10 DIIS
   @RHF iter  17:  -703.97802925762994   -4.20641e-12   6.53964e-11 DIIS
  Energy and wave function converged.

  ==> Post-Iterations <==

    Orbital Energies [Eh]
    ---------------------

    Doubly Occupied:

       1A    -91.830023     2A    -20.252334     3A    -20.248866
       4A    -11.161592     5A    -11.105396     6A    -11.071776
       7A    -11.040322     8A     -8.833816     9A     -6.515751
      10A     -6.514342    11A     -6.511840    12A     -1.138095
      13A     -1.025229    14A     -0.935638    15A     -0.872123
      16A     -0.759754    17A     -0.695562    18A     -0.513009
      19A     -0.498386    20A     -0.490585    21A     -0.463281
      22A     -0.427805    23A     -0.423416    24A     -0.381588
      25A     -0.358871    26A     -0.352066    27A     -0.338170
      28A     -0.321251    29A     -0.288794    30A     -0.230198
      31A     -0.172875    32A     -0.163228    33A     -0.151100

    Virtual:

      34A      0.257429    35A      0.294937    36A      0.332584
      37A      0.338982    38A      0.352083    39A      0.357818
      40A      0.395022    41A      0.405508    42A      0.421918
      43A      0.459969    44A      0.508654    45A      0.568194
      46A      0.602347    47A      0.619554    48A      0.671819
      49A      0.675969    50A      0.705274    51A      0.711948
      52A      0.737533    53A      0.758030    54A      0.780246
      55A      0.814553    56A      0.850660    57A      0.862069
      58A      0.900223    59A      0.939800    60A      0.958106
      61A      0.967635    62A      0.973541    63A      0.987057
      64A      0.991008    65A      0.995887    66A      1.014596
      67A      1.016882    68A      1.041348    69A      1.047836
      70A      1.052997    71A      1.064275    72A      1.078999
      73A      1.089865    74A      1.141087    75A      1.156152
      76A      1.173370    77A      1.283278    78A      1.303638
      79A      1.322203    80A      1.334244    81A      1.380968
      82A      1.400603    83A      1.435909    84A      1.457367
      85A      1.482615    86A      1.525985    87A      1.549403
      88A      1.579236    89A      1.609567    90A      1.659791
      91A      1.665836    92A      1.679705    93A      1.702205
      94A      1.745398    95A      1.756462    96A      1.823753
      97A      1.830887    98A      1.876548    99A      1.889980
     100A      1.941085   101A      1.966893   102A      1.997609
     103A      2.021052   104A      2.023634   105A      2.042565
     106A      2.086060   107A      2.091472   108A      2.120810
     109A      2.126375   110A      2.147761   111A      2.183587
     112A      2.193969   113A      2.199772   114A      2.253199
     115A      2.303975   116A      2.320477   117A      2.386433
     118A      2.417910   119A      2.466764   120A      2.481529
     121A      2.494301   122A      2.510252   123A      2.524652
     124A      2.554273   125A      2.620989   126A      2.668384
     127A      2.735455   128A      2.787842   129A      2.833064
     130A      2.850961   131A      2.874040   132A      2.903897
     133A      2.915586   134A      2.997499   135A      3.011335
     136A      3.079023   137A      3.163475   138A      3.257822
     139A      3.296619   140A      3.317983   141A      3.370888
     142A      3.644130   143A      3.797182   144A      3.833728
     145A      4.056745   146A      4.093019   147A      4.203845

    Final Occupation by Irrep:
              A
    DOCC [    33 ]

  @RHF Final Energy:  -703.97802925762994

   => Energetics <=

    Nuclear Repulsion Energy =            353.7632547204680122
    One-Electron Energy =               -1683.3084021750466945
    Two-Electron Energy =                 625.5671181969487407
    Total Energy =                       -703.9780292576299416

Computation Completed

Properties will be evaluated at   0.000000,   0.000000,   0.000000 [a0]

Properties computed using the SCF density matrix

  Nuclear Dipole Moment: [e a0]
     X:    -5.1949      Y:    10.4961      Z:     1.2749

  Electronic Dipole Moment: [e a0]
     X:     5.3268      Y:    -6.2254      Z:    -1.5819

  Dipole Moment: [e a0]
     X:     0.1319      Y:     4.2707      Z:    -0.3070     Total:     4.2838

  Dipole Moment: [D]
     X:     0.3353      Y:    10.8551      Z:    -0.7803     Total:    10.8883

*** tstop() called on ds3 at Mon Apr 27 08:03:42 2020
Module time:
	user time   =      27.89 seconds =       0.46 minutes
	system time =       8.47 seconds =       0.14 minutes
	total time  =         54 seconds =       0.90 minutes
Total time:
	user time   =      27.89 seconds =       0.46 minutes
	system time =       8.47 seconds =       0.14 minutes
	total time  =         54 seconds =       0.90 minutes
                                     G D M A

                                 by Anthony Stone

                           version 2.2.06, 22 June 2011

               Distributed Multipoles from Gaussian wavefunctions

Starting at 8:3:42 on 27 Apr 2020

Using SCF density matrix from file ./SSI/SSI-087CYS-119ASP-1-dimer.test.514.fchk

                         Distributed Multipole Analysis

Standard DMA

Positions and radii in angstrom
Multipole moments in atomic units, ea_0^k for rank k

C          x =  1.147364  y =  2.856720  z = -1.432678 angstrom
           Maximum rank =  0   Radius =  0.650 angstrom
                   Q00  =  -0.339800

S          x =  1.423364  y =  1.397720  z = -0.419678 angstrom
           Maximum rank =  0   Radius =  0.650 angstrom
                   Q00  =  -0.043291

H          x =  0.624364  y =  1.746720  z =  0.599322 angstrom
           Maximum rank =  0   Radius =  0.325 angstrom
                   Q00  =   0.105805

H          x =  1.431364  y =  3.701720  z = -0.821678 angstrom
           Maximum rank =  0   Radius =  0.325 angstrom
                   Q00  =   0.069827

H          x =  0.103364  y =  2.927720  z = -1.745678 angstrom
           Maximum rank =  0   Radius =  0.325 angstrom
                   Q00  =   0.088791

H          x =  1.837084  y =  2.912565  z = -2.287758 angstrom
           Maximum rank =  0   Radius =  0.325 angstrom
                   Q00  =   0.104889

C          x = -1.282636  y = -0.257280  z =  0.349322 angstrom
           Maximum rank =  0   Radius =  0.650 angstrom
                   Q00  =  -0.092141

C          x = -2.148636  y = -0.215280  z =  1.604322 angstrom
           Maximum rank =  0   Radius =  0.650 angstrom
                   Q00  =  -0.200083

C          x = -0.511636  y = -1.557280  z =  0.185322 angstrom
           Maximum rank =  0   Radius =  0.650 angstrom
                   Q00  =   1.009473

O          x =  0.046364  y = -2.062280  z =  1.187322 angstrom
           Maximum rank =  0   Radius =  0.650 angstrom
                   Q00  =  -0.962352

O          x = -0.442636  y = -2.056280  z = -0.964678 angstrom
           Maximum rank =  0   Radius =  0.650 angstrom
                   Q00  =  -0.931484

H          x = -1.883636  y = -0.098280  z = -0.546678 angstrom
           Maximum rank =  0   Radius =  0.325 angstrom
                   Q00  =   0.022277

H          x = -0.632636  y =  0.572720  z =  0.496322 angstrom
           Maximum rank =  0   Radius =  0.325 angstrom
                   Q00  =   0.012851

H          x = -1.515636  y = -0.298280  z =  2.488322 angstrom
           Maximum rank =  0   Radius =  0.325 angstrom
                   Q00  =   0.082481

H          x = -2.874896  y = -1.040855  z =  1.573242 angstrom
           Maximum rank =  0   Radius =  0.325 angstrom
                   Q00  =   0.066477

H          x = -2.668776  y =  0.753912  z =  1.615202 angstrom
           Maximum rank =  0   Radius =  0.325 angstrom
                   Q00  =   0.006278

Total multipoles referred to origin at
           x =   0.000000,  y =    0.000000,  z =    0.000000 angstrom
                   Q00  =  -1.000000

Finished at 8:3:42 on 27 Apr 2020

  DMA results are available in the Python driver through the
	  variable('DMA DISTRIBUTED MULTIPOLES')
  and
	  variable('DMA TOTAL MULTIPOLES')
  commands.

    Psi4 stopped on: Monday, 27 April 2020 08:03AM
    Psi4 wall time for execution: 0:00:53.53

*** Psi4 exiting successfully. Buy a developer a beer!
