                               Psi4 1.3.2 release

  ==> Input File <==

--------------------------------------------------------------------------
import numpy as np
set {scf_type pk
basis cc-pvdz
d_convergence 10
gdma_switch   0
gdma_limit    0
gdma_origin   [ 0.0,  0.0,  0.0 ]
}
molecule test {
    units Angstrom
    0 1
    --
    0 1
    C                1.821345832038901    -2.433714992061724     0.245640402469563
    C                1.403345832038901     0.036285007938276     0.475640402469563
    C                1.969345832038901    -1.005714992061725    -0.262359597530437
    C                1.507345832038901     1.364285007938276     0.048640402469563
    C                2.271345832038901     1.648285007938275    -1.040359597530437
    C                2.741345832038901    -0.676714992061724    -1.379359597530437
    C                2.893345832038901     0.659285007938276    -1.742359597530437
    H                0.843345832038901    -0.189714992061724     1.368640402469563
    H                1.025345832038901     2.156285007938276     0.606640402469563
    H                1.751345832038901    -3.108714992061725    -0.605359597530437
    H                0.881345832038901    -2.497714992061724     0.794640402469563
    H                2.380345832038901     2.673285007938275    -1.361359597530437
    H                3.239345832038901    -1.451714992061724    -1.946359597530437
    H                3.505345832038901     0.917285007938276    -2.592359597530437
    H                2.634575832038901    -2.750524992061725     0.915187402469563
    C               -2.332654167961099     0.498285007938276     0.927640402469563
    C               -2.483654167961099     0.325285007938276     2.429640402469563
    S               -3.732654167961099    -0.107714992061724    -0.064359597530437
    H               -2.186654167961099     1.558285007938276     0.702640402469563
    H               -1.434654167961099    -0.030714992061724     0.598640402469563
    H               -2.597654167961099    -0.732714992061724     2.668640402469563
    H               -3.284654167961099     0.286285007938276    -1.264359597530437
    H               -3.343414167961099     0.915055007938276     2.780332402469563
    H               -1.580974167961099     0.724405007938276     2.915311402469563

}
e, wfn = energy('scf', return_wfn=True)
gdma(wfn)
dmavals = variable('DMA DISTRIBUTED MULTIPOLES')
charges = np.array(dmavals)
print(charges)
np.save('SSI-052PHE-061CYS-1-dimer.npy', np.array(charges))--------------------------------------------------------------------------

*** tstart() called on ds3
*** at Mon Apr 27 22:16:05 2020

   => Loading Basis Set <=

    Name: CC-PVDZ
    Role: ORBITAL
    Keyword: BASIS
    atoms 1-7, 16-17  entry C          line   138 file /theoryfs2/ds/metcalf/miniconda2/envs/tf2gpu/share/psi4/basis/cc-pvdz.gbs
    atoms 8-15, 19-24 entry H          line    22 file /theoryfs2/ds/metcalf/miniconda2/envs/tf2gpu/share/psi4/basis/cc-pvdz.gbs
    atoms 18          entry S          line   598 file /theoryfs2/ds/metcalf/miniconda2/envs/tf2gpu/share/psi4/basis/cc-pvdz.gbs

         ---------------------------------------------------------
                                   SCF
               by Justin Turney, Rob Parrish, Andy Simmonett
                          and Daniel G. A. Smith
                              RHF Reference
                        1 Threads,    500 MiB Core
         ---------------------------------------------------------

  ==> Geometry <==

    Molecular point group: c1
    Full point group: C1

    Geometry (in Angstrom), charge = 0, multiplicity = 1:

       Center              X                  Y                   Z               Mass
    ------------   -----------------  -----------------  -----------------  -----------------
         C            1.821345832039    -2.433714992062     0.245640402470    12.000000000000
         C            1.403345832039     0.036285007938     0.475640402470    12.000000000000
         C            1.969345832039    -1.005714992062    -0.262359597530    12.000000000000
         C            1.507345832039     1.364285007938     0.048640402470    12.000000000000
         C            2.271345832039     1.648285007938    -1.040359597530    12.000000000000
         C            2.741345832039    -0.676714992062    -1.379359597530    12.000000000000
         C            2.893345832039     0.659285007938    -1.742359597530    12.000000000000
         H            0.843345832039    -0.189714992062     1.368640402470     1.007825032230
         H            1.025345832039     2.156285007938     0.606640402470     1.007825032230
         H            1.751345832039    -3.108714992062    -0.605359597530     1.007825032230
         H            0.881345832039    -2.497714992062     0.794640402470     1.007825032230
         H            2.380345832039     2.673285007938    -1.361359597530     1.007825032230
         H            3.239345832039    -1.451714992062    -1.946359597530     1.007825032230
         H            3.505345832039     0.917285007938    -2.592359597530     1.007825032230
         H            2.634575832039    -2.750524992062     0.915187402470     1.007825032230
         C           -2.332654167961     0.498285007938     0.927640402470    12.000000000000
         C           -2.483654167961     0.325285007938     2.429640402470    12.000000000000
         S           -3.732654167961    -0.107714992062    -0.064359597530    31.972071174400
         H           -2.186654167961     1.558285007938     0.702640402470     1.007825032230
         H           -1.434654167961    -0.030714992062     0.598640402470     1.007825032230
         H           -2.597654167961    -0.732714992062     2.668640402470     1.007825032230
         H           -3.284654167961     0.286285007938    -1.264359597530     1.007825032230
         H           -3.343414167961     0.915055007938     2.780332402470     1.007825032230
         H           -1.580974167961     0.724405007938     2.915311402470     1.007825032230

  Running in c1 symmetry.

  Rotational constants: A =      0.05143  B =      0.01349  C =      0.01272 [cm^-1]
  Rotational constants: A =   1541.86898  B =    404.42936  C =    381.45071 [MHz]
  Nuclear repulsion =  540.441984941375722

  Charge       = 0
  Multiplicity = 1
  Electrons    = 84
  Nalpha       = 42
  Nbeta        = 42

  ==> Algorithm <==

  SCF Algorithm Type is PK.
  DIIS enabled.
  MOM disabled.
  Fractional occupation disabled.
  Guess Type is SAD.
  Energy threshold   = 1.00e-06
  Density threshold  = 1.00e-10
  Integral threshold = 0.00e+00

  ==> Primary Basis <==

  Basis Set: CC-PVDZ
    Blend: CC-PVDZ
    Number of shells: 104
    Number of basis function: 214
    Number of Cartesian functions: 224
    Spherical Harmonics?: true
    Max angular momentum: 2

  ==> Pre-Iterations <==

   -------------------------------------------------------
    Irrep   Nso     Nmo     Nalpha   Nbeta   Ndocc  Nsocc
   -------------------------------------------------------
     A        214     214       0       0       0       0
   -------------------------------------------------------
    Total     214     214      42      42      42       0
   -------------------------------------------------------

  ==> Integral Setup <==

  Using integral reordering PK algorithm.
  Sizing the integral batches needed.
  Building batch lookup table.
   Calculation information:
      Number of atoms:                  24
      Number of AO shells:             104
      Number of primitives:            318
      Number of atomic orbitals:       224
      Number of basis functions:       214

      Integral cutoff                 1.00e-12
      Number of threads:                 1

	Batch   1 pq = [       0,    9405] index = [             0,44231715] size =     44231715
	Batch   2 pq = [    9405,   13301] index = [      44231715,88464951] size =     44233236
	Batch   3 pq = [   13301,   16290] index = [      88464951,132690195] size =     44225244
	Batch   4 pq = [   16290,   18810] index = [     132690195,176917455] size =     44227260
	Batch   5 pq = [   18810,   21030] index = [     176917455,221140965] size =     44223510
	Batch   6 pq = [   21030,   23005] index = [     221140965,264626515] size =     43485550
  Task number: 24
  Buffer size: 11059200
  Buffer per thread: 2
  We computed 12832812 shell quartets total.
  Whereas there are 14908530 unique shell quartets.

  ==> DiskJK: Disk-Based J/K Matrices <==

    J tasked:                  Yes
    K tasked:                  Yes
    wK tasked:                  No
    Memory [MiB]:              375
    Schwarz Cutoff:          1E-12

    OpenMP threads:              1

  Minimum eigenvalue in the overlap matrix is 2.9860092902E-04.
  Using Symmetric Orthogonalization.

  SCF Guess: Superposition of Atomic Densities via on-the-fly atomic UHF.

  ==> Iterations <==

                        Total Energy        Delta E     RMS |[F,P]|

   @RHF iter SAD:  -745.54972027581255   -7.45550e+02   0.00000e+00
   @RHF iter   1:  -746.29204268420176   -7.42322e-01   2.61254e-03 DIIS
   @RHF iter   2:  -746.48706351462602   -1.95021e-01   1.06812e-03 DIIS
   @RHF iter   3:  -746.51595289121087   -2.88894e-02   2.49359e-04 DIIS
   @RHF iter   4:  -746.51863196343152   -2.67907e-03   5.23624e-05 DIIS
   @RHF iter   5:  -746.51872584915736   -9.38857e-05   1.37067e-05 DIIS
   @RHF iter   6:  -746.51873309761231   -7.24845e-06   2.93578e-06 DIIS
   @RHF iter   7:  -746.51873352456994   -4.26958e-07   9.36684e-07 DIIS
   @RHF iter   8:  -746.51873357435727   -4.97873e-08   4.14782e-07 DIIS
   @RHF iter   9:  -746.51873358506418   -1.07069e-08   1.59391e-07 DIIS
   @RHF iter  10:  -746.51873358741966   -2.35548e-09   8.24822e-08 DIIS
   @RHF iter  11:  -746.51873358822843   -8.08768e-10   3.40034e-08 DIIS
   @RHF iter  12:  -746.51873358838407   -1.55637e-10   1.12625e-08 DIIS
   @RHF iter  13:  -746.51873358840101   -1.69393e-11   3.70605e-09 DIIS
   @RHF iter  14:  -746.51873358839850    2.50111e-12   1.08280e-09 DIIS
   @RHF iter  15:  -746.51873358839907   -5.68434e-13   4.98325e-10 DIIS
   @RHF iter  16:  -746.51873358840237   -3.29692e-12   2.01933e-10 DIIS
   @RHF iter  17:  -746.51873358839998    2.38742e-12   8.16243e-11 DIIS
  Energy and wave function converged.

  ==> Post-Iterations <==

    Orbital Energies [Eh]
    ---------------------

    Doubly Occupied:

       1A    -91.940121     2A    -11.259477     3A    -11.246154
       4A    -11.236877     5A    -11.236382     6A    -11.236068
       7A    -11.234652     8A    -11.234581     9A    -11.233934
      10A    -11.227962    11A     -8.943343    12A     -6.625471
      13A     -6.624039    14A     -6.621667    15A     -1.160997
      16A     -1.067659    17A     -1.050575    18A     -1.015800
      19A     -0.944282    20A     -0.936303    21A     -0.832542
      22A     -0.809118    23A     -0.797846    24A     -0.698280
      25A     -0.637002    26A     -0.634404    27A     -0.628052
      28A     -0.610817    29A     -0.585831    30A     -0.579414
      31A     -0.565047    32A     -0.540800    33A     -0.534359
      34A     -0.512925    35A     -0.502868    36A     -0.495730
      37A     -0.489710    38A     -0.481811    39A     -0.437184
      40A     -0.347299    41A     -0.334788    42A     -0.330168

    Virtual:

      43A      0.129345    44A      0.137559    45A      0.150052
      46A      0.183950    47A      0.191254    48A      0.199579
      49A      0.221577    50A      0.224519    51A      0.231475
      52A      0.244979    53A      0.252448    54A      0.256742
      55A      0.266608    56A      0.278060    57A      0.292395
      58A      0.309493    59A      0.313363    60A      0.362669
      61A      0.371845    62A      0.376823    63A      0.454513
      64A      0.462362    65A      0.474907    66A      0.482612
      67A      0.513064    68A      0.556521    69A      0.584098
      70A      0.590310    71A      0.593378    72A      0.628167
      73A      0.644863    74A      0.656679    75A      0.659968
      76A      0.678062    77A      0.687084    78A      0.690540
      79A      0.702468    80A      0.709766    81A      0.725490
      82A      0.730775    83A      0.739502    84A      0.749551
      85A      0.762843    86A      0.767914    87A      0.781090
      88A      0.796344    89A      0.797716    90A      0.805609
      91A      0.836460    92A      0.851872    93A      0.854437
      94A      0.859075    95A      0.862883    96A      0.871866
      97A      0.875881    98A      0.886700    99A      0.889447
     100A      0.903150   101A      0.903480   102A      0.908524
     103A      0.921694   104A      0.935932   105A      0.937370
     106A      0.960229   107A      0.964380   108A      0.969807
     109A      0.986388   110A      1.003086   111A      1.026635
     112A      1.057686   113A      1.128557   114A      1.134611
     115A      1.149709   116A      1.159461   117A      1.188071
     118A      1.204878   119A      1.221478   120A      1.234303
     121A      1.240420   122A      1.249007   123A      1.266493
     124A      1.294220   125A      1.297959   126A      1.307055
     127A      1.316302   128A      1.329712   129A      1.346774
     130A      1.399901   131A      1.411113   132A      1.468819
     133A      1.509927   134A      1.514990   135A      1.553342
     136A      1.596533   137A      1.605170   138A      1.620425
     139A      1.665072   140A      1.671908   141A      1.698023
     142A      1.717279   143A      1.727808   144A      1.740167
     145A      1.745628   146A      1.768536   147A      1.782544
     148A      1.807826   149A      1.848580   150A      1.856676
     151A      1.869607   152A      1.886472   153A      1.891840
     154A      1.899266   155A      1.909612   156A      1.910784
     157A      1.916683   158A      1.922604   159A      1.945819
     160A      1.946303   161A      1.959973   162A      1.964376
     163A      1.976239   164A      1.981693   165A      1.998660
     166A      2.014212   167A      2.029650   168A      2.046164
     169A      2.068894   170A      2.071369   171A      2.111826
     172A      2.116842   173A      2.135658   174A      2.163334
     175A      2.170519   176A      2.180584   177A      2.194860
     178A      2.234087   179A      2.256399   180A      2.274013
     181A      2.281803   182A      2.288735   183A      2.295660
     184A      2.303441   185A      2.322698   186A      2.327645
     187A      2.403344   188A      2.444760   189A      2.459803
     190A      2.482725   191A      2.492919   192A      2.535003
     193A      2.543955   194A      2.566356   195A      2.618018
     196A      2.739052   197A      2.758053   198A      2.760694
     199A      2.764964   200A      2.793348   201A      2.805620
     202A      2.814614   203A      2.819912   204A      2.843699
     205A      2.876945   206A      2.884958   207A      2.957316
     208A      2.987463   209A      3.017735   210A      3.027409
     211A      3.155894   212A      3.209083   213A      3.309931
     214A      3.987383

    Final Occupation by Irrep:
              A
    DOCC [    42 ]

  @RHF Final Energy:  -746.51873358839998

   => Energetics <=

    Nuclear Repulsion Energy =            540.4419849413757220
    One-Electron Energy =               -2092.9967570484395765
    Two-Electron Energy =                 806.0360385186638723
    Total Energy =                       -746.5187335883999822

Computation Completed

Properties will be evaluated at   0.000000,   0.000000,   0.000000 [a0]

Properties computed using the SCF density matrix

  Nuclear Dipole Moment: [e a0]
     X:     1.6199      Y:    -1.4380      Z:     5.2302

  Electronic Dipole Moment: [e a0]
     X:    -0.9173      Y:     1.6262      Z:    -5.1632

  Dipole Moment: [e a0]
     X:     0.7026      Y:     0.1881      Z:     0.0670     Total:     0.7304

  Dipole Moment: [D]
     X:     1.7857      Y:     0.4782      Z:     0.1704     Total:     1.8565

*** tstop() called on ds3 at Mon Apr 27 22:18:26 2020
Module time:
	user time   =     104.68 seconds =       1.74 minutes
	system time =      41.41 seconds =       0.69 minutes
	total time  =        141 seconds =       2.35 minutes
Total time:
	user time   =     104.68 seconds =       1.74 minutes
	system time =      41.41 seconds =       0.69 minutes
	total time  =        141 seconds =       2.35 minutes
                                     G D M A

                                 by Anthony Stone

                           version 2.2.06, 22 June 2011

               Distributed Multipoles from Gaussian wavefunctions

Starting at 22:18:26 on 27 Apr 2020

Using SCF density matrix from file ./SSI/SSI-052PHE-061CYS-1-dimer.test.4734.fchk

                         Distributed Multipole Analysis

Standard DMA

Positions and radii in angstrom
Multipole moments in atomic units, ea_0^k for rank k

C          x =  1.821346  y = -2.433715  z =  0.245640 angstrom
           Maximum rank =  0   Radius =  0.650 angstrom
                   Q00  =  -0.209013

C          x =  1.403346  y =  0.036285  z =  0.475640 angstrom
           Maximum rank =  0   Radius =  0.650 angstrom
                   Q00  =  -0.053182

C          x =  1.969346  y = -1.005715  z = -0.262360 angstrom
           Maximum rank =  0   Radius =  0.650 angstrom
                   Q00  =  -0.107041

C          x =  1.507346  y =  1.364285  z =  0.048640 angstrom
           Maximum rank =  0   Radius =  0.650 angstrom
                   Q00  =  -0.076005

C          x =  2.271346  y =  1.648285  z = -1.040360 angstrom
           Maximum rank =  0   Radius =  0.650 angstrom
                   Q00  =  -0.038677

C          x =  2.741346  y = -0.676715  z = -1.379360 angstrom
           Maximum rank =  0   Radius =  0.650 angstrom
                   Q00  =  -0.089403

C          x =  2.893346  y =  0.659285  z = -1.742360 angstrom
           Maximum rank =  0   Radius =  0.650 angstrom
                   Q00  =  -0.027181

H          x =  0.843346  y = -0.189715  z =  1.368640 angstrom
           Maximum rank =  0   Radius =  0.325 angstrom
                   Q00  =   0.053948

H          x =  1.025346  y =  2.156285  z =  0.606640 angstrom
           Maximum rank =  0   Radius =  0.325 angstrom
                   Q00  =   0.062417

H          x =  1.751346  y = -3.108715  z = -0.605360 angstrom
           Maximum rank =  0   Radius =  0.325 angstrom
                   Q00  =   0.103642

H          x =  0.881346  y = -2.497715  z =  0.794640 angstrom
           Maximum rank =  0   Radius =  0.325 angstrom
                   Q00  =   0.097652

H          x =  2.380346  y =  2.673285  z = -1.361360 angstrom
           Maximum rank =  0   Radius =  0.325 angstrom
                   Q00  =   0.053931

H          x =  3.239346  y = -1.451715  z = -1.946360 angstrom
           Maximum rank =  0   Radius =  0.325 angstrom
                   Q00  =   0.059225

H          x =  3.505346  y =  0.917285  z = -2.592360 angstrom
           Maximum rank =  0   Radius =  0.325 angstrom
                   Q00  =   0.061681

H          x =  2.634576  y = -2.750525  z =  0.915187 angstrom
           Maximum rank =  0   Radius =  0.325 angstrom
                   Q00  =   0.106880

C          x = -2.332654  y =  0.498285  z =  0.927640 angstrom
           Maximum rank =  0   Radius =  0.650 angstrom
                   Q00  =  -0.185714

C          x = -2.483654  y =  0.325285  z =  2.429640 angstrom
           Maximum rank =  0   Radius =  0.650 angstrom
                   Q00  =  -0.225651

S          x = -3.732654  y = -0.107715  z = -0.064360 angstrom
           Maximum rank =  0   Radius =  0.650 angstrom
                   Q00  =  -0.114614

H          x = -2.186654  y =  1.558285  z =  0.702640 angstrom
           Maximum rank =  0   Radius =  0.325 angstrom
                   Q00  =   0.067012

H          x = -1.434654  y = -0.030715  z =  0.598640 angstrom
           Maximum rank =  0   Radius =  0.325 angstrom
                   Q00  =   0.072922

H          x = -2.597654  y = -0.732715  z =  2.668640 angstrom
           Maximum rank =  0   Radius =  0.325 angstrom
                   Q00  =   0.089318

H          x = -3.284654  y =  0.286285  z = -1.264360 angstrom
           Maximum rank =  0   Radius =  0.325 angstrom
                   Q00  =   0.117180

H          x = -3.343414  y =  0.915055  z =  2.780332 angstrom
           Maximum rank =  0   Radius =  0.325 angstrom
                   Q00  =   0.089223

H          x = -1.580974  y =  0.724405  z =  2.915311 angstrom
           Maximum rank =  0   Radius =  0.325 angstrom
                   Q00  =   0.091450

Total multipoles referred to origin at
           x =   0.000000,  y =    0.000000,  z =    0.000000 angstrom
                   Q00  =  -0.000000

Finished at 22:18:26 on 27 Apr 2020

  DMA results are available in the Python driver through the
	  variable('DMA DISTRIBUTED MULTIPOLES')
  and
	  variable('DMA TOTAL MULTIPOLES')
  commands.

    Psi4 stopped on: Monday, 27 April 2020 10:18PM
    Psi4 wall time for execution: 0:02:21.51

*** Psi4 exiting successfully. Buy a developer a beer!
