                               Psi4 1.3.2 release

  ==> Input File <==

--------------------------------------------------------------------------
import numpy as np
set {scf_type pk
basis cc-pvdz
d_convergence 10
gdma_switch   0
gdma_limit    0
gdma_origin   [ 0.0,  0.0,  0.0 ]
}
molecule test {
    units Angstrom
    0 1
    --
    0 1
    C               -0.890934258317385    -1.689844715215340    -0.789706907099266
    C                0.309065741682615    -2.388844715215341    -1.383706907099266
    H               -0.800934258317385    -1.628844715215340     0.294293092900734
    H               -0.951934258317385    -0.681844715215341    -1.194706907099266
    H               -1.805934258317385    -2.224844715215341    -1.044706907099266
    H                1.217065741682615    -1.883844715215341    -1.048706907099266
    H                0.251065741682615    -2.262844715215341    -2.464706907099266
    H                0.368645741682615    -3.459137615215341    -1.136876907099266
    C               -0.124934258317385     1.756155284784660     0.519293092900734
    C                0.707065741682615     2.319155284784659     1.657293092900734
    H                0.122065741682615     0.708155284784660     0.362293092900734
    H               -1.184934258317385     1.824155284784660     0.765293092900734
    H                0.065065741682615     2.310155284784659    -0.398706907099266
    H                0.541065741682615     1.695155284784660     2.536293092900734
    H                1.773665741682615     2.296994284784659     1.389213092900734
    H                0.401965741682615     3.346977284784659     1.903253092900734

}
e, wfn = energy('scf', return_wfn=True)
gdma(wfn)
dmavals = variable('DMA DISTRIBUTED MULTIPOLES')
charges = np.array(dmavals)
print(charges)
np.save('SSI-090ILE-190VAL-1-dimer.npy', np.array(charges))--------------------------------------------------------------------------

*** tstart() called on ds3
*** at Mon Apr 27 06:45:33 2020

   => Loading Basis Set <=

    Name: CC-PVDZ
    Role: ORBITAL
    Keyword: BASIS
    atoms 1-2, 9-10  entry C          line   138 file /theoryfs2/ds/metcalf/miniconda2/envs/tf2gpu/share/psi4/basis/cc-pvdz.gbs
    atoms 3-8, 11-16 entry H          line    22 file /theoryfs2/ds/metcalf/miniconda2/envs/tf2gpu/share/psi4/basis/cc-pvdz.gbs

         ---------------------------------------------------------
                                   SCF
               by Justin Turney, Rob Parrish, Andy Simmonett
                          and Daniel G. A. Smith
                              RHF Reference
                        1 Threads,    500 MiB Core
         ---------------------------------------------------------

  ==> Geometry <==

    Molecular point group: c1
    Full point group: C1

    Geometry (in Angstrom), charge = 0, multiplicity = 1:

       Center              X                  Y                   Z               Mass
    ------------   -----------------  -----------------  -----------------  -----------------
         C           -0.890934258317    -1.689844715215    -0.789706907099    12.000000000000
         C            0.309065741683    -2.388844715215    -1.383706907099    12.000000000000
         H           -0.800934258317    -1.628844715215     0.294293092901     1.007825032230
         H           -0.951934258317    -0.681844715215    -1.194706907099     1.007825032230
         H           -1.805934258317    -2.224844715215    -1.044706907099     1.007825032230
         H            1.217065741683    -1.883844715215    -1.048706907099     1.007825032230
         H            0.251065741683    -2.262844715215    -2.464706907099     1.007825032230
         H            0.368645741683    -3.459137615215    -1.136876907099     1.007825032230
         C           -0.124934258317     1.756155284785     0.519293092901    12.000000000000
         C            0.707065741683     2.319155284785     1.657293092901    12.000000000000
         H            0.122065741683     0.708155284785     0.362293092901     1.007825032230
         H           -1.184934258317     1.824155284785     0.765293092901     1.007825032230
         H            0.065065741683     2.310155284785    -0.398706907099     1.007825032230
         H            0.541065741683     1.695155284785     2.536293092901     1.007825032230
         H            1.773665741683     2.296994284785     1.389213092901     1.007825032230
         H            0.401965741683     3.346977284785     1.903253092901     1.007825032230

  Running in c1 symmetry.

  Rotational constants: A =      0.48719  B =      0.04721  C =      0.04547 [cm^-1]
  Rotational constants: A =  14605.51260  B =   1415.30707  C =   1363.23630 [MHz]
  Nuclear repulsion =  122.042599086806320

  Charge       = 0
  Multiplicity = 1
  Electrons    = 36
  Nalpha       = 18
  Nbeta        = 18

  ==> Algorithm <==

  SCF Algorithm Type is PK.
  DIIS enabled.
  MOM disabled.
  Fractional occupation disabled.
  Guess Type is SAD.
  Energy threshold   = 1.00e-06
  Density threshold  = 1.00e-10
  Integral threshold = 0.00e+00

  ==> Primary Basis <==

  Basis Set: CC-PVDZ
    Blend: CC-PVDZ
    Number of shells: 60
    Number of basis function: 116
    Number of Cartesian functions: 120
    Spherical Harmonics?: true
    Max angular momentum: 2

  ==> Pre-Iterations <==

   -------------------------------------------------------
    Irrep   Nso     Nmo     Nalpha   Nbeta   Ndocc  Nsocc
   -------------------------------------------------------
     A        116     116       0       0       0       0
   -------------------------------------------------------
    Total     116     116      18      18      18       0
   -------------------------------------------------------

  ==> Integral Setup <==

  Using integral reordering PK algorithm.
  Sizing the integral batches needed.
  Building batch lookup table.
   Calculation information:
      Number of atoms:                  16
      Number of AO shells:              60
      Number of primitives:            148
      Number of atomic orbitals:       120
      Number of basis functions:       116

      Integral cutoff                 1.00e-12
      Number of threads:                 1

	Batch   1 pq = [       0,    6786] index = [             0,23028291] size =     23028291
  Task number: 3
  Buffer size: 11059200
  Buffer per thread: 2
  We computed 1408351 shell quartets total.
  Whereas there are 1675365 unique shell quartets.

  ==> DiskJK: Disk-Based J/K Matrices <==

    J tasked:                  Yes
    K tasked:                  Yes
    wK tasked:                  No
    Memory [MiB]:              375
    Schwarz Cutoff:          1E-12

    OpenMP threads:              1

  Minimum eigenvalue in the overlap matrix is 6.8300556214E-03.
  Using Symmetric Orthogonalization.

  SCF Guess: Superposition of Atomic Densities via on-the-fly atomic UHF.

  ==> Iterations <==

                        Total Energy        Delta E     RMS |[F,P]|

   @RHF iter SAD:  -157.40734113437944   -1.57407e+02   0.00000e+00
   @RHF iter   1:  -158.30381068138681   -8.96470e-01   4.25953e-03 DIIS
   @RHF iter   2:  -158.43936577033080   -1.35555e-01   1.82270e-03 DIIS
   @RHF iter   3:  -158.46340096714570   -2.40352e-02   3.52717e-04 DIIS
   @RHF iter   4:  -158.46526771606548   -1.86675e-03   3.94090e-05 DIIS
   @RHF iter   5:  -158.46529217772257   -2.44617e-05   6.80701e-06 DIIS
   @RHF iter   6:  -158.46529284218011   -6.64458e-07   1.27787e-06 DIIS
   @RHF iter   7:  -158.46529285736079   -1.51807e-08   3.14896e-07 DIIS
   @RHF iter   8:  -158.46529285826324   -9.02446e-10   3.64996e-08 DIIS
   @RHF iter   9:  -158.46529285828285   -1.96110e-11   6.71144e-09 DIIS
   @RHF iter  10:  -158.46529285828370   -8.52651e-13   1.96831e-09 DIIS
   @RHF iter  11:  -158.46529285828370    0.00000e+00   5.71518e-10 DIIS
   @RHF iter  12:  -158.46529285828353    1.70530e-13   1.23091e-10 DIIS
   @RHF iter  13:  -158.46529285828365   -1.13687e-13   1.93708e-11 DIIS
  Energy and wave function converged.

  ==> Post-Iterations <==

    Orbital Energies [Eh]
    ---------------------

    Doubly Occupied:

       1A    -11.218274     2A    -11.217049     3A    -11.214912
       4A    -11.214744     5A     -1.024077     6A     -1.020226
       7A     -0.838502     8A     -0.833007     9A     -0.605197
      10A     -0.601314    11A     -0.599631    12A     -0.593833
      13A     -0.509142    14A     -0.499871    15A     -0.487425
      16A     -0.485267    17A     -0.483160    18A     -0.478193

    Virtual:

      19A      0.172869    20A      0.198067    21A      0.223595
      22A      0.238368    23A      0.243827    24A      0.255815
      25A      0.261836    26A      0.273083    27A      0.278380
      28A      0.290282    29A      0.298856    30A      0.342550
      31A      0.399668    32A      0.412097    33A      0.578362
      34A      0.597688    35A      0.599873    36A      0.608576
      37A      0.615576    38A      0.627914    39A      0.663709
      40A      0.684987    41A      0.691696    42A      0.798152
      43A      0.855001    44A      0.863394    45A      0.879791
      46A      0.890365    47A      0.894182    48A      0.894812
      49A      0.896947    50A      0.903905    51A      0.918938
      52A      0.924623    53A      0.934236    54A      0.944736
      55A      0.985333    56A      1.020011    57A      1.122847
      58A      1.127036    59A      1.132800    60A      1.159909
      61A      1.234331    62A      1.262281    63A      1.464398
      64A      1.469979    65A      1.484080    66A      1.498919
      67A      1.565789    68A      1.614176    69A      1.679948
      70A      1.684065    71A      1.694012    72A      1.699771
      73A      1.848563    74A      1.857674    75A      1.860021
      76A      1.881761    77A      1.898265    78A      1.926834
      79A      1.930843    80A      1.940573    81A      1.948049
      82A      1.955271    83A      1.959835    84A      1.966213
      85A      1.970319    86A      1.972487    87A      1.990506
      88A      2.022118    89A      2.098755    90A      2.102783
      91A      2.118489    92A      2.145277    93A      2.300294
      94A      2.309037    95A      2.318730    96A      2.323043
      97A      2.449136    98A      2.458771    99A      2.463638
     100A      2.483089   101A      2.557150   102A      2.572696
     103A      2.579031   104A      2.590473   105A      2.758673
     106A      2.766987   107A      2.791512   108A      2.796337
     109A      2.851022   110A      2.856316   111A      2.862804
     112A      2.873839   113A      2.942864   114A      2.958602
     115A      2.973113   116A      2.989163

    Final Occupation by Irrep:
              A
    DOCC [    18 ]

  @RHF Final Energy:  -158.46529285828365

   => Energetics <=

    Nuclear Repulsion Energy =            122.0425990868063195
    One-Electron Energy =                -453.1681372356184738
    Two-Electron Energy =                 172.6602452905285077
    Total Energy =                       -158.4652928582836466

Computation Completed

Properties will be evaluated at   0.000000,   0.000000,   0.000000 [a0]

Properties computed using the SCF density matrix

  Nuclear Dipole Moment: [e a0]
     X:    -0.0029      Y:     0.0377      Z:    -0.0354

  Electronic Dipole Moment: [e a0]
     X:    -0.0124      Y:    -0.0435      Z:     0.0217

  Dipole Moment: [e a0]
     X:    -0.0154      Y:    -0.0058      Z:    -0.0137     Total:     0.0214

  Dipole Moment: [D]
     X:    -0.0391      Y:    -0.0148      Z:    -0.0347     Total:     0.0543

*** tstop() called on ds3 at Mon Apr 27 06:45:43 2020
Module time:
	user time   =       7.14 seconds =       0.12 minutes
	system time =       2.75 seconds =       0.05 minutes
	total time  =         10 seconds =       0.17 minutes
Total time:
	user time   =       7.14 seconds =       0.12 minutes
	system time =       2.75 seconds =       0.05 minutes
	total time  =         10 seconds =       0.17 minutes
                                     G D M A

                                 by Anthony Stone

                           version 2.2.06, 22 June 2011

               Distributed Multipoles from Gaussian wavefunctions

Starting at 6:45:43 on 27 Apr 2020

Using SCF density matrix from file ./SSI/SSI-090ILE-190VAL-1-dimer.test.6520.fchk

                         Distributed Multipole Analysis

Standard DMA

Positions and radii in angstrom
Multipole moments in atomic units, ea_0^k for rank k

C          x = -0.890934  y = -1.689845  z = -0.789707 angstrom
           Maximum rank =  0   Radius =  0.650 angstrom
                   Q00  =  -0.233407

C          x =  0.309066  y = -2.388845  z = -1.383707 angstrom
           Maximum rank =  0   Radius =  0.650 angstrom
                   Q00  =  -0.228921

H          x = -0.800934  y = -1.628845  z =  0.294293 angstrom
           Maximum rank =  0   Radius =  0.325 angstrom
                   Q00  =   0.074501

H          x = -0.951934  y = -0.681845  z = -1.194707 angstrom
           Maximum rank =  0   Radius =  0.325 angstrom
                   Q00  =   0.080754

H          x = -1.805934  y = -2.224845  z = -1.044707 angstrom
           Maximum rank =  0   Radius =  0.325 angstrom
                   Q00  =   0.077915

H          x =  1.217066  y = -1.883845  z = -1.048707 angstrom
           Maximum rank =  0   Radius =  0.325 angstrom
                   Q00  =   0.074595

H          x =  0.251066  y = -2.262845  z = -2.464707 angstrom
           Maximum rank =  0   Radius =  0.325 angstrom
                   Q00  =   0.074533

H          x =  0.368646  y = -3.459138  z = -1.136877 angstrom
           Maximum rank =  0   Radius =  0.325 angstrom
                   Q00  =   0.080538

C          x = -0.124934  y =  1.756155  z =  0.519293 angstrom
           Maximum rank =  0   Radius =  0.650 angstrom
                   Q00  =  -0.230998

C          x =  0.707066  y =  2.319155  z =  1.657293 angstrom
           Maximum rank =  0   Radius =  0.650 angstrom
                   Q00  =  -0.237973

H          x =  0.122066  y =  0.708155  z =  0.362293 angstrom
           Maximum rank =  0   Radius =  0.325 angstrom
                   Q00  =   0.081333

H          x = -1.184934  y =  1.824155  z =  0.765293 angstrom
           Maximum rank =  0   Radius =  0.325 angstrom
                   Q00  =   0.077581

H          x =  0.065066  y =  2.310155  z = -0.398707 angstrom
           Maximum rank =  0   Radius =  0.325 angstrom
                   Q00  =   0.076673

H          x =  0.541066  y =  1.695155  z =  2.536293 angstrom
           Maximum rank =  0   Radius =  0.325 angstrom
                   Q00  =   0.076412

H          x =  1.773666  y =  2.296994  z =  1.389213 angstrom
           Maximum rank =  0   Radius =  0.325 angstrom
                   Q00  =   0.077699

H          x =  0.401966  y =  3.346977  z =  1.903253 angstrom
           Maximum rank =  0   Radius =  0.325 angstrom
                   Q00  =   0.078764

Total multipoles referred to origin at
           x =   0.000000,  y =    0.000000,  z =    0.000000 angstrom
                   Q00  =  -0.000000

Finished at 6:45:43 on 27 Apr 2020

  DMA results are available in the Python driver through the
	  variable('DMA DISTRIBUTED MULTIPOLES')
  and
	  variable('DMA TOTAL MULTIPOLES')
  commands.

    Psi4 stopped on: Monday, 27 April 2020 06:45AM
    Psi4 wall time for execution: 0:00:09.96

*** Psi4 exiting successfully. Buy a developer a beer!
