                               Psi4 1.3.2 release

  ==> Input File <==

--------------------------------------------------------------------------
import numpy as np
set {scf_type pk
basis cc-pvdz
d_convergence 10
gdma_switch   0
gdma_limit    0
gdma_origin   [ 0.0,  0.0,  0.0 ]
}
molecule test {
    units Angstrom
    0 1
    --
    0 1
    C               -0.343280292537571    -1.150751189015380     0.484143559295650
    C               -1.731280292537571    -1.074751189015381    -0.209856440704350
    C               -0.241280292537571    -2.405751189015380     1.366143559295650
    C                0.772719707462429    -1.113751189015381    -0.572856440704350
    H               -0.240280292537571    -0.275751189015381     1.126143559295650
    H               -1.745280292537571    -0.195751189015380    -0.837856440704350
    H               -0.167280292537571    -3.310751189015380     0.762143559295650
    H                0.656719707462429    -2.335751189015380     1.978143559295650
    H               -1.090280292537571    -2.479751189015380     2.042143559295650
    H                0.709719707462429    -2.010751189015380    -1.181856440704350
    H                0.629719707462429    -0.244751189015380    -1.214856440704350
    H               -2.553780292537571    -1.005894189015380     0.517300559295650
    H               -1.921200292537571    -1.969968189015381    -0.820198440704350
    H                1.787779707462429    -1.063393189015380    -0.152011440704350
    C                0.537719707462429     2.500248810984619     0.168143559295650
    C                0.956719707462429     3.090248810984620    -1.170856440704350
    H               -0.322280292537571     1.846248810984620     0.054143559295650
    H                1.361719707462429     1.923248810984619     0.584143559295650
    H                0.293719707462429     3.299248810984619     0.868143559295650
    H                1.166719707462429     2.270248810984620    -1.857856440704350
    H                0.140109707462429     3.705225810984619    -1.577000440704350
    H                1.873819707462429     3.687982810984620    -1.062962440704350

}
e, wfn = energy('scf', return_wfn=True)
gdma(wfn)
dmavals = variable('DMA DISTRIBUTED MULTIPOLES')
charges = np.array(dmavals)
print(charges)
np.save('SSI-085ILE-103LEU-1-dimer.npy', np.array(charges))--------------------------------------------------------------------------

*** tstart() called on ds3
*** at Mon Apr 27 19:25:30 2020

   => Loading Basis Set <=

    Name: CC-PVDZ
    Role: ORBITAL
    Keyword: BASIS
    atoms 1-4, 15-16  entry C          line   138 file /theoryfs2/ds/metcalf/miniconda2/envs/tf2gpu/share/psi4/basis/cc-pvdz.gbs
    atoms 5-14, 17-22 entry H          line    22 file /theoryfs2/ds/metcalf/miniconda2/envs/tf2gpu/share/psi4/basis/cc-pvdz.gbs

         ---------------------------------------------------------
                                   SCF
               by Justin Turney, Rob Parrish, Andy Simmonett
                          and Daniel G. A. Smith
                              RHF Reference
                        1 Threads,    500 MiB Core
         ---------------------------------------------------------

  ==> Geometry <==

    Molecular point group: c1
    Full point group: C1

    Geometry (in Angstrom), charge = 0, multiplicity = 1:

       Center              X                  Y                   Z               Mass
    ------------   -----------------  -----------------  -----------------  -----------------
         C           -0.343280292538    -1.150751189015     0.484143559296    12.000000000000
         C           -1.731280292538    -1.074751189015    -0.209856440704    12.000000000000
         C           -0.241280292538    -2.405751189015     1.366143559296    12.000000000000
         C            0.772719707462    -1.113751189015    -0.572856440704    12.000000000000
         H           -0.240280292538    -0.275751189015     1.126143559296     1.007825032230
         H           -1.745280292538    -0.195751189015    -0.837856440704     1.007825032230
         H           -0.167280292538    -3.310751189015     0.762143559296     1.007825032230
         H            0.656719707462    -2.335751189015     1.978143559296     1.007825032230
         H           -1.090280292538    -2.479751189015     2.042143559296     1.007825032230
         H            0.709719707462    -2.010751189015    -1.181856440704     1.007825032230
         H            0.629719707462    -0.244751189015    -1.214856440704     1.007825032230
         H           -2.553780292538    -1.005894189015     0.517300559296     1.007825032230
         H           -1.921200292538    -1.969968189015    -0.820198440704     1.007825032230
         H            1.787779707462    -1.063393189015    -0.152011440704     1.007825032230
         C            0.537719707462     2.500248810985     0.168143559296    12.000000000000
         C            0.956719707462     3.090248810985    -1.170856440704    12.000000000000
         H           -0.322280292538     1.846248810985     0.054143559296     1.007825032230
         H            1.361719707462     1.923248810985     0.584143559296     1.007825032230
         H            0.293719707462     3.299248810985     0.868143559296     1.007825032230
         H            1.166719707462     2.270248810985    -1.857856440704     1.007825032230
         H            0.140109707462     3.705225810985    -1.577000440704     1.007825032230
         H            1.873819707462     3.687982810985    -1.062962440704     1.007825032230

  Running in c1 symmetry.

  Rotational constants: A =      0.16243  B =      0.03488  C =      0.03381 [cm^-1]
  Rotational constants: A =   4869.42855  B =   1045.75938  C =   1013.64362 [MHz]
  Nuclear repulsion =  247.835755523478667

  Charge       = 0
  Multiplicity = 1
  Electrons    = 52
  Nalpha       = 26
  Nbeta        = 26

  ==> Algorithm <==

  SCF Algorithm Type is PK.
  DIIS enabled.
  MOM disabled.
  Fractional occupation disabled.
  Guess Type is SAD.
  Energy threshold   = 1.00e-06
  Density threshold  = 1.00e-10
  Integral threshold = 0.00e+00

  ==> Primary Basis <==

  Basis Set: CC-PVDZ
    Blend: CC-PVDZ
    Number of shells: 84
    Number of basis function: 164
    Number of Cartesian functions: 170
    Spherical Harmonics?: true
    Max angular momentum: 2

  ==> Pre-Iterations <==

   -------------------------------------------------------
    Irrep   Nso     Nmo     Nalpha   Nbeta   Ndocc  Nsocc
   -------------------------------------------------------
     A        164     164       0       0       0       0
   -------------------------------------------------------
    Total     164     164      26      26      26       0
   -------------------------------------------------------

  ==> Integral Setup <==

  Using integral reordering PK algorithm.
  Sizing the integral batches needed.
  Building batch lookup table.
   Calculation information:
      Number of atoms:                  22
      Number of AO shells:              84
      Number of primitives:            212
      Number of atomic orbitals:       170
      Number of basis functions:       164

      Integral cutoff                 1.00e-12
      Number of threads:                 1

	Batch   1 pq = [       0,    9405] index = [             0,44231715] size =     44231715
	Batch   2 pq = [    9405,   13530] index = [      44231715,91537215] size =     47305500
  Task number: 9
  Buffer size: 11059200
  Buffer per thread: 2
  We computed 5922073 shell quartets total.
  Whereas there are 6374235 unique shell quartets.

  ==> DiskJK: Disk-Based J/K Matrices <==

    J tasked:                  Yes
    K tasked:                  Yes
    wK tasked:                  No
    Memory [MiB]:              375
    Schwarz Cutoff:          1E-12

    OpenMP threads:              1

  Minimum eigenvalue in the overlap matrix is 4.7079216854E-03.
  Using Symmetric Orthogonalization.

  SCF Guess: Superposition of Atomic Densities via on-the-fly atomic UHF.

  ==> Iterations <==

                        Total Energy        Delta E     RMS |[F,P]|

   @RHF iter SAD:  -235.37285273248833   -2.35373e+02   0.00000e+00
   @RHF iter   1:  -236.31544462073401   -9.42592e-01   3.50672e-03 DIIS
   @RHF iter   2:  -236.50458702082608   -1.89142e-01   1.50635e-03 DIIS
   @RHF iter   3:  -236.53742923443210   -3.28422e-02   3.10652e-04 DIIS
   @RHF iter   4:  -236.54003003473019   -2.60080e-03   6.80918e-05 DIIS
   @RHF iter   5:  -236.54011207305433   -8.20383e-05   1.57039e-05 DIIS
   @RHF iter   6:  -236.54011756038008   -5.48733e-06   2.61522e-06 DIIS
   @RHF iter   7:  -236.54011773354006   -1.73160e-07   6.33724e-07 DIIS
   @RHF iter   8:  -236.54011774491545   -1.13754e-08   1.56804e-07 DIIS
   @RHF iter   9:  -236.54011774561314   -6.97696e-10   4.38050e-08 DIIS
   @RHF iter  10:  -236.54011774567812   -6.49720e-11   9.58555e-09 DIIS
   @RHF iter  11:  -236.54011774568158   -3.46745e-12   1.93942e-09 DIIS
   @RHF iter  12:  -236.54011774568073    8.52651e-13   3.81500e-10 DIIS
   @RHF iter  13:  -236.54011774568048    2.55795e-13   7.61500e-11 DIIS
  Energy and wave function converged.

  ==> Post-Iterations <==

    Orbital Energies [Eh]
    ---------------------

    Doubly Occupied:

       1A    -11.226801     2A    -11.219581     3A    -11.216523
       4A    -11.215948     5A    -11.215232     6A    -11.213183
       7A     -1.075595     8A     -1.020911     9A     -0.927161
      10A     -0.923560    11A     -0.837245    12A     -0.765388
      13A     -0.629445    14A     -0.601422    15A     -0.599806
      16A     -0.587876    17A     -0.582484    18A     -0.534025
      19A     -0.532212    20A     -0.509639    21A     -0.502769
      22A     -0.486801    23A     -0.485294    24A     -0.461073
      25A     -0.458508    26A     -0.451425

    Virtual:

      27A      0.166285    28A      0.197210    29A      0.213482
      30A      0.220310    31A      0.235035    32A      0.237643
      33A      0.251731    34A      0.258132    35A      0.264844
      36A      0.277132    37A      0.288686    38A      0.297263
      39A      0.302673    40A      0.317859    41A      0.348165
      42A      0.357114    43A      0.365968    44A      0.404421
      45A      0.413279    46A      0.422603    47A      0.553853
      48A      0.565672    49A      0.597897    50A      0.599955
      51A      0.607945    52A      0.621603    53A      0.637535
      54A      0.649356    55A      0.688797    56A      0.752360
      57A      0.765489    58A      0.785132    59A      0.809866
      60A      0.830509    61A      0.848920    62A      0.860533
      63A      0.873051    64A      0.878378    65A      0.882188
      66A      0.897328    67A      0.898638    68A      0.902278
      69A      0.906662    70A      0.915207    71A      0.920511
      72A      0.933989    73A      0.941177    74A      0.957474
      75A      0.960224    76A      0.970217    77A      0.980406
      78A      0.990837    79A      1.020499    80A      1.045916
      81A      1.122709    82A      1.129372    83A      1.136613
      84A      1.162521    85A      1.173222    86A      1.257718
      87A      1.362434    88A      1.398080    89A      1.408669
      90A      1.473190    91A      1.489450    92A      1.524427
      93A      1.549454    94A      1.600381    95A      1.646278
      96A      1.668514    97A      1.678039    98A      1.683505
      99A      1.695911   100A      1.698555   101A      1.703877
     102A      1.719226   103A      1.740743   104A      1.834541
     105A      1.841263   106A      1.856582   107A      1.863523
     108A      1.891351   109A      1.917908   110A      1.929500
     111A      1.933954   112A      1.943676   113A      1.951540
     114A      1.953730   115A      1.963247   116A      1.964618
     117A      1.968985   118A      1.981618   119A      1.984685
     120A      2.007597   121A      2.014972   122A      2.036422
     123A      2.057419   124A      2.062899   125A      2.088155
     126A      2.101895   127A      2.121576   128A      2.136879
     129A      2.150108   130A      2.249535   131A      2.260719
     132A      2.295241   133A      2.299844   134A      2.320453
     135A      2.326699   136A      2.340445   137A      2.359757
     138A      2.382291   139A      2.467698   140A      2.469259
     141A      2.488492   142A      2.556901   143A      2.563905
     144A      2.588176   145A      2.598277   146A      2.623500
     147A      2.701238   148A      2.724684   149A      2.760166
     150A      2.767222   151A      2.779685   152A      2.790265
     153A      2.804341   154A      2.811913   155A      2.831751
     156A      2.845056   157A      2.860138   158A      2.862666
     159A      2.873558   160A      2.967245   161A      2.969386
     162A      3.024817   163A      3.037656   164A      3.098751

    Final Occupation by Irrep:
              A
    DOCC [    26 ]

  @RHF Final Energy:  -236.54011774568048

   => Energetics <=

    Nuclear Repulsion Energy =            247.8357555234786673
    One-Electron Energy =                -808.1919368531090413
    Two-Electron Energy =                 323.8160635839498127
    Total Energy =                       -236.5401177456805044

Computation Completed

Properties will be evaluated at   0.000000,   0.000000,   0.000000 [a0]

Properties computed using the SCF density matrix

  Nuclear Dipole Moment: [e a0]
     X:     0.5434      Y:     1.7247      Z:    -0.7240

  Electronic Dipole Moment: [e a0]
     X:    -0.5308      Y:    -1.6911      Z:     0.7582

  Dipole Moment: [e a0]
     X:     0.0126      Y:     0.0335      Z:     0.0342     Total:     0.0496

  Dipole Moment: [D]
     X:     0.0321      Y:     0.0853      Z:     0.0870     Total:     0.1260

*** tstop() called on ds3 at Mon Apr 27 19:26:13 2020
Module time:
	user time   =      29.90 seconds =       0.50 minutes
	system time =      10.28 seconds =       0.17 minutes
	total time  =         43 seconds =       0.72 minutes
Total time:
	user time   =      29.90 seconds =       0.50 minutes
	system time =      10.28 seconds =       0.17 minutes
	total time  =         43 seconds =       0.72 minutes
                                     G D M A

                                 by Anthony Stone

                           version 2.2.06, 22 June 2011

               Distributed Multipoles from Gaussian wavefunctions

Starting at 19:26:13 on 27 Apr 2020

Using SCF density matrix from file ./SSI/SSI-085ILE-103LEU-1-dimer.test.6191.fchk

                         Distributed Multipole Analysis

Standard DMA

Positions and radii in angstrom
Multipole moments in atomic units, ea_0^k for rank k

C          x = -0.343280  y = -1.150751  z =  0.484144 angstrom
           Maximum rank =  0   Radius =  0.650 angstrom
                   Q00  =   0.009583

C          x = -1.731280  y = -1.074751  z = -0.209856 angstrom
           Maximum rank =  0   Radius =  0.650 angstrom
                   Q00  =  -0.260111

C          x = -0.241280  y = -2.405751  z =  1.366144 angstrom
           Maximum rank =  0   Radius =  0.650 angstrom
                   Q00  =  -0.241250

C          x =  0.772720  y = -1.113751  z = -0.572856 angstrom
           Maximum rank =  0   Radius =  0.650 angstrom
                   Q00  =  -0.252429

H          x = -0.240280  y = -0.275751  z =  1.126144 angstrom
           Maximum rank =  0   Radius =  0.325 angstrom
                   Q00  =   0.020613

H          x = -1.745280  y = -0.195751  z = -0.837856 angstrom
           Maximum rank =  0   Radius =  0.325 angstrom
                   Q00  =   0.081395

H          x = -0.167280  y = -3.310751  z =  0.762144 angstrom
           Maximum rank =  0   Radius =  0.325 angstrom
                   Q00  =   0.077789

H          x =  0.656720  y = -2.335751  z =  1.978144 angstrom
           Maximum rank =  0   Radius =  0.325 angstrom
                   Q00  =   0.079781

H          x = -1.090280  y = -2.479751  z =  2.042144 angstrom
           Maximum rank =  0   Radius =  0.325 angstrom
                   Q00  =   0.082877

H          x =  0.709720  y = -2.010751  z = -1.181856 angstrom
           Maximum rank =  0   Radius =  0.325 angstrom
                   Q00  =   0.077485

H          x =  0.629720  y = -0.244751  z = -1.214856 angstrom
           Maximum rank =  0   Radius =  0.325 angstrom
                   Q00  =   0.082105

H          x = -2.553780  y = -1.005894  z =  0.517301 angstrom
           Maximum rank =  0   Radius =  0.325 angstrom
                   Q00  =   0.083518

H          x = -1.921200  y = -1.969968  z = -0.820198 angstrom
           Maximum rank =  0   Radius =  0.325 angstrom
                   Q00  =   0.076903

H          x =  1.787780  y = -1.063393  z = -0.152011 angstrom
           Maximum rank =  0   Radius =  0.325 angstrom
                   Q00  =   0.082924

C          x =  0.537720  y =  2.500249  z =  0.168144 angstrom
           Maximum rank =  0   Radius =  0.650 angstrom
                   Q00  =  -0.236665

C          x =  0.956720  y =  3.090249  z = -1.170856 angstrom
           Maximum rank =  0   Radius =  0.650 angstrom
                   Q00  =  -0.236373

H          x = -0.322280  y =  1.846249  z =  0.054144 angstrom
           Maximum rank =  0   Radius =  0.325 angstrom
                   Q00  =   0.079926

H          x =  1.361720  y =  1.923249  z =  0.584144 angstrom
           Maximum rank =  0   Radius =  0.325 angstrom
                   Q00  =   0.077091

H          x =  0.293720  y =  3.299249  z =  0.868144 angstrom
           Maximum rank =  0   Radius =  0.325 angstrom
                   Q00  =   0.078770

H          x =  1.166720  y =  2.270249  z = -1.857856 angstrom
           Maximum rank =  0   Radius =  0.325 angstrom
                   Q00  =   0.077036

H          x =  0.140110  y =  3.705226  z = -1.577000 angstrom
           Maximum rank =  0   Radius =  0.325 angstrom
                   Q00  =   0.078421

H          x =  1.873820  y =  3.687983  z = -1.062962 angstrom
           Maximum rank =  0   Radius =  0.325 angstrom
                   Q00  =   0.080610

Total multipoles referred to origin at
           x =   0.000000,  y =    0.000000,  z =    0.000000 angstrom
                   Q00  =  -0.000000

Finished at 19:26:13 on 27 Apr 2020

  DMA results are available in the Python driver through the
	  variable('DMA DISTRIBUTED MULTIPOLES')
  and
	  variable('DMA TOTAL MULTIPOLES')
  commands.

    Psi4 stopped on: Monday, 27 April 2020 07:26PM
    Psi4 wall time for execution: 0:00:43.74

*** Psi4 exiting successfully. Buy a developer a beer!
