                               Psi4 1.3.2 release

  ==> Input File <==

--------------------------------------------------------------------------
import numpy as np
set {scf_type pk
basis cc-pvdz
d_convergence 10
gdma_switch   0
gdma_limit    0
gdma_origin   [ 0.0,  0.0,  0.0 ]
}
molecule test {
    units Angstrom
    0 1
    --
    0 1
    C                1.184707320623902    -1.127766207495824     1.229451303234484
    C                0.979707320623902    -0.244766207495824     2.442451303234484
    H                0.903707320623902    -2.156766207495824     1.448451303234484
    H                0.576707320623902    -0.781766207495824     0.405451303234484
    H                2.223707320623902    -1.088766207495824     0.905451303234484
    H                1.289707320623902     0.775233792504176     2.232451303234484
    H                1.641797320623902    -0.712166427495824     3.186211303234484
    H               -0.087082679376098    -0.273676407495824     2.709151303234484
    C               -1.188292679376098     0.561233792504176    -1.097548696765516
    C               -0.981292679376098     0.819233792504176    -2.572548696765516
    H               -0.345292679376098     0.959233792504176    -0.533548696765516
    H               -2.084292679376098     1.084233792504176    -0.765548696765516
    H               -1.321292679376098    -0.502766207495824    -0.899548696765516
    H               -0.785292679376098     1.878233792504176    -2.731548696765516
    H               -0.092792679376098     0.220180992504176    -2.820958696765516
    H               -1.858013679376098     0.504308792504176    -3.157508696765516

}
e, wfn = energy('scf', return_wfn=True)
gdma(wfn)
dmavals = variable('DMA DISTRIBUTED MULTIPOLES')
charges = np.array(dmavals)
print(charges)
np.save('SSI-163LEU-175LEU-1-dimer.npy', np.array(charges))--------------------------------------------------------------------------

*** tstart() called on ds3
*** at Tue Apr 28 12:50:33 2020

   => Loading Basis Set <=

    Name: CC-PVDZ
    Role: ORBITAL
    Keyword: BASIS
    atoms 1-2, 9-10  entry C          line   138 file /theoryfs2/ds/metcalf/miniconda2/envs/tf2gpu/share/psi4/basis/cc-pvdz.gbs
    atoms 3-8, 11-16 entry H          line    22 file /theoryfs2/ds/metcalf/miniconda2/envs/tf2gpu/share/psi4/basis/cc-pvdz.gbs

         ---------------------------------------------------------
                                   SCF
               by Justin Turney, Rob Parrish, Andy Simmonett
                          and Daniel G. A. Smith
                              RHF Reference
                        1 Threads,    500 MiB Core
         ---------------------------------------------------------

  ==> Geometry <==

    Molecular point group: c1
    Full point group: C1

    Geometry (in Angstrom), charge = 0, multiplicity = 1:

       Center              X                  Y                   Z               Mass
    ------------   -----------------  -----------------  -----------------  -----------------
         C            1.184707320624    -1.127766207496     1.229451303234    12.000000000000
         C            0.979707320624    -0.244766207496     2.442451303234    12.000000000000
         H            0.903707320624    -2.156766207496     1.448451303234     1.007825032230
         H            0.576707320624    -0.781766207496     0.405451303234     1.007825032230
         H            2.223707320624    -1.088766207496     0.905451303234     1.007825032230
         H            1.289707320624     0.775233792504     2.232451303234     1.007825032230
         H            1.641797320624    -0.712166427496     3.186211303234     1.007825032230
         H           -0.087082679376    -0.273676407496     2.709151303234     1.007825032230
         C           -1.188292679376     0.561233792504    -1.097548696766    12.000000000000
         C           -0.981292679376     0.819233792504    -2.572548696766    12.000000000000
         H           -0.345292679376     0.959233792504    -0.533548696766     1.007825032230
         H           -2.084292679376     1.084233792504    -0.765548696766     1.007825032230
         H           -1.321292679376    -0.502766207496    -0.899548696766     1.007825032230
         H           -0.785292679376     1.878233792504    -2.731548696766     1.007825032230
         H           -0.092792679376     0.220180992504    -2.820958696766     1.007825032230
         H           -1.858013679376     0.504308792504    -3.157508696766     1.007825032230

  Running in c1 symmetry.

  Rotational constants: A =      0.49440  B =      0.05085  C =      0.04862 [cm^-1]
  Rotational constants: A =  14821.65625  B =   1524.58969  C =   1457.71154 [MHz]
  Nuclear repulsion =  123.611649196884187

  Charge       = 0
  Multiplicity = 1
  Electrons    = 36
  Nalpha       = 18
  Nbeta        = 18

  ==> Algorithm <==

  SCF Algorithm Type is PK.
  DIIS enabled.
  MOM disabled.
  Fractional occupation disabled.
  Guess Type is SAD.
  Energy threshold   = 1.00e-06
  Density threshold  = 1.00e-10
  Integral threshold = 0.00e+00

  ==> Primary Basis <==

  Basis Set: CC-PVDZ
    Blend: CC-PVDZ
    Number of shells: 60
    Number of basis function: 116
    Number of Cartesian functions: 120
    Spherical Harmonics?: true
    Max angular momentum: 2

  ==> Pre-Iterations <==

   -------------------------------------------------------
    Irrep   Nso     Nmo     Nalpha   Nbeta   Ndocc  Nsocc
   -------------------------------------------------------
     A        116     116       0       0       0       0
   -------------------------------------------------------
    Total     116     116      18      18      18       0
   -------------------------------------------------------

  ==> Integral Setup <==

  Using integral reordering PK algorithm.
  Sizing the integral batches needed.
  Building batch lookup table.
   Calculation information:
      Number of atoms:                  16
      Number of AO shells:              60
      Number of primitives:            148
      Number of atomic orbitals:       120
      Number of basis functions:       116

      Integral cutoff                 1.00e-12
      Number of threads:                 1

	Batch   1 pq = [       0,    6786] index = [             0,23028291] size =     23028291
  Task number: 3
  Buffer size: 11059200
  Buffer per thread: 2
  We computed 1457896 shell quartets total.
  Whereas there are 1675365 unique shell quartets.

  ==> DiskJK: Disk-Based J/K Matrices <==

    J tasked:                  Yes
    K tasked:                  Yes
    wK tasked:                  No
    Memory [MiB]:              375
    Schwarz Cutoff:          1E-12

    OpenMP threads:              1

  Minimum eigenvalue in the overlap matrix is 7.2929603785E-03.
  Using Symmetric Orthogonalization.

  SCF Guess: Superposition of Atomic Densities via on-the-fly atomic UHF.

  ==> Iterations <==

                        Total Energy        Delta E     RMS |[F,P]|

   @RHF iter SAD:  -157.44268194089983   -1.57443e+02   0.00000e+00
   @RHF iter   1:  -158.29721315697668   -8.54531e-01   4.26965e-03 DIIS
   @RHF iter   2:  -158.43349550201054   -1.36282e-01   1.81206e-03 DIIS
   @RHF iter   3:  -158.45730393705514   -2.38084e-02   3.52794e-04 DIIS
   @RHF iter   4:  -158.45916703899701   -1.86310e-03   3.94212e-05 DIIS
   @RHF iter   5:  -158.45919211366868   -2.50747e-05   6.58921e-06 DIIS
   @RHF iter   6:  -158.45919279775609   -6.84087e-07   9.75456e-07 DIIS
   @RHF iter   7:  -158.45919280907970   -1.13236e-08   3.17453e-07 DIIS
   @RHF iter   8:  -158.45919281006704   -9.87342e-10   5.94441e-08 DIIS
   @RHF iter   9:  -158.45919281013204   -6.50004e-11   1.30857e-08 DIIS
   @RHF iter  10:  -158.45919281013528   -3.24007e-12   3.26934e-09 DIIS
   @RHF iter  11:  -158.45919281013585   -5.68434e-13   8.82496e-10 DIIS
   @RHF iter  12:  -158.45919281013576    8.52651e-14   2.03789e-10 DIIS
   @RHF iter  13:  -158.45919281013542    3.41061e-13   3.35855e-11 DIIS
  Energy and wave function converged.

  ==> Post-Iterations <==

    Orbital Energies [Eh]
    ---------------------

    Doubly Occupied:

       1A    -11.218760     2A    -11.217275     3A    -11.215402
       4A    -11.210002     5A     -1.026096     6A     -1.022087
       7A     -0.835999     8A     -0.829922     9A     -0.610891
      10A     -0.604736    11A     -0.601094    12A     -0.597045
      13A     -0.506271    14A     -0.499324    15A     -0.489283
      16A     -0.485344    17A     -0.481826    18A     -0.470384

    Virtual:

      19A      0.173077    20A      0.196028    21A      0.227421
      22A      0.238368    23A      0.250331    24A      0.258262
      25A      0.261956    26A      0.274051    27A      0.276231
      28A      0.280870    29A      0.311375    30A      0.354353
      31A      0.393661    32A      0.402320    33A      0.579725
      34A      0.599941    35A      0.605125    36A      0.611429
      37A      0.621036    38A      0.636219    39A      0.663018
      40A      0.687261    41A      0.700015    42A      0.793731
      43A      0.850820    44A      0.852469    45A      0.885497
      46A      0.888332    47A      0.893863    48A      0.897425
      49A      0.899199    50A      0.908272    51A      0.916842
      52A      0.921713    53A      0.940830    54A      0.951991
      55A      0.961822    56A      1.024144    57A      1.119994
      58A      1.133061    59A      1.138178    60A      1.164606
      61A      1.238423    62A      1.338424    63A      1.471068
      64A      1.479424    65A      1.492417    66A      1.498003
      67A      1.559499    68A      1.610012    69A      1.663970
      70A      1.668272    71A      1.683750    72A      1.716102
      73A      1.828250    74A      1.847019    75A      1.849320
      76A      1.869589    77A      1.902592    78A      1.929043
      79A      1.936049    80A      1.943942    81A      1.950084
      82A      1.955128    83A      1.956220    84A      1.965333
      85A      1.973080    86A      2.009672    87A      2.023015
      88A      2.047562    89A      2.086886    90A      2.106521
      91A      2.142548    92A      2.150805    93A      2.261546
      94A      2.280723    95A      2.317837    96A      2.334980
      97A      2.459981    98A      2.468113    99A      2.470174
     100A      2.485626   101A      2.556765   102A      2.570983
     103A      2.591033   104A      2.613043   105A      2.762806
     106A      2.775210   107A      2.792617   108A      2.801686
     109A      2.816864   110A      2.840399   111A      2.855370
     112A      2.863711   113A      2.943943   114A      2.957870
     115A      2.979469   116A      3.007984

    Final Occupation by Irrep:
              A
    DOCC [    18 ]

  @RHF Final Energy:  -158.45919281013542

   => Energetics <=

    Nuclear Repulsion Energy =            123.6116491968841871
    One-Electron Energy =                -456.2982037051653492
    Two-Electron Energy =                 174.2273616981457565
    Total Energy =                       -158.4591928101354199

Computation Completed

Properties will be evaluated at   0.000000,   0.000000,   0.000000 [a0]

Properties computed using the SCF density matrix

  Nuclear Dipole Moment: [e a0]
     X:     0.0577      Y:    -0.0886      Z:    -0.0202

  Electronic Dipole Moment: [e a0]
     X:    -0.0796      Y:     0.1066      Z:    -0.0122

  Dipole Moment: [e a0]
     X:    -0.0219      Y:     0.0180      Z:    -0.0323     Total:     0.0430

  Dipole Moment: [D]
     X:    -0.0557      Y:     0.0458      Z:    -0.0822     Total:     0.1094

*** tstop() called on ds3 at Tue Apr 28 12:50:44 2020
Module time:
	user time   =       7.79 seconds =       0.13 minutes
	system time =       2.97 seconds =       0.05 minutes
	total time  =         11 seconds =       0.18 minutes
Total time:
	user time   =       7.79 seconds =       0.13 minutes
	system time =       2.97 seconds =       0.05 minutes
	total time  =         11 seconds =       0.18 minutes
                                     G D M A

                                 by Anthony Stone

                           version 2.2.06, 22 June 2011

               Distributed Multipoles from Gaussian wavefunctions

Starting at 12:50:44 on 28 Apr 2020

Using SCF density matrix from file ./SSI/SSI-163LEU-175LEU-1-dimer.test.15487.fchk

                         Distributed Multipole Analysis

Standard DMA

Positions and radii in angstrom
Multipole moments in atomic units, ea_0^k for rank k

C          x =  1.184707  y = -1.127766  z =  1.229451 angstrom
           Maximum rank =  0   Radius =  0.650 angstrom
                   Q00  =  -0.259580

C          x =  0.979707  y = -0.244766  z =  2.442451 angstrom
           Maximum rank =  0   Radius =  0.650 angstrom
                   Q00  =  -0.208357

H          x =  0.903707  y = -2.156766  z =  1.448451 angstrom
           Maximum rank =  0   Radius =  0.325 angstrom
                   Q00  =   0.075772

H          x =  0.576707  y = -0.781766  z =  0.405451 angstrom
           Maximum rank =  0   Radius =  0.325 angstrom
                   Q00  =   0.089439

H          x =  2.223707  y = -1.088766  z =  0.905451 angstrom
           Maximum rank =  0   Radius =  0.325 angstrom
                   Q00  =   0.072900

H          x =  1.289707  y =  0.775234  z =  2.232451 angstrom
           Maximum rank =  0   Radius =  0.325 angstrom
                   Q00  =   0.080659

H          x =  1.641797  y = -0.712166  z =  3.186211 angstrom
           Maximum rank =  0   Radius =  0.325 angstrom
                   Q00  =   0.071910

H          x = -0.087083  y = -0.273676  z =  2.709151 angstrom
           Maximum rank =  0   Radius =  0.325 angstrom
                   Q00  =   0.078427

C          x = -1.188293  y =  0.561234  z = -1.097549 angstrom
           Maximum rank =  0   Radius =  0.650 angstrom
                   Q00  =  -0.243427

C          x = -0.981293  y =  0.819234  z = -2.572549 angstrom
           Maximum rank =  0   Radius =  0.650 angstrom
                   Q00  =  -0.215381

H          x = -0.345293  y =  0.959234  z = -0.533549 angstrom
           Maximum rank =  0   Radius =  0.325 angstrom
                   Q00  =   0.077130

H          x = -2.084293  y =  1.084234  z = -0.765549 angstrom
           Maximum rank =  0   Radius =  0.325 angstrom
                   Q00  =   0.072533

H          x = -1.321293  y = -0.502766  z = -0.899549 angstrom
           Maximum rank =  0   Radius =  0.325 angstrom
                   Q00  =   0.077832

H          x = -0.785293  y =  1.878234  z = -2.731549 angstrom
           Maximum rank =  0   Radius =  0.325 angstrom
                   Q00  =   0.080128

H          x = -0.092793  y =  0.220181  z = -2.820959 angstrom
           Maximum rank =  0   Radius =  0.325 angstrom
                   Q00  =   0.070080

H          x = -1.858014  y =  0.504309  z = -3.157509 angstrom
           Maximum rank =  0   Radius =  0.325 angstrom
                   Q00  =   0.079934

Total multipoles referred to origin at
           x =   0.000000,  y =    0.000000,  z =    0.000000 angstrom
                   Q00  =  -0.000000

Finished at 12:50:44 on 28 Apr 2020

  DMA results are available in the Python driver through the
	  variable('DMA DISTRIBUTED MULTIPOLES')
  and
	  variable('DMA TOTAL MULTIPOLES')
  commands.

    Psi4 stopped on: Tuesday, 28 April 2020 12:50PM
    Psi4 wall time for execution: 0:00:10.54

*** Psi4 exiting successfully. Buy a developer a beer!
