                               Psi4 1.3.2 release

  ==> Input File <==

--------------------------------------------------------------------------
import numpy as np
set {scf_type pk
basis cc-pvdz
d_convergence 10
gdma_switch   0
gdma_limit    0
gdma_origin   [ 0.0,  0.0,  0.0 ]
}
molecule test {
    units Angstrom
    0 1
    --
    0 1
    C               -0.750649858772116     1.377768336678910     1.735816777142722
    O               -0.042649858772116     1.175768336678910     0.521816777142722
    H               -0.433649858772116     1.766768336678910    -0.140183222857278
    H               -1.797649858772116     1.096768336678910     1.616816777142722
    H               -0.698649858772116     2.435768336678910     2.001816777142722
    H               -0.280319858772116     0.789138336678910     2.537252777142722
    C                1.025350141227884    -1.486231663321090    -1.416183222857278
    O               -0.210649858772116    -1.161231663321090    -0.823183222857278
    H               -0.097649858772116    -0.329231663321090    -0.331183222857278
    H                1.803350141227884    -0.858231663321090    -0.981183222857278
    H                0.978350141227884    -1.298231663321090    -2.491183222857278
    H                1.275460141227884    -2.542001663321090    -1.235071222857278

}
e, wfn = energy('scf', return_wfn=True)
gdma(wfn)
dmavals = variable('DMA DISTRIBUTED MULTIPOLES')
charges = np.array(dmavals)
print(charges)
np.save('SSI-008SER-032SER-1-dimer.npy', np.array(charges))--------------------------------------------------------------------------

*** tstart() called on ds3
*** at Tue Apr 28 03:31:57 2020

   => Loading Basis Set <=

    Name: CC-PVDZ
    Role: ORBITAL
    Keyword: BASIS
    atoms 1, 7      entry C          line   138 file /theoryfs2/ds/metcalf/miniconda2/envs/tf2gpu/share/psi4/basis/cc-pvdz.gbs
    atoms 2, 8      entry O          line   198 file /theoryfs2/ds/metcalf/miniconda2/envs/tf2gpu/share/psi4/basis/cc-pvdz.gbs
    atoms 3-6, 9-12 entry H          line    22 file /theoryfs2/ds/metcalf/miniconda2/envs/tf2gpu/share/psi4/basis/cc-pvdz.gbs

         ---------------------------------------------------------
                                   SCF
               by Justin Turney, Rob Parrish, Andy Simmonett
                          and Daniel G. A. Smith
                              RHF Reference
                        1 Threads,    500 MiB Core
         ---------------------------------------------------------

  ==> Geometry <==

    Molecular point group: c1
    Full point group: C1

    Geometry (in Angstrom), charge = 0, multiplicity = 1:

       Center              X                  Y                   Z               Mass
    ------------   -----------------  -----------------  -----------------  -----------------
         C           -0.750649858772     1.377768336679     1.735816777143    12.000000000000
         O           -0.042649858772     1.175768336679     0.521816777143    15.994914619570
         H           -0.433649858772     1.766768336679    -0.140183222857     1.007825032230
         H           -1.797649858772     1.096768336679     1.616816777143     1.007825032230
         H           -0.698649858772     2.435768336679     2.001816777143     1.007825032230
         H           -0.280319858772     0.789138336679     2.537252777143     1.007825032230
         C            1.025350141228    -1.486231663321    -1.416183222857    12.000000000000
         O           -0.210649858772    -1.161231663321    -0.823183222857    15.994914619570
         H           -0.097649858772    -0.329231663321    -0.331183222857     1.007825032230
         H            1.803350141228    -0.858231663321    -0.981183222857     1.007825032230
         H            0.978350141228    -1.298231663321    -2.491183222857     1.007825032230
         H            1.275460141228    -2.542001663321    -1.235071222857     1.007825032230

  Running in c1 symmetry.

  Rotational constants: A =      0.72939  B =      0.07513  C =      0.07220 [cm^-1]
  Rotational constants: A =  21866.47039  B =   2252.37110  C =   2164.43638 [MHz]
  Nuclear repulsion =  129.928181321230227

  Charge       = 0
  Multiplicity = 1
  Electrons    = 36
  Nalpha       = 18
  Nbeta        = 18

  ==> Algorithm <==

  SCF Algorithm Type is PK.
  DIIS enabled.
  MOM disabled.
  Fractional occupation disabled.
  Guess Type is SAD.
  Energy threshold   = 1.00e-06
  Density threshold  = 1.00e-10
  Integral threshold = 0.00e+00

  ==> Primary Basis <==

  Basis Set: CC-PVDZ
    Blend: CC-PVDZ
    Number of shells: 48
    Number of basis function: 96
    Number of Cartesian functions: 100
    Spherical Harmonics?: true
    Max angular momentum: 2

  ==> Pre-Iterations <==

   -------------------------------------------------------
    Irrep   Nso     Nmo     Nalpha   Nbeta   Ndocc  Nsocc
   -------------------------------------------------------
     A         96      96       0       0       0       0
   -------------------------------------------------------
    Total      96      96      18      18      18       0
   -------------------------------------------------------

  ==> Integral Setup <==

  Using in-core PK algorithm.
   Calculation information:
      Number of atoms:                  12
      Number of AO shells:              48
      Number of primitives:            128
      Number of atomic orbitals:       100
      Number of basis functions:        96

      Integral cutoff                 1.00e-12
      Number of threads:                 1

  Performing in-core PK
  Using 21682992 doubles for integral storage.
  We computed 597616 shell quartets total.
  Whereas there are 692076 unique shell quartets.

  ==> DiskJK: Disk-Based J/K Matrices <==

    J tasked:                  Yes
    K tasked:                  Yes
    wK tasked:                  No
    Memory [MiB]:              375
    Schwarz Cutoff:          1E-12

    OpenMP threads:              1

  Minimum eigenvalue in the overlap matrix is 1.5499852605E-02.
  Using Symmetric Orthogonalization.

  SCF Guess: Superposition of Atomic Densities via on-the-fly atomic UHF.

  ==> Iterations <==

                        Total Energy        Delta E     RMS |[F,P]|

   @RHF iter SAD:  -228.92301025187211   -2.28923e+02   0.00000e+00
   @RHF iter   1:  -229.98184764254827   -1.05884e+00   5.03472e-03 DIIS
   @RHF iter   2:  -230.07942281655693   -9.75752e-02   2.50068e-03 DIIS
   @RHF iter   3:  -230.10061683852206   -2.11940e-02   4.63076e-04 DIIS
   @RHF iter   4:  -230.10204380656702   -1.42697e-03   1.09667e-04 DIIS
   @RHF iter   5:  -230.10212363626817   -7.98297e-05   2.92983e-05 DIIS
   @RHF iter   6:  -230.10213001137390   -6.37511e-06   7.08186e-06 DIIS
   @RHF iter   7:  -230.10213060341727   -5.92043e-07   1.55829e-06 DIIS
   @RHF iter   8:  -230.10213063383446   -3.04172e-08   5.26138e-07 DIIS
   @RHF iter   9:  -230.10213063551635   -1.68188e-09   1.45356e-07 DIIS
   @RHF iter  10:  -230.10213063569736   -1.81018e-10   3.08090e-08 DIIS
   @RHF iter  11:  -230.10213063570856   -1.11982e-11   9.20216e-09 DIIS
   @RHF iter  12:  -230.10213063570993   -1.36424e-12   2.78694e-09 DIIS
   @RHF iter  13:  -230.10213063571004   -1.13687e-13   7.45673e-10 DIIS
   @RHF iter  14:  -230.10213063570944    5.96856e-13   2.63017e-10 DIIS
   @RHF iter  15:  -230.10213063571004   -5.96856e-13   1.09412e-10 DIIS
   @RHF iter  16:  -230.10213063570961    4.26326e-13   2.40995e-11 DIIS
  Energy and wave function converged.

  ==> Post-Iterations <==

    Orbital Energies [Eh]
    ---------------------

    Doubly Occupied:

       1A    -20.584850     2A    -20.505133     3A    -11.294690
       4A    -11.250656     5A     -1.385165     6A     -1.314012
       7A     -0.941831     8A     -0.892871     9A     -0.711549
      10A     -0.672337    11A     -0.633970    12A     -0.607606
      13A     -0.589062    14A     -0.561462    15A     -0.523177
      16A     -0.479262    17A     -0.449367    18A     -0.407186

    Virtual:

      19A      0.165992    20A      0.204086    21A      0.221111
      22A      0.250930    23A      0.256292    24A      0.284167
      25A      0.286033    26A      0.322502    27A      0.354911
      28A      0.457352    29A      0.623045    30A      0.625831
      31A      0.650312    32A      0.657305    33A      0.704032
      34A      0.765053    35A      0.804645    36A      0.844790
      37A      0.849092    38A      0.874897    39A      0.888185
      40A      0.890096    41A      0.897977    42A      0.927503
      43A      1.095926    44A      1.128250    45A      1.151154
      46A      1.156350    47A      1.174460    48A      1.215616
      49A      1.265646    50A      1.326105    51A      1.377832
      52A      1.428137    53A      1.437908    54A      1.566729
      55A      1.622370    56A      1.652679    57A      1.688428
      58A      1.693203    59A      1.721429    60A      1.750360
      61A      1.855292    62A      1.879368    63A      1.885257
      64A      1.902536    65A      1.927107    66A      1.939945
      67A      1.951245    68A      1.960401    69A      1.992153
      70A      2.084329    71A      2.152024    72A      2.174667
      73A      2.265292    74A      2.341285    75A      2.346191
      76A      2.353901    77A      2.412752    78A      2.444967
      79A      2.486957    80A      2.726979    81A      2.736793
      82A      2.749204    83A      2.760887    84A      2.781421
      85A      2.812255    86A      2.877330    87A      3.290410
      88A      3.341616    89A      3.379300    90A      3.434102
      91A      3.443334    92A      3.489219    93A      3.555166
      94A      3.650754    95A      4.059889    96A      4.182460

    Final Occupation by Irrep:
              A
    DOCC [    18 ]

  @RHF Final Energy:  -230.10213063570961

   => Energetics <=

    Nuclear Repulsion Energy =            129.9281813212302268
    One-Electron Energy =                -572.4522524244388251
    Two-Electron Energy =                 212.4219404674989846
    Total Energy =                       -230.1021306357096137

Computation Completed

Properties will be evaluated at   0.000000,   0.000000,   0.000000 [a0]

Properties computed using the SCF density matrix

  Nuclear Dipole Moment: [e a0]
     X:     0.7012      Y:     0.9945      Z:     0.9145

  Electronic Dipole Moment: [e a0]
     X:    -0.7569      Y:     0.1760      Z:    -0.4546

  Dipole Moment: [e a0]
     X:    -0.0558      Y:     1.1705      Z:     0.4600     Total:     1.2589

  Dipole Moment: [D]
     X:    -0.1417      Y:     2.9752      Z:     1.1691     Total:     3.1998

*** tstop() called on ds3 at Tue Apr 28 03:32:01 2020
Module time:
	user time   =       4.36 seconds =       0.07 minutes
	system time =       0.19 seconds =       0.00 minutes
	total time  =          4 seconds =       0.07 minutes
Total time:
	user time   =       4.36 seconds =       0.07 minutes
	system time =       0.19 seconds =       0.00 minutes
	total time  =          4 seconds =       0.07 minutes
                                     G D M A

                                 by Anthony Stone

                           version 2.2.06, 22 June 2011

               Distributed Multipoles from Gaussian wavefunctions

Starting at 3:32:1 on 28 Apr 2020

Using SCF density matrix from file ./SSI/SSI-008SER-032SER-1-dimer.test.17642.fchk

                         Distributed Multipole Analysis

Standard DMA

Positions and radii in angstrom
Multipole moments in atomic units, ea_0^k for rank k

C          x = -0.750650  y =  1.377768  z =  1.735817 angstrom
           Maximum rank =  0   Radius =  0.650 angstrom
                   Q00  =  -0.061756

O          x = -0.042650  y =  1.175768  z =  0.521817 angstrom
           Maximum rank =  0   Radius =  0.650 angstrom
                   Q00  =  -0.614545

H          x = -0.433650  y =  1.766768  z = -0.140183 angstrom
           Maximum rank =  0   Radius =  0.325 angstrom
                   Q00  =   0.397376

H          x = -1.797650  y =  1.096768  z =  1.616817 angstrom
           Maximum rank =  0   Radius =  0.325 angstrom
                   Q00  =   0.084819

H          x = -0.698650  y =  2.435768  z =  2.001817 angstrom
           Maximum rank =  0   Radius =  0.325 angstrom
                   Q00  =   0.083333

H          x = -0.280320  y =  0.789138  z =  2.537253 angstrom
           Maximum rank =  0   Radius =  0.325 angstrom
                   Q00  =   0.126507

C          x =  1.025350  y = -1.486232  z = -1.416183 angstrom
           Maximum rank =  0   Radius =  0.650 angstrom
                   Q00  =  -0.028079

O          x = -0.210650  y = -1.161232  z = -0.823183 angstrom
           Maximum rank =  0   Radius =  0.650 angstrom
                   Q00  =  -0.676297

H          x = -0.097650  y = -0.329232  z = -0.331183 angstrom
           Maximum rank =  0   Radius =  0.325 angstrom
                   Q00  =   0.486716

H          x =  1.803350  y = -0.858232  z = -0.981183 angstrom
           Maximum rank =  0   Radius =  0.325 angstrom
                   Q00  =   0.057354

H          x =  0.978350  y = -1.298232  z = -2.491183 angstrom
           Maximum rank =  0   Radius =  0.325 angstrom
                   Q00  =   0.064074

H          x =  1.275460  y = -2.542002  z = -1.235071 angstrom
           Maximum rank =  0   Radius =  0.325 angstrom
                   Q00  =   0.080499

Total multipoles referred to origin at
           x =   0.000000,  y =    0.000000,  z =    0.000000 angstrom
                   Q00  =  -0.000000

Finished at 3:32:2 on 28 Apr 2020

  DMA results are available in the Python driver through the
	  variable('DMA DISTRIBUTED MULTIPOLES')
  and
	  variable('DMA TOTAL MULTIPOLES')
  commands.

    Psi4 stopped on: Tuesday, 28 April 2020 03:32AM
    Psi4 wall time for execution: 0:00:04.81

*** Psi4 exiting successfully. Buy a developer a beer!
