                               Psi4 1.3.2 release

  ==> Input File <==

--------------------------------------------------------------------------
import numpy as np
set {scf_type pk
basis cc-pvdz
d_convergence 10
gdma_switch   0
gdma_limit    0
gdma_origin   [ 0.0,  0.0,  0.0 ]
}
molecule test {
    units Angstrom
    -1 1
    --
    -1 1
    C               -1.878006230835706    -0.508655151679935     1.922047132823884
    C               -1.471006230835706    -1.449655151679935     3.053047132823884
    H               -1.422006230835706    -0.836655151679935     0.988047132823884
    H               -2.960006230835706    -0.495655151679935     1.804047132823884
    H               -1.586006230835706     0.512344848320065     2.138047132823884
    H               -1.991006230835706    -1.142655151679935     3.962047132823884
    H               -0.386906230835706    -1.393950151679935     3.230874132823884
    H               -1.770396230835706    -2.479934151679935     2.810375132823884
    C               -0.272006230835706     0.876344848320065    -1.181952867176116
    C                0.259993769164294     2.265344848320065    -1.526952867176116
    C                0.847993769164294    -0.115655151679935    -0.886952867176116
    O                1.635993769164294     0.138344848320065     0.050047132823884
    O                0.923993769164294    -1.155655151679935    -1.579952867176116
    H               -0.904006230835706     0.963344848320065    -0.299952867176116
    H               -0.892006230835706     0.515344848320065    -2.005952867176116
    H                0.966993769164294     2.559344848320065    -0.753952867176116
    H               -0.570246230835706     2.986896848320065    -1.535254867176116
    H                0.808963769164294     2.243816648320065    -2.479932867176116

}
e, wfn = energy('scf', return_wfn=True)
gdma(wfn)
dmavals = variable('DMA DISTRIBUTED MULTIPOLES')
charges = np.array(dmavals)
print(charges)
np.save('SSI-025ILE-059ASP-1-dimer.npy', np.array(charges))--------------------------------------------------------------------------

*** tstart() called on ds3
*** at Mon Apr 27 12:57:11 2020

   => Loading Basis Set <=

    Name: CC-PVDZ
    Role: ORBITAL
    Keyword: BASIS
    atoms 1-2, 9-11  entry C          line   138 file /theoryfs2/ds/metcalf/miniconda2/envs/tf2gpu/share/psi4/basis/cc-pvdz.gbs
    atoms 3-8, 14-18 entry H          line    22 file /theoryfs2/ds/metcalf/miniconda2/envs/tf2gpu/share/psi4/basis/cc-pvdz.gbs
    atoms 12-13      entry O          line   198 file /theoryfs2/ds/metcalf/miniconda2/envs/tf2gpu/share/psi4/basis/cc-pvdz.gbs

         ---------------------------------------------------------
                                   SCF
               by Justin Turney, Rob Parrish, Andy Simmonett
                          and Daniel G. A. Smith
                              RHF Reference
                        1 Threads,    500 MiB Core
         ---------------------------------------------------------

  ==> Geometry <==

    Molecular point group: c1
    Full point group: C1

    Geometry (in Angstrom), charge = -1, multiplicity = 1:

       Center              X                  Y                   Z               Mass
    ------------   -----------------  -----------------  -----------------  -----------------
         C           -1.878006230836    -0.508655151680     1.922047132824    12.000000000000
         C           -1.471006230836    -1.449655151680     3.053047132824    12.000000000000
         H           -1.422006230836    -0.836655151680     0.988047132824     1.007825032230
         H           -2.960006230836    -0.495655151680     1.804047132824     1.007825032230
         H           -1.586006230836     0.512344848320     2.138047132824     1.007825032230
         H           -1.991006230836    -1.142655151680     3.962047132824     1.007825032230
         H           -0.386906230836    -1.393950151680     3.230874132824     1.007825032230
         H           -1.770396230836    -2.479934151680     2.810375132824     1.007825032230
         C           -0.272006230836     0.876344848320    -1.181952867176    12.000000000000
         C            0.259993769164     2.265344848320    -1.526952867176    12.000000000000
         C            0.847993769164    -0.115655151680    -0.886952867176    12.000000000000
         O            1.635993769164     0.138344848320     0.050047132824    15.994914619570
         O            0.923993769164    -1.155655151680    -1.579952867176    15.994914619570
         H           -0.904006230836     0.963344848320    -0.299952867176     1.007825032230
         H           -0.892006230836     0.515344848320    -2.005952867176     1.007825032230
         H            0.966993769164     2.559344848320    -0.753952867176     1.007825032230
         H           -0.570246230836     2.986896848320    -1.535254867176     1.007825032230
         H            0.808963769164     2.243816648320    -2.479932867176     1.007825032230

  Running in c1 symmetry.

  Rotational constants: A =      0.10053  B =      0.03375  C =      0.02946 [cm^-1]
  Rotational constants: A =   3013.81233  B =   1011.88791  C =    883.25279 [MHz]
  Nuclear repulsion =  291.666086286676773

  Charge       = -1
  Multiplicity = 1
  Electrons    = 58
  Nalpha       = 29
  Nbeta        = 29

  ==> Algorithm <==

  SCF Algorithm Type is PK.
  DIIS enabled.
  MOM disabled.
  Fractional occupation disabled.
  Guess Type is SAD.
  Energy threshold   = 1.00e-06
  Density threshold  = 1.00e-10
  Integral threshold = 0.00e+00

  ==> Primary Basis <==

  Basis Set: CC-PVDZ
    Blend: CC-PVDZ
    Number of shells: 75
    Number of basis function: 153
    Number of Cartesian functions: 160
    Spherical Harmonics?: true
    Max angular momentum: 2

  ==> Pre-Iterations <==

   -------------------------------------------------------
    Irrep   Nso     Nmo     Nalpha   Nbeta   Ndocc  Nsocc
   -------------------------------------------------------
     A        153     153       0       0       0       0
   -------------------------------------------------------
    Total     153     153      29      29      29       0
   -------------------------------------------------------

  ==> Integral Setup <==

  Using integral reordering PK algorithm.
  Sizing the integral batches needed.
  Building batch lookup table.
   Calculation information:
      Number of atoms:                  18
      Number of AO shells:              75
      Number of primitives:            209
      Number of atomic orbitals:       160
      Number of basis functions:       153

      Integral cutoff                 1.00e-12
      Number of threads:                 1

	Batch   1 pq = [       0,    9405] index = [             0,44231715] size =     44231715
	Batch   2 pq = [    9405,   11781] index = [      44231715,69401871] size =     25170156
  Task number: 7
  Buffer size: 11059200
  Buffer per thread: 2
  We computed 3437147 shell quartets total.
  Whereas there are 4062675 unique shell quartets.

  ==> DiskJK: Disk-Based J/K Matrices <==

    J tasked:                  Yes
    K tasked:                  Yes
    wK tasked:                  No
    Memory [MiB]:              375
    Schwarz Cutoff:          1E-12

    OpenMP threads:              1

  Minimum eigenvalue in the overlap matrix is 4.2989182276E-03.
  Using Symmetric Orthogonalization.

  SCF Guess: Superposition of Atomic Densities via on-the-fly atomic UHF.

  ==> Iterations <==

                        Total Energy        Delta E     RMS |[F,P]|

   @RHF iter SAD:  -343.86768841308924   -3.43868e+02   0.00000e+00
   @RHF iter   1:  -345.22237081558978   -1.35468e+00   4.90365e-03 DIIS
   @RHF iter   2:  -345.44312465772299   -2.20754e-01   2.70048e-03 DIIS
   @RHF iter   3:  -345.50729117502027   -6.41665e-02   4.21551e-04 DIIS
   @RHF iter   4:  -345.51023867269788   -2.94750e-03   1.66977e-04 DIIS
   @RHF iter   5:  -345.51067273929766   -4.34067e-04   2.40453e-05 DIIS
   @RHF iter   6:  -345.51068634534886   -1.36061e-05   5.19421e-06 DIIS
   @RHF iter   7:  -345.51068697734053   -6.31992e-07   1.72602e-06 DIIS
   @RHF iter   8:  -345.51068704072185   -6.33813e-08   5.35499e-07 DIIS
   @RHF iter   9:  -345.51068704861910   -7.89726e-09   3.17631e-07 DIIS
   @RHF iter  10:  -345.51068705030309   -1.68399e-09   8.31924e-08 DIIS
   @RHF iter  11:  -345.51068705060482   -3.01725e-10   3.11362e-08 DIIS
   @RHF iter  12:  -345.51068705063778   -3.29692e-11   9.60693e-09 DIIS
   @RHF iter  13:  -345.51068705064313   -5.34328e-12   3.14867e-09 DIIS
   @RHF iter  14:  -345.51068705064273    3.97904e-13   8.84508e-10 DIIS
   @RHF iter  15:  -345.51068705064199    7.38964e-13   3.10900e-10 DIIS
   @RHF iter  16:  -345.51068705064205   -5.68434e-14   1.11381e-10 DIIS
   @RHF iter  17:  -345.51068705064182    2.27374e-13   4.62845e-11 DIIS
  Energy and wave function converged.

  ==> Post-Iterations <==

    Orbital Energies [Eh]
    ---------------------

    Doubly Occupied:

       1A    -20.256139     2A    -20.255123     3A    -11.115107
       4A    -11.109970     5A    -11.101683     6A    -11.074902
       7A    -11.048916     8A     -1.145590     9A     -1.031712
      10A     -0.909437    11A     -0.871153    12A     -0.729102
      13A     -0.699115    14A     -0.507667    15A     -0.490201
      16A     -0.487148    17A     -0.453655    18A     -0.428783
      19A     -0.394571    20A     -0.385129    21A     -0.377268
      22A     -0.376921    23A     -0.363294    24A     -0.357575
      25A     -0.319794    26A     -0.296836    27A     -0.177269
      28A     -0.168271    29A     -0.156741

    Virtual:

      30A      0.291617    31A      0.323708    32A      0.344671
      33A      0.356851    34A      0.364665    35A      0.387532
      36A      0.391765    37A      0.393031    38A      0.412043
      39A      0.432717    40A      0.444042    41A      0.488390
      42A      0.517472    43A      0.559012    44A      0.605601
      45A      0.681656    46A      0.702717    47A      0.721468
      48A      0.723161    49A      0.731024    50A      0.755607
      51A      0.783908    52A      0.801975    53A      0.816424
      54A      0.888187    55A      0.978363    56A      0.979262
      57A      0.989818    58A      0.992645    59A      0.997770
      60A      1.006033    61A      1.010943    62A      1.017145
      63A      1.036609    64A      1.041062    65A      1.045142
      66A      1.056793    67A      1.063909    68A      1.081655
      69A      1.084040    70A      1.124778    71A      1.130995
      72A      1.155580    73A      1.230357    74A      1.263257
      75A      1.300525    76A      1.300634    77A      1.313660
      78A      1.381070    79A      1.396884    80A      1.492099
      81A      1.521250    82A      1.547575    83A      1.587618
      84A      1.595289    85A      1.607926    86A      1.624909
      87A      1.655541    88A      1.680068    89A      1.683234
      90A      1.692544    91A      1.722635    92A      1.784218
      93A      1.816505    94A      1.829319    95A      1.856126
      96A      1.957347    97A      1.974618    98A      1.982621
      99A      2.015917   100A      2.023185   101A      2.048998
     102A      2.052974   103A      2.058412   104A      2.062375
     105A      2.067672   106A      2.076844   107A      2.101303
     108A      2.115684   109A      2.141129   110A      2.145419
     111A      2.169801   112A      2.178001   113A      2.197848
     114A      2.209746   115A      2.229990   116A      2.308228
     117A      2.361749   118A      2.386917   119A      2.412370
     120A      2.437639   121A      2.448863   122A      2.488205
     123A      2.550258   124A      2.564700   125A      2.594923
     126A      2.638914   127A      2.666549   128A      2.680007
     129A      2.690289   130A      2.740579   131A      2.750048
     132A      2.834709   133A      2.866957   134A      2.908299
     135A      2.911228   136A      2.962358   137A      2.971759
     138A      2.983072   139A      3.011088   140A      3.039580
     141A      3.071505   142A      3.092686   143A      3.141459
     144A      3.250357   145A      3.290116   146A      3.305946
     147A      3.368852   148A      3.643289   149A      3.796981
     150A      3.829318   151A      4.060168   152A      4.088978
     153A      4.201328

    Final Occupation by Irrep:
              A
    DOCC [    29 ]

  @RHF Final Energy:  -345.51068705064182

   => Energetics <=

    Nuclear Repulsion Energy =            291.6660862866767729
    One-Electron Energy =               -1060.1754063120126830
    Two-Electron Energy =                 422.9986329746940896
    Total Energy =                       -345.5106870506418204

Computation Completed

Properties will be evaluated at   0.000000,   0.000000,   0.000000 [a0]

Properties computed using the SCF density matrix

  Nuclear Dipole Moment: [e a0]
     X:   -10.0248      Y:     3.2127      Z:     7.3597

  Electronic Dipole Moment: [e a0]
     X:     7.6845      Y:    -2.2540      Z:    -6.0601

  Dipole Moment: [e a0]
     X:    -2.3404      Y:     0.9587      Z:     1.2996     Total:     2.8435

  Dipole Moment: [D]
     X:    -5.9486      Y:     2.4368      Z:     3.3032     Total:     7.2274

*** tstop() called on ds3 at Mon Apr 27 12:57:56 2020
Module time:
	user time   =      32.18 seconds =       0.54 minutes
	system time =      14.51 seconds =       0.24 minutes
	total time  =         45 seconds =       0.75 minutes
Total time:
	user time   =      32.18 seconds =       0.54 minutes
	system time =      14.51 seconds =       0.24 minutes
	total time  =         45 seconds =       0.75 minutes
                                     G D M A

                                 by Anthony Stone

                           version 2.2.06, 22 June 2011

               Distributed Multipoles from Gaussian wavefunctions

Starting at 12:57:56 on 27 Apr 2020

Using SCF density matrix from file ./SSI/SSI-025ILE-059ASP-1-dimer.test.4742.fchk

                         Distributed Multipole Analysis

Standard DMA

Positions and radii in angstrom
Multipole moments in atomic units, ea_0^k for rank k

C          x = -1.878006  y = -0.508655  z =  1.922047 angstrom
           Maximum rank =  0   Radius =  0.650 angstrom
                   Q00  =  -0.215461

C          x = -1.471006  y = -1.449655  z =  3.053047 angstrom
           Maximum rank =  0   Radius =  0.650 angstrom
                   Q00  =  -0.233259

H          x = -1.422006  y = -0.836655  z =  0.988047 angstrom
           Maximum rank =  0   Radius =  0.325 angstrom
                   Q00  =   0.120521

H          x = -2.960006  y = -0.495655  z =  1.804047 angstrom
           Maximum rank =  0   Radius =  0.325 angstrom
                   Q00  =   0.041586

H          x = -1.586006  y =  0.512345  z =  2.138047 angstrom
           Maximum rank =  0   Radius =  0.325 angstrom
                   Q00  =   0.080218

H          x = -1.991006  y = -1.142655  z =  3.962047 angstrom
           Maximum rank =  0   Radius =  0.325 angstrom
                   Q00  =   0.044968

H          x = -0.386906  y = -1.393950  z =  3.230874 angstrom
           Maximum rank =  0   Radius =  0.325 angstrom
                   Q00  =   0.098042

H          x = -1.770396  y = -2.479934  z =  2.810375 angstrom
           Maximum rank =  0   Radius =  0.325 angstrom
                   Q00  =   0.068159

C          x = -0.272006  y =  0.876345  z = -1.181953 angstrom
           Maximum rank =  0   Radius =  0.650 angstrom
                   Q00  =  -0.117037

C          x =  0.259994  y =  2.265345  z = -1.526953 angstrom
           Maximum rank =  0   Radius =  0.650 angstrom
                   Q00  =  -0.197196

C          x =  0.847994  y = -0.115655  z = -0.886953 angstrom
           Maximum rank =  0   Radius =  0.650 angstrom
                   Q00  =   0.960337

O          x =  1.635994  y =  0.138345  z =  0.050047 angstrom
           Maximum rank =  0   Radius =  0.650 angstrom
                   Q00  =  -0.943475

O          x =  0.923994  y = -1.155655  z = -1.579953 angstrom
           Maximum rank =  0   Radius =  0.650 angstrom
                   Q00  =  -0.924930

H          x = -0.904006  y =  0.963345  z = -0.299953 angstrom
           Maximum rank =  0   Radius =  0.325 angstrom
                   Q00  =   0.034652

H          x = -0.892006  y =  0.515345  z = -2.005953 angstrom
           Maximum rank =  0   Radius =  0.325 angstrom
                   Q00  =   0.017046

H          x =  0.966994  y =  2.559345  z = -0.753953 angstrom
           Maximum rank =  0   Radius =  0.325 angstrom
                   Q00  =   0.083875

H          x = -0.570246  y =  2.986897  z = -1.535255 angstrom
           Maximum rank =  0   Radius =  0.325 angstrom
                   Q00  =   0.023646

H          x =  0.808964  y =  2.243817  z = -2.479933 angstrom
           Maximum rank =  0   Radius =  0.325 angstrom
                   Q00  =   0.058307

Total multipoles referred to origin at
           x =   0.000000,  y =    0.000000,  z =    0.000000 angstrom
                   Q00  =  -1.000000

Finished at 12:57:56 on 27 Apr 2020

  DMA results are available in the Python driver through the
	  variable('DMA DISTRIBUTED MULTIPOLES')
  and
	  variable('DMA TOTAL MULTIPOLES')
  commands.

    Psi4 stopped on: Monday, 27 April 2020 12:57PM
    Psi4 wall time for execution: 0:00:45.70

*** Psi4 exiting successfully. Buy a developer a beer!
