                               Psi4 1.3.2 release

  ==> Input File <==

--------------------------------------------------------------------------
import numpy as np
set {scf_type pk
basis cc-pvdz
d_convergence 10
gdma_switch   0
gdma_limit    0
gdma_origin   [ 0.0,  0.0,  0.0 ]
}
molecule test {
    units Angstrom
    -1 1
    --
    -1 1
    C                0.871878675033670     0.289069880355474    -1.650957955933255
    C               -0.257121324966330    -0.256930119644526    -2.517957955933255
    C                0.821878675033670     1.809069880355474    -1.553957955933255
    O               -0.043121324966330     2.423069880355474    -2.227957955933255
    O                1.650878675033670     2.369069880355474    -0.793957955933255
    H                0.780878675033670    -0.125930119644526    -0.648957955933255
    H                1.840878675033670    -0.020930119644526    -2.048957955933256
    H               -1.197121324966330     0.097069880355474    -2.086957955933255
    H               -0.260140324966330    -1.355760119644526    -2.568517955933255
    H               -0.176566324966330     0.138589880355474    -3.541227955933255
    C               -1.217121324966330    -1.697930119644526     0.929042044066745
    C               -1.792121324966330    -2.904930119644526     1.677042044066745
    C               -0.238121324966330    -0.943930119644526     1.787042044066744
    O                0.747878675033670    -1.515930119644526     2.240042044066745
    N               -0.514121324966330     0.322069880355474     2.054042044066745
    H               -0.690121324966330    -2.049930119644526     0.046042044066745
    H               -2.027121324966330    -1.038930119644526     0.610042044066745
    H               -2.307121324966330    -2.556930119644526     2.574042044066745
    H               -0.959121324966330    -3.540930119644526     1.981042044066744
    H                0.097878675033670     0.816069880355474     2.691042044066745
    H               -1.300121324966330     0.800069880355474     1.620042044066744
    H               -2.484445324966330    -3.511520119644526     1.074772044066745

}
e, wfn = energy('scf', return_wfn=True)
gdma(wfn)
dmavals = variable('DMA DISTRIBUTED MULTIPOLES')
charges = np.array(dmavals)
print(charges)
np.save('SSI-065ASP-110GLN-1-dimer.npy', np.array(charges))--------------------------------------------------------------------------

*** tstart() called on ds3
*** at Mon Apr 27 13:14:33 2020

   => Loading Basis Set <=

    Name: CC-PVDZ
    Role: ORBITAL
    Keyword: BASIS
    atoms 1-3, 11-13  entry C          line   138 file /theoryfs2/ds/metcalf/miniconda2/envs/tf2gpu/share/psi4/basis/cc-pvdz.gbs
    atoms 4-5, 14     entry O          line   198 file /theoryfs2/ds/metcalf/miniconda2/envs/tf2gpu/share/psi4/basis/cc-pvdz.gbs
    atoms 6-10, 16-22 entry H          line    22 file /theoryfs2/ds/metcalf/miniconda2/envs/tf2gpu/share/psi4/basis/cc-pvdz.gbs
    atoms 15          entry N          line   168 file /theoryfs2/ds/metcalf/miniconda2/envs/tf2gpu/share/psi4/basis/cc-pvdz.gbs

         ---------------------------------------------------------
                                   SCF
               by Justin Turney, Rob Parrish, Andy Simmonett
                          and Daniel G. A. Smith
                              RHF Reference
                        1 Threads,    500 MiB Core
         ---------------------------------------------------------

  ==> Geometry <==

    Molecular point group: c1
    Full point group: C1

    Geometry (in Angstrom), charge = -1, multiplicity = 1:

       Center              X                  Y                   Z               Mass
    ------------   -----------------  -----------------  -----------------  -----------------
         C            0.871878675034     0.289069880355    -1.650957955933    12.000000000000
         C           -0.257121324966    -0.256930119645    -2.517957955933    12.000000000000
         C            0.821878675034     1.809069880355    -1.553957955933    12.000000000000
         O           -0.043121324966     2.423069880355    -2.227957955933    15.994914619570
         O            1.650878675034     2.369069880355    -0.793957955933    15.994914619570
         H            0.780878675034    -0.125930119645    -0.648957955933     1.007825032230
         H            1.840878675034    -0.020930119645    -2.048957955933     1.007825032230
         H           -1.197121324966     0.097069880355    -2.086957955933     1.007825032230
         H           -0.260140324966    -1.355760119645    -2.568517955933     1.007825032230
         H           -0.176566324966     0.138589880355    -3.541227955933     1.007825032230
         C           -1.217121324966    -1.697930119645     0.929042044067    12.000000000000
         C           -1.792121324966    -2.904930119645     1.677042044067    12.000000000000
         C           -0.238121324966    -0.943930119645     1.787042044067    12.000000000000
         O            0.747878675034    -1.515930119645     2.240042044067    15.994914619570
         N           -0.514121324966     0.322069880355     2.054042044067    14.003074004430
         H           -0.690121324966    -2.049930119645     0.046042044067     1.007825032230
         H           -2.027121324966    -1.038930119645     0.610042044067     1.007825032230
         H           -2.307121324966    -2.556930119645     2.574042044067     1.007825032230
         H           -0.959121324966    -3.540930119645     1.981042044067     1.007825032230
         H            0.097878675034     0.816069880355     2.691042044067     1.007825032230
         H           -1.300121324966     0.800069880355     1.620042044067     1.007825032230
         H           -2.484445324966    -3.511520119645     1.074772044067     1.007825032230

  Running in c1 symmetry.

  Rotational constants: A =      0.06196  B =      0.01867  C =      0.01629 [cm^-1]
  Rotational constants: A =   1857.64063  B =    559.82404  C =    488.31514 [MHz]
  Nuclear repulsion =  521.688691632235304

  Charge       = -1
  Multiplicity = 1
  Electrons    = 80
  Nalpha       = 40
  Nbeta        = 40

  ==> Algorithm <==

  SCF Algorithm Type is PK.
  DIIS enabled.
  MOM disabled.
  Fractional occupation disabled.
  Guess Type is SAD.
  Energy threshold   = 1.00e-06
  Density threshold  = 1.00e-10
  Integral threshold = 0.00e+00

  ==> Primary Basis <==

  Basis Set: CC-PVDZ
    Blend: CC-PVDZ
    Number of shells: 96
    Number of basis function: 200
    Number of Cartesian functions: 210
    Spherical Harmonics?: true
    Max angular momentum: 2

  ==> Pre-Iterations <==

   -------------------------------------------------------
    Irrep   Nso     Nmo     Nalpha   Nbeta   Ndocc  Nsocc
   -------------------------------------------------------
     A        200     200       0       0       0       0
   -------------------------------------------------------
    Total     200     200      40      40      40       0
   -------------------------------------------------------

  ==> Integral Setup <==

  Using integral reordering PK algorithm.
  Sizing the integral batches needed.
  Building batch lookup table.
   Calculation information:
      Number of atoms:                  22
      Number of AO shells:              96
      Number of primitives:            280
      Number of atomic orbitals:       210
      Number of basis functions:       200

      Integral cutoff                 1.00e-12
      Number of threads:                 1

	Batch   1 pq = [       0,    9405] index = [             0,44231715] size =     44231715
	Batch   2 pq = [    9405,   13301] index = [      44231715,88464951] size =     44233236
	Batch   3 pq = [   13301,   16290] index = [      88464951,132690195] size =     44225244
	Batch   4 pq = [   16290,   18810] index = [     132690195,176917455] size =     44227260
	Batch   5 pq = [   18810,   20100] index = [     176917455,202015050] size =     25097595
  Task number: 19
  Buffer size: 11059200
  Buffer per thread: 2
  We computed 9318568 shell quartets total.
  Whereas there are 10841496 unique shell quartets.

  ==> DiskJK: Disk-Based J/K Matrices <==

    J tasked:                  Yes
    K tasked:                  Yes
    wK tasked:                  No
    Memory [MiB]:              375
    Schwarz Cutoff:          1E-12

    OpenMP threads:              1

  Minimum eigenvalue in the overlap matrix is 3.3792528952E-03.
  Using Symmetric Orthogonalization.

  SCF Guess: Superposition of Atomic Densities via on-the-fly atomic UHF.

  ==> Iterations <==

                        Total Energy        Delta E     RMS |[F,P]|

   @RHF iter SAD:  -511.47160474574270   -5.11472e+02   0.00000e+00
   @RHF iter   1:  -512.93208818408800   -1.46048e+00   4.38069e-03 DIIS
   @RHF iter   2:  -513.21444262457260   -2.82354e-01   2.54030e-03 DIIS
   @RHF iter   3:  -513.30771949887389   -9.32769e-02   4.19723e-04 DIIS
   @RHF iter   4:  -513.31214896258973   -4.42946e-03   1.72902e-04 DIIS
   @RHF iter   5:  -513.31292404317605   -7.75081e-04   3.19143e-05 DIIS
   @RHF iter   6:  -513.31296230064675   -3.82575e-05   1.67166e-05 DIIS
   @RHF iter   7:  -513.31297012480081   -7.82415e-06   4.78998e-06 DIIS
   @RHF iter   8:  -513.31297152493357   -1.40013e-06   2.02943e-06 DIIS
   @RHF iter   9:  -513.31297175328052   -2.28347e-07   6.93824e-07 DIIS
   @RHF iter  10:  -513.31297177985550   -2.65750e-08   1.89853e-07 DIIS
   @RHF iter  11:  -513.31297178143291   -1.57740e-09   5.36635e-08 DIIS
   @RHF iter  12:  -513.31297178155694   -1.24032e-10   1.99724e-08 DIIS
   @RHF iter  13:  -513.31297178157672   -1.97815e-11   5.74633e-09 DIIS
   @RHF iter  14:  -513.31297178157263    4.09273e-12   2.60609e-09 DIIS
   @RHF iter  15:  -513.31297178157581   -3.18323e-12   9.05089e-10 DIIS
   @RHF iter  16:  -513.31297178157615   -3.41061e-13   3.76118e-10 DIIS
   @RHF iter  17:  -513.31297178157479    1.36424e-12   1.76233e-10 DIIS
   @RHF iter  18:  -513.31297178157456    2.27374e-13   6.49577e-11 DIIS
  Energy and wave function converged.

  ==> Post-Iterations <==

    Orbital Energies [Eh]
    ---------------------

    Doubly Occupied:

       1A    -20.402199     2A    -20.265349     3A    -20.257656
       4A    -15.485627     5A    -11.243248     6A    -11.145746
       7A    -11.142703     8A    -11.116822     9A    -11.071904
      10A    -11.053745    11A     -1.269101    12A     -1.147129
      13A     -1.112514    14A     -1.036509    15A     -0.958234
      16A     -0.871366    17A     -0.799137    18A     -0.701093
      19A     -0.686660    20A     -0.619102    21A     -0.570427
      22A     -0.532034    23A     -0.507571    24A     -0.494730
      25A     -0.470543    26A     -0.456248    27A     -0.436745
      28A     -0.433807    29A     -0.412377    30A     -0.400950
      31A     -0.390723    32A     -0.360242    33A     -0.352553
      34A     -0.327007    35A     -0.309357    36A     -0.300947
      37A     -0.300232    38A     -0.183623    39A     -0.173296
      40A     -0.162188

    Virtual:

      41A      0.260655    42A      0.281711    43A      0.312994
      44A      0.319975    45A      0.324879    46A      0.344466
      47A      0.358408    48A      0.368882    49A      0.380046
      50A      0.396705    51A      0.405682    52A      0.419554
      53A      0.448915    54A      0.479611    55A      0.496654
      56A      0.509362    57A      0.551268    58A      0.582730
      59A      0.611941    60A      0.669846    61A      0.681212
      62A      0.693978    63A      0.709503    64A      0.720836
      65A      0.739519    66A      0.783260    67A      0.787662
      68A      0.817376    69A      0.826987    70A      0.863431
      71A      0.900141    72A      0.932540    73A      0.940237
      74A      0.942066    75A      0.956399    76A      0.969401
      77A      0.971555    78A      0.978276    79A      0.989413
      80A      0.996980    81A      1.012408    82A      1.020560
      83A      1.028979    84A      1.046826    85A      1.053306
      86A      1.057361    87A      1.071159    88A      1.078274
      89A      1.082887    90A      1.099844    91A      1.112636
      92A      1.129239    93A      1.140933    94A      1.166094
      95A      1.181690    96A      1.213315    97A      1.219759
      98A      1.300855    99A      1.309548   100A      1.351603
     101A      1.387973   102A      1.396092   103A      1.418253
     104A      1.442618   105A      1.480598   106A      1.489838
     107A      1.498857   108A      1.504916   109A      1.530091
     110A      1.540293   111A      1.561409   112A      1.590604
     113A      1.602022   114A      1.615532   115A      1.627970
     116A      1.654876   117A      1.665881   118A      1.731228
     119A      1.756768   120A      1.768361   121A      1.820828
     122A      1.822386   123A      1.834860   124A      1.859826
     125A      1.895410   126A      1.938158   127A      1.943898
     128A      1.961536   129A      1.981635   130A      1.988172
     131A      1.999348   132A      2.014406   133A      2.035335
     134A      2.039258   135A      2.054936   136A      2.063798
     137A      2.075514   138A      2.093868   139A      2.108459
     140A      2.119618   141A      2.127371   142A      2.156242
     143A      2.169705   144A      2.174784   145A      2.177903
     146A      2.185817   147A      2.212979   148A      2.227465
     149A      2.238108   150A      2.281135   151A      2.315024
     152A      2.333431   153A      2.379489   154A      2.390929
     155A      2.411322   156A      2.475964   157A      2.512701
     158A      2.525174   159A      2.540680   160A      2.567977
     161A      2.585692   162A      2.594753   163A      2.623912
     164A      2.653564   165A      2.658921   166A      2.678492
     167A      2.701540   168A      2.723574   169A      2.738999
     170A      2.783420   171A      2.785503   172A      2.844622
     173A      2.880785   174A      2.917785   175A      2.924244
     176A      2.967197   177A      2.982820   178A      3.001716
     179A      3.027887   180A      3.065775   181A      3.088082
     182A      3.096960   183A      3.150796   184A      3.207335
     185A      3.234040   186A      3.242387   187A      3.290767
     188A      3.300526   189A      3.362340   190A      3.393255
     191A      3.620367   192A      3.622684   193A      3.636458
     194A      3.788001   195A      3.827634   196A      3.980118
     197A      4.012058   198A      4.037438   199A      4.075914
     200A      4.195376

    Final Occupation by Irrep:
              A
    DOCC [    40 ]

  @RHF Final Energy:  -513.31297178157456

   => Energetics <=

    Nuclear Repulsion Energy =            521.6886916322353045
    One-Electron Energy =               -1750.0804397713404796
    Two-Electron Energy =                 715.0787763575306144
    Total Energy =                       -513.3129717815745607

Computation Completed

Properties will be evaluated at   0.000000,   0.000000,   0.000000 [a0]

Properties computed using the SCF density matrix

  Nuclear Dipole Moment: [e a0]
     X:    -8.1265      Y:   -11.5621      Z:    -0.2887

  Electronic Dipole Moment: [e a0]
     X:     5.6294      Y:     8.2670      Z:     2.6058

  Dipole Moment: [e a0]
     X:    -2.4971      Y:    -3.2951      Z:     2.3171     Total:     4.7394

  Dipole Moment: [D]
     X:    -6.3471      Y:    -8.3753      Z:     5.8894     Total:    12.0464

*** tstop() called on ds3 at Mon Apr 27 13:16:31 2020
Module time:
	user time   =      82.79 seconds =       1.38 minutes
	system time =      40.82 seconds =       0.68 minutes
	total time  =        118 seconds =       1.97 minutes
Total time:
	user time   =      82.79 seconds =       1.38 minutes
	system time =      40.82 seconds =       0.68 minutes
	total time  =        118 seconds =       1.97 minutes
                                     G D M A

                                 by Anthony Stone

                           version 2.2.06, 22 June 2011

               Distributed Multipoles from Gaussian wavefunctions

Starting at 13:16:31 on 27 Apr 2020

Using SCF density matrix from file ./SSI/SSI-065ASP-110GLN-1-dimer.test.5869.fchk

                         Distributed Multipole Analysis

Standard DMA

Positions and radii in angstrom
Multipole moments in atomic units, ea_0^k for rank k

C          x =  0.871879  y =  0.289070  z = -1.650958 angstrom
           Maximum rank =  0   Radius =  0.650 angstrom
                   Q00  =  -0.157014

C          x = -0.257121  y = -0.256930  z = -2.517958 angstrom
           Maximum rank =  0   Radius =  0.650 angstrom
                   Q00  =  -0.225222

C          x =  0.821879  y =  1.809070  z = -1.553958 angstrom
           Maximum rank =  0   Radius =  0.650 angstrom
                   Q00  =   1.027056

O          x = -0.043121  y =  2.423070  z = -2.227958 angstrom
           Maximum rank =  0   Radius =  0.650 angstrom
                   Q00  =  -0.968984

O          x =  1.650879  y =  2.369070  z = -0.793958 angstrom
           Maximum rank =  0   Radius =  0.650 angstrom
                   Q00  =  -0.943508

H          x =  0.780879  y = -0.125930  z = -0.648958 angstrom
           Maximum rank =  0   Radius =  0.325 angstrom
                   Q00  =   0.036475

H          x =  1.840879  y = -0.020930  z = -2.048958 angstrom
           Maximum rank =  0   Radius =  0.325 angstrom
                   Q00  =   0.055209

H          x = -1.197121  y =  0.097070  z = -2.086958 angstrom
           Maximum rank =  0   Radius =  0.325 angstrom
                   Q00  =   0.072823

H          x = -0.260140  y = -1.355760  z = -2.568518 angstrom
           Maximum rank =  0   Radius =  0.325 angstrom
                   Q00  =   0.011014

H          x = -0.176566  y =  0.138590  z = -3.541228 angstrom
           Maximum rank =  0   Radius =  0.325 angstrom
                   Q00  =   0.086607

C          x = -1.217121  y = -1.697930  z =  0.929042 angstrom
           Maximum rank =  0   Radius =  0.650 angstrom
                   Q00  =  -0.119568

C          x = -1.792121  y = -2.904930  z =  1.677042 angstrom
           Maximum rank =  0   Radius =  0.650 angstrom
                   Q00  =  -0.219311

C          x = -0.238121  y = -0.943930  z =  1.787042 angstrom
           Maximum rank =  0   Radius =  0.650 angstrom
                   Q00  =   0.840263

O          x =  0.747879  y = -1.515930  z =  2.240042 angstrom
           Maximum rank =  0   Radius =  0.650 angstrom
                   Q00  =  -0.820585

N          x = -0.514121  y =  0.322070  z =  2.054042 angstrom
           Maximum rank =  0   Radius =  0.650 angstrom
                   Q00  =  -0.520833

H          x = -0.690121  y = -2.049930  z =  0.046042 angstrom
           Maximum rank =  0   Radius =  0.325 angstrom
                   Q00  =   0.115506

H          x = -2.027121  y = -1.038930  z =  0.610042 angstrom
           Maximum rank =  0   Radius =  0.325 angstrom
                   Q00  =   0.045799

H          x = -2.307121  y = -2.556930  z =  2.574042 angstrom
           Maximum rank =  0   Radius =  0.325 angstrom
                   Q00  =   0.067090

H          x = -0.959121  y = -3.540930  z =  1.981042 angstrom
           Maximum rank =  0   Radius =  0.325 angstrom
                   Q00  =   0.102381

H          x =  0.097879  y =  0.816070  z =  2.691042 angstrom
           Maximum rank =  0   Radius =  0.325 angstrom
                   Q00  =   0.219006

H          x = -1.300121  y =  0.800070  z =  1.620042 angstrom
           Maximum rank =  0   Radius =  0.325 angstrom
                   Q00  =   0.221212

H          x = -2.484445  y = -3.511520  z =  1.074772 angstrom
           Maximum rank =  0   Radius =  0.325 angstrom
                   Q00  =   0.074583

Total multipoles referred to origin at
           x =   0.000000,  y =    0.000000,  z =    0.000000 angstrom
                   Q00  =  -1.000000

Finished at 13:16:31 on 27 Apr 2020

  DMA results are available in the Python driver through the
	  variable('DMA DISTRIBUTED MULTIPOLES')
  and
	  variable('DMA TOTAL MULTIPOLES')
  commands.

    Psi4 stopped on: Monday, 27 April 2020 01:16PM
    Psi4 wall time for execution: 0:01:58.24

*** Psi4 exiting successfully. Buy a developer a beer!
