                               Psi4 1.3.2 release

  ==> Input File <==

--------------------------------------------------------------------------
import numpy as np
set {scf_type pk
basis cc-pvdz
d_convergence 10
gdma_switch   0
gdma_limit    0
gdma_origin   [ 0.0,  0.0,  0.0 ]
}
molecule test {
    units Angstrom
    0 1
    --
    0 1
    C                0.938243457698834     0.778197184579621    -2.888570853990816
    C                1.763243457698834    -0.443802815420378    -3.305570853990816
    H               -0.108756542301166     0.657197184579621    -3.154570853990816
    H                0.994243457698834     0.895197184579621    -1.806570853990816
    H                1.333243457698834     1.679197184579622    -3.358570853990816
    H                1.278243457698834    -1.345802815420378    -2.938570853990815
    H                1.854533457698834    -0.499870815420378    -4.400340853990816
    H                2.778253457698833    -0.409407815420379    -2.883000853990816
    C               -1.359756542301166     2.244197184579622     2.471429146009184
    C               -1.116756542301166    -0.492802815420378    -0.202570853990816
    C                0.092243457698834    -1.107802815420379     0.100429146009184
    C               -1.552756542301166     0.598197184579621     0.534429146009184
    C               -0.806756542301166     1.102197184579621     1.596429146009184
    C                0.832243457698834    -0.653802815420379     1.198429146009184
    C                0.384243457698834     0.447197184579621     1.928429146009184
    O                0.417243457698834    -2.210802815420378    -0.626570853990816
    H               -1.714756542301166    -0.873802815420378    -1.015570853990816
    H               -2.500756542301166     1.057197184579622     0.282429146009184
    H                1.755243457698834    -1.146802815420378     1.455429146009184
    H                1.157243457698834    -2.674802815420378    -0.180570853990816
    H               -1.685756542301166     1.799197184579622     3.410429146009184
    H               -2.237756542301166     2.658197184579622     1.984429146009184
    H                0.965243457698834     0.808197184579621     2.763429146009184
    H               -0.657656542301166     3.052157184579622     2.724909146009185

}
e, wfn = energy('scf', return_wfn=True)
gdma(wfn)
dmavals = variable('DMA DISTRIBUTED MULTIPOLES')
charges = np.array(dmavals)
print(charges)
np.save('SSI-176LEU-204TYR-1-dimer.npy', np.array(charges))--------------------------------------------------------------------------

*** tstart() called on ds3
*** at Tue Apr 28 08:53:38 2020

   => Loading Basis Set <=

    Name: CC-PVDZ
    Role: ORBITAL
    Keyword: BASIS
    atoms 1-2, 9-15  entry C          line   138 file /theoryfs2/ds/metcalf/miniconda2/envs/tf2gpu/share/psi4/basis/cc-pvdz.gbs
    atoms 3-8, 17-24 entry H          line    22 file /theoryfs2/ds/metcalf/miniconda2/envs/tf2gpu/share/psi4/basis/cc-pvdz.gbs
    atoms 16         entry O          line   198 file /theoryfs2/ds/metcalf/miniconda2/envs/tf2gpu/share/psi4/basis/cc-pvdz.gbs

         ---------------------------------------------------------
                                   SCF
               by Justin Turney, Rob Parrish, Andy Simmonett
                          and Daniel G. A. Smith
                              RHF Reference
                        1 Threads,    500 MiB Core
         ---------------------------------------------------------

  ==> Geometry <==

    Molecular point group: c1
    Full point group: C1

    Geometry (in Angstrom), charge = 0, multiplicity = 1:

       Center              X                  Y                   Z               Mass
    ------------   -----------------  -----------------  -----------------  -----------------
         C            0.938243457699     0.778197184580    -2.888570853991    12.000000000000
         C            1.763243457699    -0.443802815420    -3.305570853991    12.000000000000
         H           -0.108756542301     0.657197184580    -3.154570853991     1.007825032230
         H            0.994243457699     0.895197184580    -1.806570853991     1.007825032230
         H            1.333243457699     1.679197184580    -3.358570853991     1.007825032230
         H            1.278243457699    -1.345802815420    -2.938570853991     1.007825032230
         H            1.854533457699    -0.499870815420    -4.400340853991     1.007825032230
         H            2.778253457699    -0.409407815420    -2.883000853991     1.007825032230
         C           -1.359756542301     2.244197184580     2.471429146009    12.000000000000
         C           -1.116756542301    -0.492802815420    -0.202570853991    12.000000000000
         C            0.092243457699    -1.107802815420     0.100429146009    12.000000000000
         C           -1.552756542301     0.598197184580     0.534429146009    12.000000000000
         C           -0.806756542301     1.102197184580     1.596429146009    12.000000000000
         C            0.832243457699    -0.653802815420     1.198429146009    12.000000000000
         C            0.384243457699     0.447197184580     1.928429146009    12.000000000000
         O            0.417243457699    -2.210802815420    -0.626570853991    15.994914619570
         H           -1.714756542301    -0.873802815420    -1.015570853991     1.007825032230
         H           -2.500756542301     1.057197184580     0.282429146009     1.007825032230
         H            1.755243457699    -1.146802815420     1.455429146009     1.007825032230
         H            1.157243457699    -2.674802815420    -0.180570853991     1.007825032230
         H           -1.685756542301     1.799197184580     3.410429146009     1.007825032230
         H           -2.237756542301     2.658197184580     1.984429146009     1.007825032230
         H            0.965243457699     0.808197184580     2.763429146009     1.007825032230
         H           -0.657656542301     3.052157184580     2.724909146009     1.007825032230

  Running in c1 symmetry.

  Rotational constants: A =      0.06312  B =      0.02335  C =      0.02050 [cm^-1]
  Rotational constants: A =   1892.23411  B =    699.95675  C =    614.64399 [MHz]
  Nuclear repulsion =  505.313235419962325

  Charge       = 0
  Multiplicity = 1
  Electrons    = 76
  Nalpha       = 38
  Nbeta        = 38

  ==> Algorithm <==

  SCF Algorithm Type is PK.
  DIIS enabled.
  MOM disabled.
  Fractional occupation disabled.
  Guess Type is SAD.
  Energy threshold   = 1.00e-06
  Density threshold  = 1.00e-10
  Integral threshold = 0.00e+00

  ==> Primary Basis <==

  Basis Set: CC-PVDZ
    Blend: CC-PVDZ
    Number of shells: 102
    Number of basis function: 210
    Number of Cartesian functions: 220
    Spherical Harmonics?: true
    Max angular momentum: 2

  ==> Pre-Iterations <==

   -------------------------------------------------------
    Irrep   Nso     Nmo     Nalpha   Nbeta   Ndocc  Nsocc
   -------------------------------------------------------
     A        210     210       0       0       0       0
   -------------------------------------------------------
    Total     210     210      38      38      38       0
   -------------------------------------------------------

  ==> Integral Setup <==

  Using integral reordering PK algorithm.
  Sizing the integral batches needed.
  Building batch lookup table.
   Calculation information:
      Number of atoms:                  24
      Number of AO shells:             102
      Number of primitives:            290
      Number of atomic orbitals:       220
      Number of basis functions:       210

      Integral cutoff                 1.00e-12
      Number of threads:                 1

	Batch   1 pq = [       0,    9405] index = [             0,44231715] size =     44231715
	Batch   2 pq = [    9405,   13301] index = [      44231715,88464951] size =     44233236
	Batch   3 pq = [   13301,   16290] index = [      88464951,132690195] size =     44225244
	Batch   4 pq = [   16290,   18810] index = [     132690195,176917455] size =     44227260
	Batch   5 pq = [   18810,   21030] index = [     176917455,221140965] size =     44223510
	Batch   6 pq = [   21030,   22155] index = [     221140965,245433090] size =     24292125
  Task number: 23
  Buffer size: 11059200
  Buffer per thread: 2
  We computed 12501713 shell quartets total.
  Whereas there are 13799631 unique shell quartets.

  ==> DiskJK: Disk-Based J/K Matrices <==

    J tasked:                  Yes
    K tasked:                  Yes
    wK tasked:                  No
    Memory [MiB]:              375
    Schwarz Cutoff:          1E-12

    OpenMP threads:              1

  Minimum eigenvalue in the overlap matrix is 3.2110362982E-04.
  Using Symmetric Orthogonalization.

  SCF Guess: Superposition of Atomic Densities via on-the-fly atomic UHF.

  ==> Iterations <==

                        Total Energy        Delta E     RMS |[F,P]|

   @RHF iter SAD:  -422.61912123122261   -4.22619e+02   0.00000e+00
   @RHF iter   1:  -423.60087294362836   -9.81752e-01   2.96649e-03 DIIS
   @RHF iter   2:  -423.81651681576506   -2.15644e-01   1.25320e-03 DIIS
   @RHF iter   3:  -423.85121027818343   -3.46935e-02   2.78537e-04 DIIS
   @RHF iter   4:  -423.85404361333980   -2.83334e-03   1.11216e-04 DIIS
   @RHF iter   5:  -423.85435893401473   -3.15321e-04   2.11602e-05 DIIS
   @RHF iter   6:  -423.85437687111727   -1.79371e-05   6.56615e-06 DIIS
   @RHF iter   7:  -423.85437854091208   -1.66979e-06   2.11319e-06 DIIS
   @RHF iter   8:  -423.85437875676570   -2.15854e-07   7.78478e-07 DIIS
   @RHF iter   9:  -423.85437878589062   -2.91249e-08   2.66723e-07 DIIS
   @RHF iter  10:  -423.85437878997607   -4.08545e-09   9.42149e-08 DIIS
   @RHF iter  11:  -423.85437879082843   -8.52367e-10   4.40550e-08 DIIS
   @RHF iter  12:  -423.85437879104722   -2.18790e-10   2.40164e-08 DIIS
   @RHF iter  13:  -423.85437879111282   -6.55973e-11   8.48865e-09 DIIS
   @RHF iter  14:  -423.85437879112249   -9.66338e-12   2.38496e-09 DIIS
   @RHF iter  15:  -423.85437879112010    2.38742e-12   7.78733e-10 DIIS
   @RHF iter  16:  -423.85437879112055   -4.54747e-13   2.64357e-10 DIIS
   @RHF iter  17:  -423.85437879111998    5.68434e-13   1.13335e-10 DIIS
   @RHF iter  18:  -423.85437879112260   -2.61480e-12   5.76607e-11 DIIS
  Energy and wave function converged.

  ==> Post-Iterations <==

    Orbital Energies [Eh]
    ---------------------

    Doubly Occupied:

       1A    -20.591430     2A    -11.299790     3A    -11.241482
       4A    -11.238311     5A    -11.237688     6A    -11.236982
       7A    -11.231805     8A    -11.227684     9A    -11.205699
      10A    -11.203449    11A     -1.403440    12A     -1.150157
      13A     -1.033255    14A     -1.018513    15A     -1.003702
      16A     -0.927030    17A     -0.845598    18A     -0.825734
      19A     -0.802054    20A     -0.729448    21A     -0.669151
      22A     -0.640996    23A     -0.609760    24A     -0.598631
      25A     -0.586825    26A     -0.581899    27A     -0.574726
      28A     -0.571141    29A     -0.565081    30A     -0.533218
      31A     -0.495954    32A     -0.490044    33A     -0.485871
      34A     -0.479088    35A     -0.471232    36A     -0.462325
      37A     -0.339669    38A     -0.302899

    Virtual:

      39A      0.129780    40A      0.153085    41A      0.171652
      42A      0.185259    43A      0.201778    44A      0.215389
      45A      0.222505    46A      0.245808    47A      0.257342
      48A      0.265378    49A      0.266695    50A      0.273413
      51A      0.288254    52A      0.293978    53A      0.311401
      54A      0.321721    55A      0.365143    56A      0.374149
      57A      0.408990    58A      0.426588    59A      0.450497
      60A      0.487897    61A      0.492734    62A      0.506610
      63A      0.588367    64A      0.596224    65A      0.605542
      66A      0.620013    67A      0.625116    68A      0.652174
      69A      0.658865    70A      0.673178    71A      0.689365
      72A      0.690949    73A      0.707783    74A      0.726579
      75A      0.731296    76A      0.738777    77A      0.760743
      78A      0.772574    79A      0.790282    80A      0.793411
      81A      0.820575    82A      0.848527    83A      0.856224
      84A      0.860110    85A      0.865636    86A      0.872396
      87A      0.880614    88A      0.883086    89A      0.893809
      90A      0.903918    91A      0.915938    92A      0.919882
      93A      0.932750    94A      0.934956    95A      0.948984
      96A      0.955662    97A      0.968798    98A      0.992922
      99A      1.001089   100A      1.037138   101A      1.042964
     102A      1.066593   103A      1.119977   104A      1.127511
     105A      1.137939   106A      1.149597   107A      1.158927
     108A      1.172241   109A      1.207952   110A      1.236340
     111A      1.242130   112A      1.251432   113A      1.267240
     114A      1.274642   115A      1.300752   116A      1.309630
     117A      1.327694   118A      1.356161   119A      1.360445
     120A      1.387056   121A      1.474229   122A      1.488557
     123A      1.496053   124A      1.501972   125A      1.516374
     126A      1.560126   127A      1.583124   128A      1.617706
     129A      1.627889   130A      1.667989   131A      1.694232
     132A      1.707606   133A      1.729626   134A      1.735330
     135A      1.751411   136A      1.784032   137A      1.802272
     138A      1.826548   139A      1.868575   140A      1.873927
     141A      1.881637   142A      1.890846   143A      1.896318
     144A      1.909721   145A      1.915575   146A      1.922759
     147A      1.934882   148A      1.937739   149A      1.949960
     150A      1.954862   151A      1.958425   152A      1.970268
     153A      1.973368   154A      1.978934   155A      1.989565
     156A      2.008097   157A      2.021990   158A      2.044592
     159A      2.063115   160A      2.074285   161A      2.082439
     162A      2.113713   163A      2.126556   164A      2.134421
     165A      2.150827   166A      2.178268   167A      2.192576
     168A      2.211177   169A      2.251822   170A      2.275036
     171A      2.303921   172A      2.325972   173A      2.332908
     174A      2.355607   175A      2.374829   176A      2.387542
     177A      2.426269   178A      2.467285   179A      2.473964
     180A      2.475233   181A      2.476831   182A      2.527993
     183A      2.554567   184A      2.590470   185A      2.603542
     186A      2.618057   187A      2.626866   188A      2.737445
     189A      2.766307   190A      2.779891   191A      2.790486
     192A      2.809476   193A      2.812027   194A      2.841115
     195A      2.873043   196A      2.885328   197A      2.893551
     198A      2.957342   199A      2.974282   200A      2.993433
     201A      3.016054   202A      3.078993   203A      3.115343
     204A      3.261076   205A      3.288914   206A      3.333978
     207A      3.579510   208A      3.693668   209A      3.910686
     210A      4.171292

    Final Occupation by Irrep:
              A
    DOCC [    38 ]

  @RHF Final Energy:  -423.85437879112260

   => Energetics <=

    Nuclear Repulsion Energy =            505.3132354199623251
    One-Electron Energy =               -1576.5117104210394245
    Two-Electron Energy =                 647.3440962099543867
    Total Energy =                       -423.8543787911225991

Computation Completed

Properties will be evaluated at   0.000000,   0.000000,   0.000000 [a0]

Properties computed using the SCF density matrix

  Nuclear Dipole Moment: [e a0]
     X:     3.0120      Y:     5.2917      Z:    -6.6747

  Electronic Dipole Moment: [e a0]
     X:    -2.7758      Y:    -5.3237      Z:     7.3130

  Dipole Moment: [e a0]
     X:     0.2363      Y:    -0.0320      Z:     0.6383     Total:     0.6813

  Dipole Moment: [D]
     X:     0.6005      Y:    -0.0813      Z:     1.6223     Total:     1.7318

*** tstop() called on ds3 at Tue Apr 28 08:56:00 2020
Module time:
	user time   =     103.94 seconds =       1.73 minutes
	system time =      44.22 seconds =       0.74 minutes
	total time  =        142 seconds =       2.37 minutes
Total time:
	user time   =     103.94 seconds =       1.73 minutes
	system time =      44.22 seconds =       0.74 minutes
	total time  =        142 seconds =       2.37 minutes
                                     G D M A

                                 by Anthony Stone

                           version 2.2.06, 22 June 2011

               Distributed Multipoles from Gaussian wavefunctions

Starting at 8:56:0 on 28 Apr 2020

Using SCF density matrix from file ./SSI/SSI-176LEU-204TYR-1-dimer.test.20049.fchk

                         Distributed Multipole Analysis

Standard DMA

Positions and radii in angstrom
Multipole moments in atomic units, ea_0^k for rank k

C          x =  0.938243  y =  0.778197  z = -2.888571 angstrom
           Maximum rank =  0   Radius =  0.650 angstrom
                   Q00  =  -0.232872

C          x =  1.763243  y = -0.443803  z = -3.305571 angstrom
           Maximum rank =  0   Radius =  0.650 angstrom
                   Q00  =  -0.243087

H          x = -0.108757  y =  0.657197  z = -3.154571 angstrom
           Maximum rank =  0   Radius =  0.325 angstrom
                   Q00  =   0.077592

H          x =  0.994243  y =  0.895197  z = -1.806571 angstrom
           Maximum rank =  0   Radius =  0.325 angstrom
                   Q00  =   0.087576

H          x =  1.333243  y =  1.679197  z = -3.358571 angstrom
           Maximum rank =  0   Radius =  0.325 angstrom
                   Q00  =   0.071366

H          x =  1.278243  y = -1.345803  z = -2.938571 angstrom
           Maximum rank =  0   Radius =  0.325 angstrom
                   Q00  =   0.090575

H          x =  1.854533  y = -0.499871  z = -4.400341 angstrom
           Maximum rank =  0   Radius =  0.325 angstrom
                   Q00  =   0.070026

H          x =  2.778253  y = -0.409408  z = -2.883001 angstrom
           Maximum rank =  0   Radius =  0.325 angstrom
                   Q00  =   0.069952

C          x = -1.359757  y =  2.244197  z =  2.471429 angstrom
           Maximum rank =  0   Radius =  0.650 angstrom
                   Q00  =  -0.210055

C          x = -1.116757  y = -0.492803  z = -0.202571 angstrom
           Maximum rank =  0   Radius =  0.650 angstrom
                   Q00  =  -0.088315

C          x =  0.092243  y = -1.107803  z =  0.100429 angstrom
           Maximum rank =  0   Radius =  0.650 angstrom
                   Q00  =   0.287537

C          x = -1.552757  y =  0.598197  z =  0.534429 angstrom
           Maximum rank =  0   Radius =  0.650 angstrom
                   Q00  =   0.026914

C          x = -0.806757  y =  1.102197  z =  1.596429 angstrom
           Maximum rank =  0   Radius =  0.650 angstrom
                   Q00  =  -0.133793

C          x =  0.832243  y = -0.653803  z =  1.198429 angstrom
           Maximum rank =  0   Radius =  0.650 angstrom
                   Q00  =  -0.189823

C          x =  0.384243  y =  0.447197  z =  1.928429 angstrom
           Maximum rank =  0   Radius =  0.650 angstrom
                   Q00  =  -0.023712

O          x =  0.417243  y = -2.210803  z = -0.626571 angstrom
           Maximum rank =  0   Radius =  0.650 angstrom
                   Q00  =  -0.653012

H          x = -1.714757  y = -0.873803  z = -1.015571 angstrom
           Maximum rank =  0   Radius =  0.325 angstrom
                   Q00  =   0.079682

H          x = -2.500757  y =  1.057197  z =  0.282429 angstrom
           Maximum rank =  0   Radius =  0.325 angstrom
                   Q00  =   0.063528

H          x =  1.755243  y = -1.146803  z =  1.455429 angstrom
           Maximum rank =  0   Radius =  0.325 angstrom
                   Q00  =   0.074456

H          x =  1.157243  y = -2.674803  z = -0.180571 angstrom
           Maximum rank =  0   Radius =  0.325 angstrom
                   Q00  =   0.407257

H          x = -1.685757  y =  1.799197  z =  3.410429 angstrom
           Maximum rank =  0   Radius =  0.325 angstrom
                   Q00  =   0.099200

H          x = -2.237757  y =  2.658197  z =  1.984429 angstrom
           Maximum rank =  0   Radius =  0.325 angstrom
                   Q00  =   0.099948

H          x =  0.965243  y =  0.808197  z =  2.763429 angstrom
           Maximum rank =  0   Radius =  0.325 angstrom
                   Q00  =   0.067378

H          x = -0.657657  y =  3.052157  z =  2.724909 angstrom
           Maximum rank =  0   Radius =  0.325 angstrom
                   Q00  =   0.101682

Total multipoles referred to origin at
           x =   0.000000,  y =    0.000000,  z =    0.000000 angstrom
                   Q00  =  -0.000000

Finished at 8:56:0 on 28 Apr 2020

  DMA results are available in the Python driver through the
	  variable('DMA DISTRIBUTED MULTIPOLES')
  and
	  variable('DMA TOTAL MULTIPOLES')
  commands.

    Psi4 stopped on: Tuesday, 28 April 2020 08:56AM
    Psi4 wall time for execution: 0:02:22.42

*** Psi4 exiting successfully. Buy a developer a beer!
