                               Psi4 1.3.2 release

  ==> Input File <==

--------------------------------------------------------------------------
import numpy as np
set {scf_type pk
basis cc-pvdz
d_convergence 10
gdma_switch   0
gdma_limit    0
gdma_origin   [ 0.0,  0.0,  0.0 ]
}
molecule test {
    units Angstrom
    0 1
    --
    0 1
    C               -1.409553161149474     1.006015915992754     0.168542589775612
    C               -2.575553161149474     1.987015915992754     0.361542589775612
    H               -0.457553161149474     1.538015915992754     0.178542589775612
    H               -1.410553161149474     0.268015915992754     0.968542589775612
    H               -1.513553161149474     0.476015915992754    -0.781457410224388
    H               -2.367553161149474     2.602015915992754     1.233542589775612
    H               -2.648333161149474     2.613515915992754    -0.539677410224388
    H               -3.516399161149474     1.444115915992754     0.534932589775612
    C                1.455446838850526    -1.318984084007246    -0.781457410224388
    C                2.524446838850526    -1.667984084007246     0.254542589775612
    H                0.795446838850526    -0.546984084007246    -0.391457410224388
    H                1.934446838850526    -0.952984084007246    -1.690457410224388
    H                0.872446838850526    -2.207984084007246    -1.029457410224388
    H                3.187446838850526    -2.398984084007246    -0.201457410224388
    H                2.063756838850526    -2.118684084007246     1.145962589775612
    H                3.122466838850526    -0.788274084007246     0.534692589775612

}
e, wfn = energy('scf', return_wfn=True)
gdma(wfn)
dmavals = variable('DMA DISTRIBUTED MULTIPOLES')
charges = np.array(dmavals)
print(charges)
np.save('SSI-027VAL-090THR-1-dimer.npy', np.array(charges))--------------------------------------------------------------------------

*** tstart() called on ds3
*** at Mon Apr 27 10:10:35 2020

   => Loading Basis Set <=

    Name: CC-PVDZ
    Role: ORBITAL
    Keyword: BASIS
    atoms 1-2, 9-10  entry C          line   138 file /theoryfs2/ds/metcalf/miniconda2/envs/tf2gpu/share/psi4/basis/cc-pvdz.gbs
    atoms 3-8, 11-16 entry H          line    22 file /theoryfs2/ds/metcalf/miniconda2/envs/tf2gpu/share/psi4/basis/cc-pvdz.gbs

         ---------------------------------------------------------
                                   SCF
               by Justin Turney, Rob Parrish, Andy Simmonett
                          and Daniel G. A. Smith
                              RHF Reference
                        1 Threads,    500 MiB Core
         ---------------------------------------------------------

  ==> Geometry <==

    Molecular point group: c1
    Full point group: C1

    Geometry (in Angstrom), charge = 0, multiplicity = 1:

       Center              X                  Y                   Z               Mass
    ------------   -----------------  -----------------  -----------------  -----------------
         C           -1.409553161149     1.006015915993     0.168542589776    12.000000000000
         C           -2.575553161149     1.987015915993     0.361542589776    12.000000000000
         H           -0.457553161149     1.538015915993     0.178542589776     1.007825032230
         H           -1.410553161149     0.268015915993     0.968542589776     1.007825032230
         H           -1.513553161149     0.476015915993    -0.781457410224     1.007825032230
         H           -2.367553161149     2.602015915993     1.233542589776     1.007825032230
         H           -2.648333161149     2.613515915993    -0.539677410224     1.007825032230
         H           -3.516399161149     1.444115915993     0.534932589776     1.007825032230
         C            1.455446838851    -1.318984084007    -0.781457410224    12.000000000000
         C            2.524446838851    -1.667984084007     0.254542589776    12.000000000000
         H            0.795446838851    -0.546984084007    -0.391457410224     1.007825032230
         H            1.934446838851    -0.952984084007    -1.690457410224     1.007825032230
         H            0.872446838851    -2.207984084007    -1.029457410224     1.007825032230
         H            3.187446838851    -2.398984084007    -0.201457410224     1.007825032230
         H            2.063756838851    -2.118684084007     1.145962589776     1.007825032230
         H            3.122466838851    -0.788274084007     0.534692589776     1.007825032230

  Running in c1 symmetry.

  Rotational constants: A =      0.69745  B =      0.04055  C =      0.03949 [cm^-1]
  Rotational constants: A =  20909.03195  B =   1215.64629  C =   1183.74613 [MHz]
  Nuclear repulsion =  119.713330256915057

  Charge       = 0
  Multiplicity = 1
  Electrons    = 36
  Nalpha       = 18
  Nbeta        = 18

  ==> Algorithm <==

  SCF Algorithm Type is PK.
  DIIS enabled.
  MOM disabled.
  Fractional occupation disabled.
  Guess Type is SAD.
  Energy threshold   = 1.00e-06
  Density threshold  = 1.00e-10
  Integral threshold = 0.00e+00

  ==> Primary Basis <==

  Basis Set: CC-PVDZ
    Blend: CC-PVDZ
    Number of shells: 60
    Number of basis function: 116
    Number of Cartesian functions: 120
    Spherical Harmonics?: true
    Max angular momentum: 2

  ==> Pre-Iterations <==

   -------------------------------------------------------
    Irrep   Nso     Nmo     Nalpha   Nbeta   Ndocc  Nsocc
   -------------------------------------------------------
     A        116     116       0       0       0       0
   -------------------------------------------------------
    Total     116     116      18      18      18       0
   -------------------------------------------------------

  ==> Integral Setup <==

  Using integral reordering PK algorithm.
  Sizing the integral batches needed.
  Building batch lookup table.
   Calculation information:
      Number of atoms:                  16
      Number of AO shells:              60
      Number of primitives:            148
      Number of atomic orbitals:       120
      Number of basis functions:       116

      Integral cutoff                 1.00e-12
      Number of threads:                 1

	Batch   1 pq = [       0,    6786] index = [             0,23028291] size =     23028291
  Task number: 3
  Buffer size: 11059200
  Buffer per thread: 2
  We computed 1342863 shell quartets total.
  Whereas there are 1675365 unique shell quartets.

  ==> DiskJK: Disk-Based J/K Matrices <==

    J tasked:                  Yes
    K tasked:                  Yes
    wK tasked:                  No
    Memory [MiB]:              375
    Schwarz Cutoff:          1E-12

    OpenMP threads:              1

  Minimum eigenvalue in the overlap matrix is 5.4318782716E-03.
  Using Symmetric Orthogonalization.

  SCF Guess: Superposition of Atomic Densities via on-the-fly atomic UHF.

  ==> Iterations <==

                        Total Energy        Delta E     RMS |[F,P]|

   @RHF iter SAD:  -157.33986139992112   -1.57340e+02   0.00000e+00
   @RHF iter   1:  -158.30835144433050   -9.68490e-01   4.19892e-03 DIIS
   @RHF iter   2:  -158.44109472953019   -1.32743e-01   1.78339e-03 DIIS
   @RHF iter   3:  -158.46422337614953   -2.31286e-02   3.49907e-04 DIIS
   @RHF iter   4:  -158.46606229155782   -1.83892e-03   3.93300e-05 DIIS
   @RHF iter   5:  -158.46608698344400   -2.46919e-05   6.83858e-06 DIIS
   @RHF iter   6:  -158.46608767817870   -6.94735e-07   1.19217e-06 DIIS
   @RHF iter   7:  -158.46608769263759   -1.44589e-08   3.43564e-07 DIIS
   @RHF iter   8:  -158.46608769377872   -1.14113e-09   5.07926e-08 DIIS
   @RHF iter   9:  -158.46608769382649   -4.77769e-11   1.06848e-08 DIIS
   @RHF iter  10:  -158.46608769382860   -2.10321e-12   2.64966e-09 DIIS
   @RHF iter  11:  -158.46608769382829    3.12639e-13   5.49038e-10 DIIS
   @RHF iter  12:  -158.46608769382874   -4.54747e-13   1.73262e-10 DIIS
   @RHF iter  13:  -158.46608769382851    2.27374e-13   3.62660e-11 DIIS
  Energy and wave function converged.

  ==> Post-Iterations <==

    Orbital Energies [Eh]
    ---------------------

    Doubly Occupied:

       1A    -11.220128     2A    -11.217812     3A    -11.217755
       4A    -11.214592     5A     -1.018154     6A     -1.016088
       7A     -0.839511     8A     -0.833102     9A     -0.599366
      10A     -0.598130    11A     -0.597143    12A     -0.595890
      13A     -0.503297    14A     -0.497620    15A     -0.487339
      16A     -0.486776    17A     -0.484963    18A     -0.478773

    Virtual:

      19A      0.176695    20A      0.192831    21A      0.227153
      22A      0.241688    23A      0.243805    24A      0.257400
      25A      0.260376    26A      0.276319    27A      0.279723
      28A      0.287202    29A      0.299293    30A      0.326427
      31A      0.397846    32A      0.425230    33A      0.590896
      34A      0.590916    35A      0.601231    36A      0.603653
      37A      0.610355    38A      0.647391    39A      0.672979
      40A      0.683749    41A      0.713816    42A      0.736580
      43A      0.844487    44A      0.884812    45A      0.886182
      46A      0.891833    47A      0.893525    48A      0.894478
      49A      0.900583    50A      0.909425    51A      0.912752
      52A      0.916553    53A      0.935140    54A      0.950133
      55A      0.960733    56A      1.056617    57A      1.118908
      58A      1.124573    59A      1.127915    60A      1.132156
      61A      1.223516    62A      1.319832    63A      1.471415
      64A      1.473047    65A      1.480357    66A      1.491659
      67A      1.575966    68A      1.600126    69A      1.676799
      70A      1.682346    71A      1.692997    72A      1.695734
      73A      1.846418    74A      1.852147    75A      1.871384
      76A      1.876726    77A      1.892209    78A      1.921657
      79A      1.933097    80A      1.938430    81A      1.943068
      82A      1.944238    83A      1.947826    84A      1.948939
      85A      1.954531    86A      1.961137    87A      1.973936
      88A      2.055794    89A      2.101113    90A      2.110588
      91A      2.126427    92A      2.130445    93A      2.295658
      94A      2.299824    95A      2.311784    96A      2.351737
      97A      2.443557    98A      2.453304    99A      2.461202
     100A      2.469400   101A      2.555612   102A      2.562206
     103A      2.579799   104A      2.590126   105A      2.753841
     106A      2.766632   107A      2.777192   108A      2.819071
     109A      2.839114   110A      2.842978   111A      2.853739
     112A      2.859570   113A      2.935019   114A      2.946974
     115A      2.951844   116A      2.987185

    Final Occupation by Irrep:
              A
    DOCC [    18 ]

  @RHF Final Energy:  -158.46608769382851

   => Energetics <=

    Nuclear Repulsion Energy =            119.7133302569150572
    One-Electron Energy =                -448.5459558800899913
    Two-Electron Energy =                 170.3665379293464071
    Total Energy =                       -158.4660876938285128

Computation Completed

Properties will be evaluated at   0.000000,   0.000000,   0.000000 [a0]

Properties computed using the SCF density matrix

  Nuclear Dipole Moment: [e a0]
     X:     0.0582      Y:    -0.0677      Z:    -0.0354

  Electronic Dipole Moment: [e a0]
     X:    -0.0725      Y:     0.0764      Z:     0.0339

  Dipole Moment: [e a0]
     X:    -0.0143      Y:     0.0087      Z:    -0.0015     Total:     0.0168

  Dipole Moment: [D]
     X:    -0.0363      Y:     0.0222      Z:    -0.0038     Total:     0.0428

*** tstop() called on ds3 at Mon Apr 27 10:10:53 2020
Module time:
	user time   =       6.80 seconds =       0.11 minutes
	system time =       2.73 seconds =       0.05 minutes
	total time  =         18 seconds =       0.30 minutes
Total time:
	user time   =       6.80 seconds =       0.11 minutes
	system time =       2.73 seconds =       0.05 minutes
	total time  =         18 seconds =       0.30 minutes
                                     G D M A

                                 by Anthony Stone

                           version 2.2.06, 22 June 2011

               Distributed Multipoles from Gaussian wavefunctions

Starting at 10:10:53 on 27 Apr 2020

Using SCF density matrix from file ./SSI/SSI-027VAL-090THR-1-dimer.test.2407.fchk

                         Distributed Multipole Analysis

Standard DMA

Positions and radii in angstrom
Multipole moments in atomic units, ea_0^k for rank k

C          x = -1.409553  y =  1.006016  z =  0.168543 angstrom
           Maximum rank =  0   Radius =  0.650 angstrom
                   Q00  =  -0.251274

C          x = -2.575553  y =  1.987016  z =  0.361543 angstrom
           Maximum rank =  0   Radius =  0.650 angstrom
                   Q00  =  -0.226419

H          x = -0.457553  y =  1.538016  z =  0.178543 angstrom
           Maximum rank =  0   Radius =  0.325 angstrom
                   Q00  =   0.077611

H          x = -1.410553  y =  0.268016  z =  0.968543 angstrom
           Maximum rank =  0   Radius =  0.325 angstrom
                   Q00  =   0.078095

H          x = -1.513553  y =  0.476016  z = -0.781457 angstrom
           Maximum rank =  0   Radius =  0.325 angstrom
                   Q00  =   0.079136

H          x = -2.367553  y =  2.602016  z =  1.233543 angstrom
           Maximum rank =  0   Radius =  0.325 angstrom
                   Q00  =   0.081772

H          x = -2.648333  y =  2.613516  z = -0.539677 angstrom
           Maximum rank =  0   Radius =  0.325 angstrom
                   Q00  =   0.080311

H          x = -3.516399  y =  1.444116  z =  0.534933 angstrom
           Maximum rank =  0   Radius =  0.325 angstrom
                   Q00  =   0.082263

C          x =  1.455447  y = -1.318984  z = -0.781457 angstrom
           Maximum rank =  0   Radius =  0.650 angstrom
                   Q00  =  -0.239718

C          x =  2.524447  y = -1.667984  z =  0.254543 angstrom
           Maximum rank =  0   Radius =  0.650 angstrom
                   Q00  =  -0.237967

H          x =  0.795447  y = -0.546984  z = -0.391457 angstrom
           Maximum rank =  0   Radius =  0.325 angstrom
                   Q00  =   0.086880

H          x =  1.934447  y = -0.952984  z = -1.690457 angstrom
           Maximum rank =  0   Radius =  0.325 angstrom
                   Q00  =   0.076920

H          x =  0.872447  y = -2.207984  z = -1.029457 angstrom
           Maximum rank =  0   Radius =  0.325 angstrom
                   Q00  =   0.078361

H          x =  3.187447  y = -2.398984  z = -0.201457 angstrom
           Maximum rank =  0   Radius =  0.325 angstrom
                   Q00  =   0.076361

H          x =  2.063757  y = -2.118684  z =  1.145963 angstrom
           Maximum rank =  0   Radius =  0.325 angstrom
                   Q00  =   0.078245

H          x =  3.122467  y = -0.788274  z =  0.534693 angstrom
           Maximum rank =  0   Radius =  0.325 angstrom
                   Q00  =   0.079423

Total multipoles referred to origin at
           x =   0.000000,  y =    0.000000,  z =    0.000000 angstrom
                   Q00  =  -0.000000

Finished at 10:10:53 on 27 Apr 2020

  DMA results are available in the Python driver through the
	  variable('DMA DISTRIBUTED MULTIPOLES')
  and
	  variable('DMA TOTAL MULTIPOLES')
  commands.

    Psi4 stopped on: Monday, 27 April 2020 10:10AM
    Psi4 wall time for execution: 0:00:17.40

*** Psi4 exiting successfully. Buy a developer a beer!
