                               Psi4 1.3.2 release

  ==> Input File <==

--------------------------------------------------------------------------
import numpy as np
set {scf_type pk
basis cc-pvdz
d_convergence 10
gdma_switch   0
gdma_limit    0
gdma_origin   [ 0.0,  0.0,  0.0 ]
}
molecule test {
    units Angstrom
    0 1
    --
    0 1
    C               -1.208645308136851    -2.847498948272061    -1.579188565486012
    C                0.631354691863149    -0.665498948272061     0.658811434513988
    C               -0.751645308136851    -1.923498948272061    -0.497188565486012
    C               -1.412645308136851    -1.477498948272062     0.600811434513988
    N                0.525354691863149    -1.401498948272062    -0.442188565486012
    N               -0.527645308136851    -0.691498948272061     1.306811434513988
    H                1.539354691863149    -0.193498948272062     1.012811434513988
    H               -0.680645308136851    -0.278498948272062     2.218811434513988
    H               -2.428645308136851    -1.729498948272062     0.877811434513988
    H               -1.762645308136851    -3.664498948272062    -1.131188565486012
    H               -0.312645308136851    -3.269498948272062    -2.034188565486012
    H               -1.818125308136851    -2.378168948272062    -2.365478565486012
    C                0.282354691863149     2.845501051727938    -0.144188565486012
    C                1.332354691863149     2.156501051727938    -1.006188565486012
    C                0.953354691863149     3.435501051727938     1.081811434513988
    H               -0.220645308136851     3.627501051727939    -0.710188565486012
    H               -0.467645308136851     2.118501051727938     0.173811434513988
    H                1.877354691863149     1.431501051727938    -0.404188565486012
    H                2.060354691863149     2.902501051727938    -1.336188565486012
    H                1.268354691863149     2.615501051727939     1.731811434513988
    H                1.835354691863149     3.990501051727939     0.752811434513988
    H                0.918054691863149     1.648531051727938    -1.889548565486012
    H                0.290034691863149     4.119831051727938     1.631081434513988

}
e, wfn = energy('scf', return_wfn=True)
gdma(wfn)
dmavals = variable('DMA DISTRIBUTED MULTIPOLES')
charges = np.array(dmavals)
print(charges)
np.save('SSI-120HIE-185ARG-1-dimer.npy', np.array(charges))--------------------------------------------------------------------------

*** tstart() called on ds3
*** at Mon Apr 27 07:10:57 2020

   => Loading Basis Set <=

    Name: CC-PVDZ
    Role: ORBITAL
    Keyword: BASIS
    atoms 1-4, 13-15  entry C          line   138 file /theoryfs2/ds/metcalf/miniconda2/envs/tf2gpu/share/psi4/basis/cc-pvdz.gbs
    atoms 5-6         entry N          line   168 file /theoryfs2/ds/metcalf/miniconda2/envs/tf2gpu/share/psi4/basis/cc-pvdz.gbs
    atoms 7-12, 16-23 entry H          line    22 file /theoryfs2/ds/metcalf/miniconda2/envs/tf2gpu/share/psi4/basis/cc-pvdz.gbs

         ---------------------------------------------------------
                                   SCF
               by Justin Turney, Rob Parrish, Andy Simmonett
                          and Daniel G. A. Smith
                              RHF Reference
                        1 Threads,    500 MiB Core
         ---------------------------------------------------------

  ==> Geometry <==

    Molecular point group: c1
    Full point group: C1

    Geometry (in Angstrom), charge = 0, multiplicity = 1:

       Center              X                  Y                   Z               Mass
    ------------   -----------------  -----------------  -----------------  -----------------
         C           -1.208645308137    -2.847498948272    -1.579188565486    12.000000000000
         C            0.631354691863    -0.665498948272     0.658811434514    12.000000000000
         C           -0.751645308137    -1.923498948272    -0.497188565486    12.000000000000
         C           -1.412645308137    -1.477498948272     0.600811434514    12.000000000000
         N            0.525354691863    -1.401498948272    -0.442188565486    14.003074004430
         N           -0.527645308137    -0.691498948272     1.306811434514    14.003074004430
         H            1.539354691863    -0.193498948272     1.012811434514     1.007825032230
         H           -0.680645308137    -0.278498948272     2.218811434514     1.007825032230
         H           -2.428645308137    -1.729498948272     0.877811434514     1.007825032230
         H           -1.762645308137    -3.664498948272    -1.131188565486     1.007825032230
         H           -0.312645308137    -3.269498948272    -2.034188565486     1.007825032230
         H           -1.818125308137    -2.378168948272    -2.365478565486     1.007825032230
         C            0.282354691863     2.845501051728    -0.144188565486    12.000000000000
         C            1.332354691863     2.156501051728    -1.006188565486    12.000000000000
         C            0.953354691863     3.435501051728     1.081811434514    12.000000000000
         H           -0.220645308137     3.627501051728    -0.710188565486     1.007825032230
         H           -0.467645308137     2.118501051728     0.173811434514     1.007825032230
         H            1.877354691863     1.431501051728    -0.404188565486     1.007825032230
         H            2.060354691863     2.902501051728    -1.336188565486     1.007825032230
         H            1.268354691863     2.615501051728     1.731811434514     1.007825032230
         H            1.835354691863     3.990501051728     0.752811434514     1.007825032230
         H            0.918054691863     1.648531051728    -1.889548565486     1.007825032230
         H            0.290034691863     4.119831051728     1.631081434514     1.007825032230

  Running in c1 symmetry.

  Rotational constants: A =      0.09866  B =      0.02292  C =      0.02095 [cm^-1]
  Rotational constants: A =   2957.88484  B =    687.15332  C =    628.16660 [MHz]
  Nuclear repulsion =  437.988218273443636

  Charge       = 0
  Multiplicity = 1
  Electrons    = 70
  Nalpha       = 35
  Nbeta        = 35

  ==> Algorithm <==

  SCF Algorithm Type is PK.
  DIIS enabled.
  MOM disabled.
  Fractional occupation disabled.
  Guess Type is SAD.
  Energy threshold   = 1.00e-06
  Density threshold  = 1.00e-10
  Integral threshold = 0.00e+00

  ==> Primary Basis <==

  Basis Set: CC-PVDZ
    Blend: CC-PVDZ
    Number of shells: 96
    Number of basis function: 196
    Number of Cartesian functions: 205
    Spherical Harmonics?: true
    Max angular momentum: 2

  ==> Pre-Iterations <==

   -------------------------------------------------------
    Irrep   Nso     Nmo     Nalpha   Nbeta   Ndocc  Nsocc
   -------------------------------------------------------
     A        196     196       0       0       0       0
   -------------------------------------------------------
    Total     196     196      35      35      35       0
   -------------------------------------------------------

  ==> Integral Setup <==

  Using integral reordering PK algorithm.
  Sizing the integral batches needed.
  Building batch lookup table.
   Calculation information:
      Number of atoms:                  23
      Number of AO shells:              96
      Number of primitives:            268
      Number of atomic orbitals:       205
      Number of basis functions:       196

      Integral cutoff                 1.00e-12
      Number of threads:                 1

	Batch   1 pq = [       0,    9405] index = [             0,44231715] size =     44231715
	Batch   2 pq = [    9405,   13301] index = [      44231715,88464951] size =     44233236
	Batch   3 pq = [   13301,   16290] index = [      88464951,132690195] size =     44225244
	Batch   4 pq = [   16290,   18810] index = [     132690195,176917455] size =     44227260
	Batch   5 pq = [   18810,   19306] index = [     176917455,186370471] size =      9453016
  Task number: 17
  Buffer size: 11059200
  Buffer per thread: 2
  We computed 9407514 shell quartets total.
  Whereas there are 10841496 unique shell quartets.

  ==> DiskJK: Disk-Based J/K Matrices <==

    J tasked:                  Yes
    K tasked:                  Yes
    wK tasked:                  No
    Memory [MiB]:              375
    Schwarz Cutoff:          1E-12

    OpenMP threads:              1

  Minimum eigenvalue in the overlap matrix is 1.2099104535E-03.
  Using Symmetric Orthogonalization.

  SCF Guess: Superposition of Atomic Densities via on-the-fly atomic UHF.

  ==> Iterations <==

                        Total Energy        Delta E     RMS |[F,P]|

   @RHF iter SAD:  -381.29982502275766   -3.81300e+02   0.00000e+00
   @RHF iter   1:  -381.88576431946308   -5.85939e-01   3.15980e-03 DIIS
   @RHF iter   2:  -382.08697837645212   -2.01214e-01   1.58120e-03 DIIS
   @RHF iter   3:  -382.13310078318875   -4.61224e-02   3.97422e-04 DIIS
   @RHF iter   4:  -382.13693188132959   -3.83110e-03   1.72110e-04 DIIS
   @RHF iter   5:  -382.13756499032633   -6.33109e-04   2.49052e-05 DIIS
   @RHF iter   6:  -382.13758781864163   -2.28283e-05   9.98206e-06 DIIS
   @RHF iter   7:  -382.13759122854128   -3.40990e-06   3.40451e-06 DIIS
   @RHF iter   8:  -382.13759189406966   -6.65528e-07   1.44922e-06 DIIS
   @RHF iter   9:  -382.13759204474150   -1.50672e-07   5.28143e-07 DIIS
   @RHF iter  10:  -382.13759206269299   -1.79515e-08   1.52492e-07 DIIS
   @RHF iter  11:  -382.13759206457615   -1.88317e-09   6.72638e-08 DIIS
   @RHF iter  12:  -382.13759206480836   -2.32205e-10   2.84388e-08 DIIS
   @RHF iter  13:  -382.13759206485304   -4.46789e-11   8.91932e-09 DIIS
   @RHF iter  14:  -382.13759206485724   -4.20641e-12   2.97098e-09 DIIS
   @RHF iter  15:  -382.13759206485724    0.00000e+00   1.15487e-09 DIIS
   @RHF iter  16:  -382.13759206485673    5.11591e-13   4.23421e-10 DIIS
   @RHF iter  17:  -382.13759206485486    1.87583e-12   1.41029e-10 DIIS
   @RHF iter  18:  -382.13759206485719   -2.33058e-12   4.18434e-11 DIIS
  Energy and wave function converged.

  ==> Post-Iterations <==

    Orbital Energies [Eh]
    ---------------------

    Doubly Occupied:

       1A    -15.622195     2A    -15.528922     3A    -11.292311
       4A    -11.249880     5A    -11.241456     6A    -11.221838
       7A    -11.218753     8A    -11.215888     9A    -11.208265
      10A     -1.342128    11A     -1.154054    12A     -1.057324
      13A     -1.031989    14A     -0.942090    15A     -0.918726
      16A     -0.818679    17A     -0.796560    18A     -0.761734
      19A     -0.742749    20A     -0.631667    21A     -0.610903
      22A     -0.603460    23A     -0.596951    24A     -0.596535
      25A     -0.554987    26A     -0.541430    27A     -0.538338
      28A     -0.525722    29A     -0.519752    30A     -0.471558
      31A     -0.469131    32A     -0.466850    33A     -0.411300
      34A     -0.378887    35A     -0.309186

    Virtual:

      36A      0.156906    37A      0.181389    38A      0.199871
      39A      0.201289    40A      0.213370    41A      0.225917
      42A      0.236215    43A      0.241296    44A      0.244181
      45A      0.270286    46A      0.272877    47A      0.278454
      48A      0.297854    49A      0.301366    50A      0.309459
      51A      0.350167    52A      0.374748    53A      0.381028
      54A      0.402991    55A      0.417243    56A      0.436856
      57A      0.476629    58A      0.492430    59A      0.583492
      60A      0.596857    61A      0.608387    62A      0.609664
      63A      0.614179    64A      0.632728    65A      0.637575
      66A      0.661817    67A      0.673810    68A      0.703650
      69A      0.732556    70A      0.752836    71A      0.774412
      72A      0.786048    73A      0.808544    74A      0.821502
      75A      0.836996    76A      0.854531    77A      0.860743
      78A      0.866179    79A      0.876877    80A      0.881959
      81A      0.887157    82A      0.901816    83A      0.905366
      84A      0.909639    85A      0.916568    86A      0.926429
      87A      0.938259    88A      0.946511    89A      0.956973
      90A      0.967321    91A      0.978793    92A      0.985359
      93A      1.016651    94A      1.032721    95A      1.089224
      96A      1.094620    97A      1.107304    98A      1.129615
      99A      1.155002   100A      1.162820   101A      1.177331
     102A      1.189436   103A      1.225141   104A      1.247848
     105A      1.281064   106A      1.294665   107A      1.317135
     108A      1.349704   109A      1.365850   110A      1.424727
     111A      1.457478   112A      1.481847   113A      1.490625
     114A      1.506014   115A      1.531553   116A      1.562124
     117A      1.576370   118A      1.607378   119A      1.612228
     120A      1.658110   121A      1.673928   122A      1.693738
     123A      1.709183   124A      1.724317   125A      1.731291
     126A      1.795664   127A      1.827681   128A      1.834499
     129A      1.851971   130A      1.859919   131A      1.868570
     132A      1.894060   133A      1.899211   134A      1.916894
     135A      1.919099   136A      1.936767   137A      1.944989
     138A      1.961308   139A      1.966205   140A      1.968270
     141A      1.972850   142A      1.976674   143A      1.982633
     144A      1.993074   145A      2.024399   146A      2.031672
     147A      2.041480   148A      2.068193   149A      2.081491
     150A      2.126555   151A      2.144153   152A      2.154944
     153A      2.165526   154A      2.211146   155A      2.240858
     156A      2.260229   157A      2.292005   158A      2.298701
     159A      2.315298   160A      2.321294   161A      2.348448
     162A      2.352631   163A      2.376034   164A      2.418026
     165A      2.457068   166A      2.487800   167A      2.507309
     168A      2.536141   169A      2.571385   170A      2.583498
     171A      2.608057   172A      2.626132   173A      2.640675
     174A      2.685093   175A      2.740459   176A      2.762378
     177A      2.767010   178A      2.776628   179A      2.787804
     180A      2.794514   181A      2.800603   182A      2.840876
     183A      2.847715   184A      2.868933   185A      2.892288
     186A      2.922701   187A      2.938434   188A      2.966361
     189A      2.971235   190A      2.985386   191A      3.058430
     192A      3.084008   193A      3.154519   194A      3.232331
     195A      3.466966   196A      3.800307

    Final Occupation by Irrep:
              A
    DOCC [    35 ]

  @RHF Final Energy:  -382.13759206485719

   => Energetics <=

    Nuclear Repulsion Energy =            437.9882182734436356
    One-Electron Energy =               -1385.0672324120669145
    Two-Electron Energy =                 564.9414220737660344
    Total Energy =                       -382.1375920648572446

Computation Completed

Properties will be evaluated at   0.000000,   0.000000,   0.000000 [a0]

Properties computed using the SCF density matrix

  Nuclear Dipole Moment: [e a0]
     X:     1.9667      Y:    10.2627      Z:    -1.3825

  Electronic Dipole Moment: [e a0]
     X:    -2.5997      Y:    -9.9459      Z:     2.4684

  Dipole Moment: [e a0]
     X:    -0.6330      Y:     0.3168      Z:     1.0859     Total:     1.2963

  Dipole Moment: [D]
     X:    -1.6090      Y:     0.8052      Z:     2.7602     Total:     3.2948

*** tstop() called on ds3 at Mon Apr 27 07:12:31 2020
Module time:
	user time   =      67.32 seconds =       1.12 minutes
	system time =      31.05 seconds =       0.52 minutes
	total time  =         94 seconds =       1.57 minutes
Total time:
	user time   =      67.32 seconds =       1.12 minutes
	system time =      31.05 seconds =       0.52 minutes
	total time  =         94 seconds =       1.57 minutes
                                     G D M A

                                 by Anthony Stone

                           version 2.2.06, 22 June 2011

               Distributed Multipoles from Gaussian wavefunctions

Starting at 7:12:31 on 27 Apr 2020

Using SCF density matrix from file ./SSI/SSI-120HIE-185ARG-1-dimer.test.24758.fchk

                         Distributed Multipole Analysis

Standard DMA

Positions and radii in angstrom
Multipole moments in atomic units, ea_0^k for rank k

C          x = -1.208645  y = -2.847499  z = -1.579189 angstrom
           Maximum rank =  0   Radius =  0.650 angstrom
                   Q00  =  -0.202007

C          x =  0.631355  y = -0.665499  z =  0.658811 angstrom
           Maximum rank =  0   Radius =  0.650 angstrom
                   Q00  =   0.466559

C          x = -0.751645  y = -1.923499  z = -0.497189 angstrom
           Maximum rank =  0   Radius =  0.650 angstrom
                   Q00  =   0.234757

C          x = -1.412645  y = -1.477499  z =  0.600811 angstrom
           Maximum rank =  0   Radius =  0.650 angstrom
                   Q00  =  -0.004220

N          x =  0.525355  y = -1.401499  z = -0.442189 angstrom
           Maximum rank =  0   Radius =  0.650 angstrom
                   Q00  =  -0.775937

N          x = -0.527645  y = -0.691499  z =  1.306811 angstrom
           Maximum rank =  0   Radius =  0.650 angstrom
                   Q00  =  -0.476477

H          x =  1.539355  y = -0.193499  z =  1.012811 angstrom
           Maximum rank =  0   Radius =  0.325 angstrom
                   Q00  =   0.121958

H          x = -0.680645  y = -0.278499  z =  2.218811 angstrom
           Maximum rank =  0   Radius =  0.325 angstrom
                   Q00  =   0.219939

H          x = -2.428645  y = -1.729499  z =  0.877811 angstrom
           Maximum rank =  0   Radius =  0.325 angstrom
                   Q00  =   0.100160

H          x = -1.762645  y = -3.664499  z = -1.131189 angstrom
           Maximum rank =  0   Radius =  0.325 angstrom
                   Q00  =   0.096860

H          x = -0.312645  y = -3.269499  z = -2.034189 angstrom
           Maximum rank =  0   Radius =  0.325 angstrom
                   Q00  =   0.119930

H          x = -1.818125  y = -2.378169  z = -2.365479 angstrom
           Maximum rank =  0   Radius =  0.325 angstrom
                   Q00  =   0.101756

C          x =  0.282355  y =  2.845501  z = -0.144189 angstrom
           Maximum rank =  0   Radius =  0.650 angstrom
                   Q00  =  -0.096364

C          x =  1.332355  y =  2.156501  z = -1.006189 angstrom
           Maximum rank =  0   Radius =  0.650 angstrom
                   Q00  =  -0.226833

C          x =  0.953355  y =  3.435501  z =  1.081811 angstrom
           Maximum rank =  0   Radius =  0.650 angstrom
                   Q00  =  -0.224885

H          x = -0.220645  y =  3.627501  z = -0.710189 angstrom
           Maximum rank =  0   Radius =  0.325 angstrom
                   Q00  =   0.052588

H          x = -0.467645  y =  2.118501  z =  0.173811 angstrom
           Maximum rank =  0   Radius =  0.325 angstrom
                   Q00  =   0.044515

H          x =  1.877355  y =  1.431501  z = -0.404189 angstrom
           Maximum rank =  0   Radius =  0.325 angstrom
                   Q00  =   0.067641

H          x =  2.060355  y =  2.902501  z = -1.336189 angstrom
           Maximum rank =  0   Radius =  0.325 angstrom
                   Q00  =   0.066881

H          x =  1.268355  y =  2.615501  z =  1.731811 angstrom
           Maximum rank =  0   Radius =  0.325 angstrom
                   Q00  =   0.059859

H          x =  1.835355  y =  3.990501  z =  0.752811 angstrom
           Maximum rank =  0   Radius =  0.325 angstrom
                   Q00  =   0.075003

H          x =  0.918055  y =  1.648531  z = -1.889549 angstrom
           Maximum rank =  0   Radius =  0.325 angstrom
                   Q00  =   0.096867

H          x =  0.290035  y =  4.119831  z =  1.631081 angstrom
           Maximum rank =  0   Radius =  0.325 angstrom
                   Q00  =   0.081450

Total multipoles referred to origin at
           x =   0.000000,  y =    0.000000,  z =    0.000000 angstrom
                   Q00  =  -0.000000

Finished at 7:12:31 on 27 Apr 2020

  DMA results are available in the Python driver through the
	  variable('DMA DISTRIBUTED MULTIPOLES')
  and
	  variable('DMA TOTAL MULTIPOLES')
  commands.

    Psi4 stopped on: Monday, 27 April 2020 07:12AM
    Psi4 wall time for execution: 0:01:34.40

*** Psi4 exiting successfully. Buy a developer a beer!
