                               Psi4 1.3.2 release

  ==> Input File <==

--------------------------------------------------------------------------
import numpy as np
set {scf_type pk
basis cc-pvdz
d_convergence 10
gdma_switch   0
gdma_limit    0
gdma_origin   [ 0.0,  0.0,  0.0 ]
}
molecule test {
    units Angstrom
    0 1
    --
    0 1
    C                1.093996700346672     0.411754705162925    -0.708837762767049
    C                2.455996700346672     0.714754705162925    -0.078837762767049
    C                1.043996700346672     0.517754705162925    -2.235837762767049
    H                0.806996700346672    -0.602245294837075    -0.433837762767049
    H                0.350996700346672     1.089754705162925    -0.284837762767049
    H                2.755996700346672     1.717754705162925    -0.379837762767049
    H                1.831996700346672    -0.097245294837075    -2.670837762767048
    H                3.206406700346673    -0.009985294837075    -0.427617762767049
    H                2.378806700346672     0.701774705162925     1.018372237232951
    H                0.086836700346672     0.135904705162925    -2.620577762767049
    H                1.202156700346672     1.559134705162925    -2.552877762767049
    C               -1.630003299653328    -1.151245294837075     1.238162237232951
    C               -2.886003299653328    -0.468245294837075     1.745162237232951
    H               -1.743003299653328    -2.234245294837075     1.240162237232951
    H               -1.451003299653328    -0.835245294837075     0.211162237232951
    H               -0.776003299653328    -0.866245294837075     1.854162237232951
    H               -3.728003299653328    -0.784245294837075     1.129162237232951
    H               -2.739003299653327     0.599754705162925     1.593162237232951
    H               -3.111713299653327    -0.669595294837075     2.802762237232951

}
e, wfn = energy('scf', return_wfn=True)
gdma(wfn)
dmavals = variable('DMA DISTRIBUTED MULTIPOLES')
charges = np.array(dmavals)
print(charges)
np.save('SSI-114LEU-118ILE-1-dimer.npy', np.array(charges))--------------------------------------------------------------------------

*** tstart() called on ds3
*** at Mon Apr 27 12:55:32 2020

   => Loading Basis Set <=

    Name: CC-PVDZ
    Role: ORBITAL
    Keyword: BASIS
    atoms 1-3, 12-13  entry C          line   138 file /theoryfs2/ds/metcalf/miniconda2/envs/tf2gpu/share/psi4/basis/cc-pvdz.gbs
    atoms 4-11, 14-19 entry H          line    22 file /theoryfs2/ds/metcalf/miniconda2/envs/tf2gpu/share/psi4/basis/cc-pvdz.gbs

         ---------------------------------------------------------
                                   SCF
               by Justin Turney, Rob Parrish, Andy Simmonett
                          and Daniel G. A. Smith
                              RHF Reference
                        1 Threads,    500 MiB Core
         ---------------------------------------------------------

  ==> Geometry <==

    Molecular point group: c1
    Full point group: C1

    Geometry (in Angstrom), charge = 0, multiplicity = 1:

       Center              X                  Y                   Z               Mass
    ------------   -----------------  -----------------  -----------------  -----------------
         C            1.093996700347     0.411754705163    -0.708837762767    12.000000000000
         C            2.455996700347     0.714754705163    -0.078837762767    12.000000000000
         C            1.043996700347     0.517754705163    -2.235837762767    12.000000000000
         H            0.806996700347    -0.602245294837    -0.433837762767     1.007825032230
         H            0.350996700347     1.089754705163    -0.284837762767     1.007825032230
         H            2.755996700347     1.717754705163    -0.379837762767     1.007825032230
         H            1.831996700347    -0.097245294837    -2.670837762767     1.007825032230
         H            3.206406700347    -0.009985294837    -0.427617762767     1.007825032230
         H            2.378806700347     0.701774705163     1.018372237233     1.007825032230
         H            0.086836700347     0.135904705163    -2.620577762767     1.007825032230
         H            1.202156700347     1.559134705163    -2.552877762767     1.007825032230
         C           -1.630003299653    -1.151245294837     1.238162237233    12.000000000000
         C           -2.886003299653    -0.468245294837     1.745162237233    12.000000000000
         H           -1.743003299653    -2.234245294837     1.240162237233     1.007825032230
         H           -1.451003299653    -0.835245294837     0.211162237233     1.007825032230
         H           -0.776003299653    -0.866245294837     1.854162237233     1.007825032230
         H           -3.728003299653    -0.784245294837     1.129162237233     1.007825032230
         H           -2.739003299653     0.599754705163     1.593162237233     1.007825032230
         H           -3.111713299653    -0.669595294837     2.802762237233     1.007825032230

  Running in c1 symmetry.

  Rotational constants: A =      0.21995  B =      0.03801  C =      0.03460 [cm^-1]
  Rotational constants: A =   6593.98047  B =   1139.51625  C =   1037.40664 [MHz]
  Nuclear repulsion =  176.521182140319524

  Charge       = 0
  Multiplicity = 1
  Electrons    = 44
  Nalpha       = 22
  Nbeta        = 22

  ==> Algorithm <==

  SCF Algorithm Type is PK.
  DIIS enabled.
  MOM disabled.
  Fractional occupation disabled.
  Guess Type is SAD.
  Energy threshold   = 1.00e-06
  Density threshold  = 1.00e-10
  Integral threshold = 0.00e+00

  ==> Primary Basis <==

  Basis Set: CC-PVDZ
    Blend: CC-PVDZ
    Number of shells: 72
    Number of basis function: 140
    Number of Cartesian functions: 145
    Spherical Harmonics?: true
    Max angular momentum: 2

  ==> Pre-Iterations <==

   -------------------------------------------------------
    Irrep   Nso     Nmo     Nalpha   Nbeta   Ndocc  Nsocc
   -------------------------------------------------------
     A        140     140       0       0       0       0
   -------------------------------------------------------
    Total     140     140      22      22      22       0
   -------------------------------------------------------

  ==> Integral Setup <==

  Using integral reordering PK algorithm.
  Sizing the integral batches needed.
  Building batch lookup table.
   Calculation information:
      Number of atoms:                  19
      Number of AO shells:              72
      Number of primitives:            180
      Number of atomic orbitals:       145
      Number of basis functions:       140

      Integral cutoff                 1.00e-12
      Number of threads:                 1

	Batch   1 pq = [       0,    9405] index = [             0,44231715] size =     44231715
	Batch   2 pq = [    9405,    9870] index = [      44231715,48713385] size =      4481670
  Task number: 5
  Buffer size: 11059200
  Buffer per thread: 2
  We computed 2763964 shell quartets total.
  Whereas there are 3454506 unique shell quartets.

  ==> DiskJK: Disk-Based J/K Matrices <==

    J tasked:                  Yes
    K tasked:                  Yes
    wK tasked:                  No
    Memory [MiB]:              375
    Schwarz Cutoff:          1E-12

    OpenMP threads:              1

  Minimum eigenvalue in the overlap matrix is 5.5191627412E-03.
  Using Symmetric Orthogonalization.

  SCF Guess: Superposition of Atomic Densities via on-the-fly atomic UHF.

  ==> Iterations <==

                        Total Energy        Delta E     RMS |[F,P]|

   @RHF iter SAD:  -196.36661477094418   -1.96367e+02   0.00000e+00
   @RHF iter   1:  -197.31104898646186   -9.44434e-01   3.80678e-03 DIIS
   @RHF iter   2:  -197.47157499187705   -1.60526e-01   1.63910e-03 DIIS
   @RHF iter   3:  -197.49996328421952   -2.83883e-02   3.26196e-04 DIIS
   @RHF iter   4:  -197.50220479462109   -2.24151e-03   4.90975e-05 DIIS
   @RHF iter   5:  -197.50224453808175   -3.97435e-05   1.49987e-05 DIIS
   @RHF iter   6:  -197.50224800921859   -3.47114e-06   2.46792e-06 DIIS
   @RHF iter   7:  -197.50224812058025   -1.11362e-07   4.77813e-07 DIIS
   @RHF iter   8:  -197.50224812537584   -4.79560e-09   1.28232e-07 DIIS
   @RHF iter   9:  -197.50224812570249   -3.26651e-10   3.96806e-08 DIIS
   @RHF iter  10:  -197.50224812573930   -3.68061e-11   8.52108e-09 DIIS
   @RHF iter  11:  -197.50224812574197   -2.67164e-12   1.59231e-09 DIIS
   @RHF iter  12:  -197.50224812574243   -4.54747e-13   2.96370e-10 DIIS
   @RHF iter  13:  -197.50224812574251   -8.52651e-14   5.15898e-11 DIIS
  Energy and wave function converged.

  ==> Post-Iterations <==

    Orbital Energies [Eh]
    ---------------------

    Doubly Occupied:

       1A    -11.219004     2A    -11.218017     3A    -11.217830
       4A    -11.216739     5A    -11.214800     6A     -1.051345
       7A     -1.021492     8A     -0.924802     9A     -0.836080
      10A     -0.795073    11A     -0.624975    12A     -0.601345
      13A     -0.599540    14A     -0.592023    15A     -0.547974
      16A     -0.533053    17A     -0.504175    18A     -0.484868
      19A     -0.484381    20A     -0.474158    21A     -0.467820
      22A     -0.461603

    Virtual:

      23A      0.169471    24A      0.193109    25A      0.210059
      26A      0.222802    27A      0.231366    28A      0.250979
      29A      0.256359    30A      0.263025    31A      0.278057
      32A      0.284287    33A      0.297566    34A      0.305093
      35A      0.307756    36A      0.324987    37A      0.373954
      38A      0.409608    39A      0.434974    40A      0.570618
      41A      0.583477    42A      0.597622    43A      0.609539
      44A      0.615901    45A      0.616953    46A      0.627491
      47A      0.639978    48A      0.689679    49A      0.774701
      50A      0.783721    51A      0.809754    52A      0.859885
      53A      0.874590    54A      0.876120    55A      0.887622
      56A      0.891094    57A      0.893734    58A      0.897632
      59A      0.898569    60A      0.901768    61A      0.909406
      62A      0.911643    63A      0.921702    64A      0.938758
      65A      0.958392    66A      0.971101    67A      0.980705
      68A      1.000930    69A      1.118640    70A      1.124087
      71A      1.132327    72A      1.169674    73A      1.208700
      74A      1.243309    75A      1.378657    76A      1.460317
      77A      1.473765    78A      1.481317    79A      1.490634
      80A      1.535917    81A      1.583782    82A      1.629503
      83A      1.673152    84A      1.683565    85A      1.684869
      86A      1.698844    87A      1.708392    88A      1.851775
      89A      1.855909    90A      1.873578    91A      1.881893
      92A      1.885154    93A      1.902113    94A      1.917460
      95A      1.926077    96A      1.940852    97A      1.949696
      98A      1.959088    99A      1.964149   100A      1.972388
     101A      1.977866   102A      1.980695   103A      1.991306
     104A      1.995827   105A      2.003134   106A      2.016476
     107A      2.027754   108A      2.095786   109A      2.125663
     110A      2.137680   111A      2.160946   112A      2.282974
     113A      2.291594   114A      2.306435   115A      2.319730
     116A      2.331330   117A      2.340119   118A      2.463529
     119A      2.473717   120A      2.503265   121A      2.524629
     122A      2.561637   123A      2.584363   124A      2.591060
     125A      2.614477   126A      2.625929   127A      2.748720
     128A      2.750309   129A      2.772755   130A      2.778757
     131A      2.795924   132A      2.804543   133A      2.852725
     134A      2.870763   135A      2.912083   136A      2.952214
     137A      2.961274   138A      2.966811   139A      2.973946
     140A      3.066526

    Final Occupation by Irrep:
              A
    DOCC [    22 ]

  @RHF Final Energy:  -197.50224812574251

   => Energetics <=

    Nuclear Repulsion Energy =            176.5211821403195245
    One-Electron Energy =                -613.8646701742480900
    Two-Electron Energy =                 239.8412399081860542
    Total Energy =                       -197.5022481257425113

Computation Completed

Properties will be evaluated at   0.000000,   0.000000,   0.000000 [a0]

Properties computed using the SCF density matrix

  Nuclear Dipole Moment: [e a0]
     X:    -0.8705      Y:    -0.2765      Z:     0.4486

  Electronic Dipole Moment: [e a0]
     X:     0.8536      Y:     0.2651      Z:    -0.4476

  Dipole Moment: [e a0]
     X:    -0.0169      Y:    -0.0114      Z:     0.0010     Total:     0.0204

  Dipole Moment: [D]
     X:    -0.0430      Y:    -0.0290      Z:     0.0026     Total:     0.0519

*** tstop() called on ds3 at Mon Apr 27 12:56:04 2020
Module time:
	user time   =      24.59 seconds =       0.41 minutes
	system time =       7.80 seconds =       0.13 minutes
	total time  =         32 seconds =       0.53 minutes
Total time:
	user time   =      24.59 seconds =       0.41 minutes
	system time =       7.80 seconds =       0.13 minutes
	total time  =         32 seconds =       0.53 minutes
                                     G D M A

                                 by Anthony Stone

                           version 2.2.06, 22 June 2011

               Distributed Multipoles from Gaussian wavefunctions

Starting at 12:56:4 on 27 Apr 2020

Using SCF density matrix from file ./SSI/SSI-114LEU-118ILE-1-dimer.test.4659.fchk

                         Distributed Multipole Analysis

Standard DMA

Positions and radii in angstrom
Multipole moments in atomic units, ea_0^k for rank k

C          x =  1.093997  y =  0.411755  z = -0.708838 angstrom
           Maximum rank =  0   Radius =  0.650 angstrom
                   Q00  =  -0.079407

C          x =  2.455997  y =  0.714755  z = -0.078838 angstrom
           Maximum rank =  0   Radius =  0.650 angstrom
                   Q00  =  -0.237741

C          x =  1.043997  y =  0.517755  z = -2.235838 angstrom
           Maximum rank =  0   Radius =  0.650 angstrom
                   Q00  =  -0.248343

H          x =  0.806997  y = -0.602245  z = -0.433838 angstrom
           Maximum rank =  0   Radius =  0.325 angstrom
                   Q00  =   0.046334

H          x =  0.350997  y =  1.089755  z = -0.284838 angstrom
           Maximum rank =  0   Radius =  0.325 angstrom
                   Q00  =   0.043533

H          x =  2.755997  y =  1.717755  z = -0.379838 angstrom
           Maximum rank =  0   Radius =  0.325 angstrom
                   Q00  =   0.074786

H          x =  1.831997  y = -0.097245  z = -2.670838 angstrom
           Maximum rank =  0   Radius =  0.325 angstrom
                   Q00  =   0.075979

H          x =  3.206407  y = -0.009985  z = -0.427618 angstrom
           Maximum rank =  0   Radius =  0.325 angstrom
                   Q00  =   0.078719

H          x =  2.378807  y =  0.701775  z =  1.018372 angstrom
           Maximum rank =  0   Radius =  0.325 angstrom
                   Q00  =   0.085446

H          x =  0.086837  y =  0.135905  z = -2.620578 angstrom
           Maximum rank =  0   Radius =  0.325 angstrom
                   Q00  =   0.084470

H          x =  1.202157  y =  1.559135  z = -2.552878 angstrom
           Maximum rank =  0   Radius =  0.325 angstrom
                   Q00  =   0.076890

C          x = -1.630003  y = -1.151245  z =  1.238162 angstrom
           Maximum rank =  0   Radius =  0.650 angstrom
                   Q00  =  -0.232942

C          x = -2.886003  y = -0.468245  z =  1.745162 angstrom
           Maximum rank =  0   Radius =  0.650 angstrom
                   Q00  =  -0.233101

H          x = -1.743003  y = -2.234245  z =  1.240162 angstrom
           Maximum rank =  0   Radius =  0.325 angstrom
                   Q00  =   0.076770

H          x = -1.451003  y = -0.835245  z =  0.211162 angstrom
           Maximum rank =  0   Radius =  0.325 angstrom
                   Q00  =   0.079457

H          x = -0.776003  y = -0.866245  z =  1.854162 angstrom
           Maximum rank =  0   Radius =  0.325 angstrom
                   Q00  =   0.077083

H          x = -3.728003  y = -0.784245  z =  1.129162 angstrom
           Maximum rank =  0   Radius =  0.325 angstrom
                   Q00  =   0.076832

H          x = -2.739003  y =  0.599755  z =  1.593162 angstrom
           Maximum rank =  0   Radius =  0.325 angstrom
                   Q00  =   0.074207

H          x = -3.111713  y = -0.669595  z =  2.802762 angstrom
           Maximum rank =  0   Radius =  0.325 angstrom
                   Q00  =   0.081029

Total multipoles referred to origin at
           x =   0.000000,  y =    0.000000,  z =    0.000000 angstrom
                   Q00  =  -0.000000

Finished at 12:56:4 on 27 Apr 2020

  DMA results are available in the Python driver through the
	  variable('DMA DISTRIBUTED MULTIPOLES')
  and
	  variable('DMA TOTAL MULTIPOLES')
  commands.

    Psi4 stopped on: Monday, 27 April 2020 12:56PM
    Psi4 wall time for execution: 0:00:31.50

*** Psi4 exiting successfully. Buy a developer a beer!
