                               Psi4 1.3.2 release

  ==> Input File <==

--------------------------------------------------------------------------
import numpy as np
set {scf_type pk
basis cc-pvdz
d_convergence 10
gdma_switch   0
gdma_limit    0
gdma_origin   [ 0.0,  0.0,  0.0 ]
}
molecule test {
    units Angstrom
    0 1
    --
    0 1
    C               -0.525251733018239    -0.724632280320072     3.634446364552162
    C                0.686748266981761     0.116367719679929     4.072446364552161
    H               -1.324251733018239    -0.075632280320071     3.275446364552161
    H               -0.248251733018239    -1.406632280320071     2.834446364552162
    H               -0.894251733018239    -1.316632280320071     4.472446364552161
    H                0.889748266981761     0.866367719679928     3.308446364552162
    H                0.451988266981761     0.619017719679928     5.022306364552161
    H                1.572348266981761    -0.529822280320072     4.162676364552162
    C               -2.909251733018239     0.163367719679929    -1.590553635447839
    C               -0.941251733018239    -0.397632280320071    -0.136553635447839
    C               -1.418251733018239     0.114367719679929    -1.336553635447839
    C                0.422748266981761    -0.433632280320071     0.114446364552161
    C               -0.511251733018239     0.606367719679929    -2.274553635447838
    C                1.330748266981761     0.056367719679929    -0.830553635447838
    C                0.860748266981761     0.579367719679929    -2.024553635447838
    O                2.652748266981762    -0.020632280320071    -0.514553635447838
    H               -1.630251733018239    -0.790632280320071     0.600446364552161
    H                0.805748266981761    -0.853632280320072     1.029446364552161
    H               -3.438251733018239    -0.357632280320071    -0.792553635447839
    H               -3.098251733018239    -0.378632280320071    -2.516553635447838
    H               -0.872251733018239     0.999367719679928    -3.216553635447839
    H                1.554748266981761     0.952367719679929    -2.760553635447839
    H                3.218748266981762     0.463367719679929    -1.133553635447838
    H               -3.317331733018239     1.179977719679928    -1.690418635447838

}
e, wfn = energy('scf', return_wfn=True)
gdma(wfn)
dmavals = variable('DMA DISTRIBUTED MULTIPOLES')
charges = np.array(dmavals)
print(charges)
np.save('SSI-158VAL-205TYR-1-dimer.npy', np.array(charges))--------------------------------------------------------------------------

*** tstart() called on ds3
*** at Sun Apr 26 19:41:17 2020

   => Loading Basis Set <=

    Name: CC-PVDZ
    Role: ORBITAL
    Keyword: BASIS
    atoms 1-2, 9-15  entry C          line   138 file /theoryfs2/ds/metcalf/miniconda2/envs/tf2gpu/share/psi4/basis/cc-pvdz.gbs
    atoms 3-8, 17-24 entry H          line    22 file /theoryfs2/ds/metcalf/miniconda2/envs/tf2gpu/share/psi4/basis/cc-pvdz.gbs
    atoms 16         entry O          line   198 file /theoryfs2/ds/metcalf/miniconda2/envs/tf2gpu/share/psi4/basis/cc-pvdz.gbs

         ---------------------------------------------------------
                                   SCF
               by Justin Turney, Rob Parrish, Andy Simmonett
                          and Daniel G. A. Smith
                              RHF Reference
                        1 Threads,    500 MiB Core
         ---------------------------------------------------------

  ==> Geometry <==

    Molecular point group: c1
    Full point group: C1

    Geometry (in Angstrom), charge = 0, multiplicity = 1:

       Center              X                  Y                   Z               Mass
    ------------   -----------------  -----------------  -----------------  -----------------
         C           -0.525251733018    -0.724632280320     3.634446364552    12.000000000000
         C            0.686748266982     0.116367719680     4.072446364552    12.000000000000
         H           -1.324251733018    -0.075632280320     3.275446364552     1.007825032230
         H           -0.248251733018    -1.406632280320     2.834446364552     1.007825032230
         H           -0.894251733018    -1.316632280320     4.472446364552     1.007825032230
         H            0.889748266982     0.866367719680     3.308446364552     1.007825032230
         H            0.451988266982     0.619017719680     5.022306364552     1.007825032230
         H            1.572348266982    -0.529822280320     4.162676364552     1.007825032230
         C           -2.909251733018     0.163367719680    -1.590553635448    12.000000000000
         C           -0.941251733018    -0.397632280320    -0.136553635448    12.000000000000
         C           -1.418251733018     0.114367719680    -1.336553635448    12.000000000000
         C            0.422748266982    -0.433632280320     0.114446364552    12.000000000000
         C           -0.511251733018     0.606367719680    -2.274553635448    12.000000000000
         C            1.330748266982     0.056367719680    -0.830553635448    12.000000000000
         C            0.860748266982     0.579367719680    -2.024553635448    12.000000000000
         O            2.652748266982    -0.020632280320    -0.514553635448    15.994914619570
         H           -1.630251733018    -0.790632280320     0.600446364552     1.007825032230
         H            0.805748266982    -0.853632280320     1.029446364552     1.007825032230
         H           -3.438251733018    -0.357632280320    -0.792553635448     1.007825032230
         H           -3.098251733018    -0.378632280320    -2.516553635448     1.007825032230
         H           -0.872251733018     0.999367719680    -3.216553635448     1.007825032230
         H            1.554748266982     0.952367719680    -2.760553635448     1.007825032230
         H            3.218748266982     0.463367719680    -1.133553635448     1.007825032230
         H           -3.317331733018     1.179977719680    -1.690418635448     1.007825032230

  Running in c1 symmetry.

  Rotational constants: A =      0.04706  B =      0.02415  C =      0.01659 [cm^-1]
  Rotational constants: A =   1410.84398  B =    723.89627  C =    497.39393 [MHz]
  Nuclear repulsion =  493.010816323305619

  Charge       = 0
  Multiplicity = 1
  Electrons    = 76
  Nalpha       = 38
  Nbeta        = 38

  ==> Algorithm <==

  SCF Algorithm Type is PK.
  DIIS enabled.
  MOM disabled.
  Fractional occupation disabled.
  Guess Type is SAD.
  Energy threshold   = 1.00e-06
  Density threshold  = 1.00e-10
  Integral threshold = 0.00e+00

  ==> Primary Basis <==

  Basis Set: CC-PVDZ
    Blend: CC-PVDZ
    Number of shells: 102
    Number of basis function: 210
    Number of Cartesian functions: 220
    Spherical Harmonics?: true
    Max angular momentum: 2

  ==> Pre-Iterations <==

   -------------------------------------------------------
    Irrep   Nso     Nmo     Nalpha   Nbeta   Ndocc  Nsocc
   -------------------------------------------------------
     A        210     210       0       0       0       0
   -------------------------------------------------------
    Total     210     210      38      38      38       0
   -------------------------------------------------------

  ==> Integral Setup <==

  Using integral reordering PK algorithm.
  Sizing the integral batches needed.
  Building batch lookup table.
   Calculation information:
      Number of atoms:                  24
      Number of AO shells:             102
      Number of primitives:            290
      Number of atomic orbitals:       220
      Number of basis functions:       210

      Integral cutoff                 1.00e-12
      Number of threads:                 1

	Batch   1 pq = [       0,    9405] index = [             0,44231715] size =     44231715
	Batch   2 pq = [    9405,   13301] index = [      44231715,88464951] size =     44233236
	Batch   3 pq = [   13301,   16290] index = [      88464951,132690195] size =     44225244
	Batch   4 pq = [   16290,   18810] index = [     132690195,176917455] size =     44227260
	Batch   5 pq = [   18810,   21030] index = [     176917455,221140965] size =     44223510
	Batch   6 pq = [   21030,   22155] index = [     221140965,245433090] size =     24292125
  Task number: 23
  Buffer size: 11059200
  Buffer per thread: 2
  We computed 11430246 shell quartets total.
  Whereas there are 13799631 unique shell quartets.

  ==> DiskJK: Disk-Based J/K Matrices <==

    J tasked:                  Yes
    K tasked:                  Yes
    wK tasked:                  No
    Memory [MiB]:              375
    Schwarz Cutoff:          1E-12

    OpenMP threads:              1

  Minimum eigenvalue in the overlap matrix is 3.1942764400E-04.
  Using Symmetric Orthogonalization.

  SCF Guess: Superposition of Atomic Densities via on-the-fly atomic UHF.

  ==> Iterations <==

                        Total Energy        Delta E     RMS |[F,P]|

   @RHF iter SAD:  -422.68559112868786   -4.22686e+02   0.00000e+00
   @RHF iter   1:  -423.60010191961356   -9.14511e-01   2.97778e-03 DIIS
   @RHF iter   2:  -423.81691924656525   -2.16817e-01   1.25770e-03 DIIS
   @RHF iter   3:  -423.85188684100729   -3.49676e-02   2.84753e-04 DIIS
   @RHF iter   4:  -423.85476755428130   -2.88071e-03   1.17125e-04 DIIS
   @RHF iter   5:  -423.85512089064127   -3.53336e-04   2.06600e-05 DIIS
   @RHF iter   6:  -423.85513810521240   -1.72146e-05   6.29815e-06 DIIS
   @RHF iter   7:  -423.85513967357571   -1.56836e-06   2.02090e-06 DIIS
   @RHF iter   8:  -423.85513987898429   -2.05409e-07   7.38397e-07 DIIS
   @RHF iter   9:  -423.85513990870584   -2.97215e-08   2.69135e-07 DIIS
   @RHF iter  10:  -423.85513991352030   -4.81447e-09   9.88205e-08 DIIS
   @RHF iter  11:  -423.85513991471885   -1.19854e-09   4.76201e-08 DIIS
   @RHF iter  12:  -423.85513991499113   -2.72280e-10   2.34923e-08 DIIS
   @RHF iter  13:  -423.85513991506576   -7.46354e-11   7.87257e-09 DIIS
   @RHF iter  14:  -423.85513991507372   -7.95808e-12   2.08896e-09 DIIS
   @RHF iter  15:  -423.85513991507122    2.50111e-12   7.26150e-10 DIIS
   @RHF iter  16:  -423.85513991507128   -5.68434e-14   2.79087e-10 DIIS
   @RHF iter  17:  -423.85513991507264   -1.36424e-12   1.28849e-10 DIIS
   @RHF iter  18:  -423.85513991507298   -3.41061e-13   6.90871e-11 DIIS
  Energy and wave function converged.

  ==> Post-Iterations <==

    Orbital Energies [Eh]
    ---------------------

    Doubly Occupied:

       1A    -20.583795     2A    -11.297771     3A    -11.238481
       4A    -11.234812     5A    -11.233255     6A    -11.232109
       7A    -11.227123     8A    -11.226538     9A    -11.217043
      10A    -11.215576    11A     -1.398392    12A     -1.150267
      13A     -1.035909    14A     -1.017989    15A     -1.013126
      16A     -0.925406    17A     -0.844099    18A     -0.835632
      19A     -0.801376    20A     -0.731616    21A     -0.665985
      22A     -0.640327    23A     -0.607178    24A     -0.600963
      25A     -0.594870    26A     -0.586779    27A     -0.580243
      28A     -0.568209    29A     -0.565474    30A     -0.525756
      31A     -0.497171    32A     -0.494231    33A     -0.488609
      34A     -0.483305    35A     -0.480866    36A     -0.466372
      37A     -0.338139    38A     -0.300442

    Virtual:

      39A      0.130448    40A      0.156927    41A      0.179743
      42A      0.181534    43A      0.193777    44A      0.219396
      45A      0.222678    46A      0.244515    47A      0.248869
      48A      0.263536    49A      0.268809    50A      0.275650
      51A      0.282918    52A      0.294909    53A      0.316003
      54A      0.337005    55A      0.377135    56A      0.383204
      57A      0.392264    58A      0.429987    59A      0.455525
      60A      0.491116    61A      0.497760    62A      0.512585
      63A      0.593824    64A      0.610013    65A      0.618696
      66A      0.623015    67A      0.636994    68A      0.651431
      69A      0.658033    70A      0.684117    71A      0.693690
      72A      0.704345    73A      0.715905    74A      0.718853
      75A      0.733891    76A      0.742737    77A      0.771193
      78A      0.777363    79A      0.786408    80A      0.792032
      81A      0.819510    82A      0.828059    83A      0.841092
      84A      0.842840    85A      0.848916    86A      0.882104
      87A      0.885219    88A      0.892060    89A      0.896986
      90A      0.898360    91A      0.903699    92A      0.925047
      93A      0.927412    94A      0.936595    95A      0.946355
      96A      0.951350    97A      0.954401    98A      0.987463
      99A      0.994332   100A      1.027761   101A      1.046618
     102A      1.062829   103A      1.106673   104A      1.123324
     105A      1.143077   106A      1.148450   107A      1.155690
     108A      1.183092   109A      1.212381   110A      1.229419
     111A      1.246379   112A      1.251747   113A      1.278887
     114A      1.289486   115A      1.292207   116A      1.311932
     117A      1.330959   118A      1.361265   119A      1.379515
     120A      1.393918   121A      1.476977   122A      1.481039
     123A      1.496743   124A      1.506186   125A      1.526376
     126A      1.557139   127A      1.588011   128A      1.619635
     129A      1.637323   130A      1.684550   131A      1.685802
     132A      1.693164   133A      1.709019   134A      1.733454
     135A      1.754470   136A      1.781536   137A      1.806669
     138A      1.815164   139A      1.869429   140A      1.871861
     141A      1.884057   142A      1.887909   143A      1.894200
     144A      1.902743   145A      1.907761   146A      1.929224
     147A      1.931272   148A      1.936935   149A      1.943776
     150A      1.944545   151A      1.959221   152A      1.963528
     153A      1.966540   154A      1.976545   155A      1.984518
     156A      2.015406   157A      2.018948   158A      2.056866
     159A      2.062186   160A      2.070290   161A      2.080086
     162A      2.125155   163A      2.140016   164A      2.145793
     165A      2.158811   166A      2.189350   167A      2.196116
     168A      2.235855   169A      2.255542   170A      2.273871
     171A      2.296370   172A      2.308137   173A      2.319807
     174A      2.359486   175A      2.374904   176A      2.400525
     177A      2.442850   178A      2.452909   179A      2.460589
     180A      2.484944   181A      2.513768   182A      2.533969
     183A      2.534048   184A      2.584989   185A      2.594403
     186A      2.614323   187A      2.636778   188A      2.749820
     189A      2.770058   190A      2.773470   191A      2.789537
     192A      2.802452   193A      2.823665   194A      2.846393
     195A      2.848421   196A      2.849620   197A      2.899733
     198A      2.948000   199A      2.961032   200A      2.973701
     201A      3.013330   202A      3.092726   203A      3.128420
     204A      3.245134   205A      3.293941   206A      3.354347
     207A      3.565963   208A      3.679992   209A      3.962352
     210A      4.192033

    Final Occupation by Irrep:
              A
    DOCC [    38 ]

  @RHF Final Energy:  -423.85513991507298

   => Energetics <=

    Nuclear Repulsion Energy =            493.0108163233056189
    One-Electron Energy =               -1551.8414457164494706
    Two-Electron Energy =                 634.9754894780709265
    Total Energy =                       -423.8551399150729821

Computation Completed

Properties will be evaluated at   0.000000,   0.000000,   0.000000 [a0]

Properties computed using the SCF density matrix

  Nuclear Dipole Moment: [e a0]
     X:    -5.9212      Y:    -0.5896      Z:    11.8054

  Electronic Dipole Moment: [e a0]
     X:     5.9031      Y:     0.9154      Z:   -12.2893

  Dipole Moment: [e a0]
     X:    -0.0182      Y:     0.3258      Z:    -0.4839     Total:     0.5836

  Dipole Moment: [D]
     X:    -0.0461      Y:     0.8282      Z:    -1.2299     Total:     1.4835

*** tstop() called on ds3 at Sun Apr 26 19:43:08 2020
Module time:
	user time   =      78.98 seconds =       1.32 minutes
	system time =      35.44 seconds =       0.59 minutes
	total time  =        111 seconds =       1.85 minutes
Total time:
	user time   =      78.98 seconds =       1.32 minutes
	system time =      35.44 seconds =       0.59 minutes
	total time  =        111 seconds =       1.85 minutes
                                     G D M A

                                 by Anthony Stone

                           version 2.2.06, 22 June 2011

               Distributed Multipoles from Gaussian wavefunctions

Starting at 19:43:8 on 26 Apr 2020

Using SCF density matrix from file ./SSI/SSI-158VAL-205TYR-1-dimer.test.7917.fchk

                         Distributed Multipole Analysis

Standard DMA

Positions and radii in angstrom
Multipole moments in atomic units, ea_0^k for rank k

C          x = -0.525252  y = -0.724632  z =  3.634446 angstrom
           Maximum rank =  0   Radius =  0.650 angstrom
                   Q00  =  -0.238346

C          x =  0.686748  y =  0.116368  z =  4.072446 angstrom
           Maximum rank =  0   Radius =  0.650 angstrom
                   Q00  =  -0.237497

H          x = -1.324252  y = -0.075632  z =  3.275446 angstrom
           Maximum rank =  0   Radius =  0.325 angstrom
                   Q00  =   0.079675

H          x = -0.248252  y = -1.406632  z =  2.834446 angstrom
           Maximum rank =  0   Radius =  0.325 angstrom
                   Q00  =   0.074117

H          x = -0.894252  y = -1.316632  z =  4.472446 angstrom
           Maximum rank =  0   Radius =  0.325 angstrom
                   Q00  =   0.079015

H          x =  0.889748  y =  0.866368  z =  3.308446 angstrom
           Maximum rank =  0   Radius =  0.325 angstrom
                   Q00  =   0.085217

H          x =  0.451988  y =  0.619018  z =  5.022306 angstrom
           Maximum rank =  0   Radius =  0.325 angstrom
                   Q00  =   0.079954

H          x =  1.572348  y = -0.529822  z =  4.162676 angstrom
           Maximum rank =  0   Radius =  0.325 angstrom
                   Q00  =   0.080039

C          x = -2.909252  y =  0.163368  z = -1.590554 angstrom
           Maximum rank =  0   Radius =  0.650 angstrom
                   Q00  =  -0.201731

C          x = -0.941252  y = -0.397632  z = -0.136554 angstrom
           Maximum rank =  0   Radius =  0.650 angstrom
                   Q00  =  -0.047527

C          x = -1.418252  y =  0.114368  z = -1.336554 angstrom
           Maximum rank =  0   Radius =  0.650 angstrom
                   Q00  =  -0.129440

C          x =  0.422748  y = -0.433632  z =  0.114446 angstrom
           Maximum rank =  0   Radius =  0.650 angstrom
                   Q00  =  -0.101578

C          x = -0.511252  y =  0.606368  z = -2.274554 angstrom
           Maximum rank =  0   Radius =  0.650 angstrom
                   Q00  =   0.040334

C          x =  1.330748  y =  0.056368  z = -0.830554 angstrom
           Maximum rank =  0   Radius =  0.650 angstrom
                   Q00  =   0.330295

C          x =  0.860748  y =  0.579368  z = -2.024554 angstrom
           Maximum rank =  0   Radius =  0.650 angstrom
                   Q00  =  -0.196443

O          x =  2.652748  y = -0.020632  z = -0.514554 angstrom
           Maximum rank =  0   Radius =  0.650 angstrom
                   Q00  =  -0.674599

H          x = -1.630252  y = -0.790632  z =  0.600446 angstrom
           Maximum rank =  0   Radius =  0.325 angstrom
                   Q00  =   0.065654

H          x =  0.805748  y = -0.853632  z =  1.029446 angstrom
           Maximum rank =  0   Radius =  0.325 angstrom
                   Q00  =   0.073709

H          x = -3.438252  y = -0.357632  z = -0.792554 angstrom
           Maximum rank =  0   Radius =  0.325 angstrom
                   Q00  =   0.096775

H          x = -3.098252  y = -0.378632  z = -2.516554 angstrom
           Maximum rank =  0   Radius =  0.325 angstrom
                   Q00  =   0.095840

H          x = -0.872252  y =  0.999368  z = -3.216554 angstrom
           Maximum rank =  0   Radius =  0.325 angstrom
                   Q00  =   0.067185

H          x =  1.554748  y =  0.952368  z = -2.760554 angstrom
           Maximum rank =  0   Radius =  0.325 angstrom
                   Q00  =   0.073994

H          x =  3.218748  y =  0.463368  z = -1.133554 angstrom
           Maximum rank =  0   Radius =  0.325 angstrom
                   Q00  =   0.406175

H          x = -3.317332  y =  1.179978  z = -1.690419 angstrom
           Maximum rank =  0   Radius =  0.325 angstrom
                   Q00  =   0.099183

Total multipoles referred to origin at
           x =   0.000000,  y =    0.000000,  z =    0.000000 angstrom
                   Q00  =  -0.000000

Finished at 19:43:8 on 26 Apr 2020

  DMA results are available in the Python driver through the
	  variable('DMA DISTRIBUTED MULTIPOLES')
  and
	  variable('DMA TOTAL MULTIPOLES')
  commands.

    Psi4 stopped on: Sunday, 26 April 2020 07:43PM
    Psi4 wall time for execution: 0:01:50.77

*** Psi4 exiting successfully. Buy a developer a beer!
