                               Psi4 1.3.2 release

  ==> Input File <==

--------------------------------------------------------------------------
import numpy as np
set {scf_type pk
basis cc-pvdz
d_convergence 10
gdma_switch   0
gdma_limit    0
gdma_origin   [ 0.0,  0.0,  0.0 ]
}
molecule test {
    units Angstrom
    0 1
    --
    0 1
    C               -2.451088839229822     0.876194581580959    -1.089163349059691
    C               -3.892088839229822     0.699194581580959    -0.590163349059691
    H               -1.886088839229823     1.478194581580959    -0.378163349059691
    H               -1.967088839229823    -0.098805418419041    -1.160163349059691
    H               -2.443088839229823     1.353194581580959    -2.070163349059691
    H               -3.836088839229822     0.241194581580959     0.393836650940309
    H               -4.355668839229823     1.691720581580959    -0.490234349059691
    H               -4.415978839229822     0.004254581580959    -1.262917349059691
    C                1.105911160770177     0.831194581580959    -1.617163349059691
    C                1.193911160770177     0.106194581580959    -0.294163349059691
    C                1.399911160770177     0.570194581580959     0.972836650940309
    C                1.023911160770177    -1.576805418419041     1.121836650940309
    N                0.911911160770177    -1.229805418419041    -0.170163349059691
    N                1.323911160770177    -0.506805418419041     1.831836650940309
    H                0.238911160770177     0.433194581580959    -2.144163349059691
    H                1.958911160770177     0.649194581580959    -2.253163349059691
    H                1.696911160770177     1.566194581580959     1.209836650940309
    H                0.856911160770177    -2.567805418419041     1.524836650940309
    H                1.404911160770177    -0.470805418419041     2.852836650940309
    H                0.965651160770177     1.915674581580959    -1.497870349059691

}
e, wfn = energy('scf', return_wfn=True)
gdma(wfn)
dmavals = variable('DMA DISTRIBUTED MULTIPOLES')
charges = np.array(dmavals)
print(charges)
np.save('SSI-124LEU-136HIE-2-dimer.npy', np.array(charges))--------------------------------------------------------------------------

*** tstart() called on ds3
*** at Mon Apr 27 22:37:35 2020

   => Loading Basis Set <=

    Name: CC-PVDZ
    Role: ORBITAL
    Keyword: BASIS
    atoms 1-2, 9-12  entry C          line   138 file /theoryfs2/ds/metcalf/miniconda2/envs/tf2gpu/share/psi4/basis/cc-pvdz.gbs
    atoms 3-8, 15-20 entry H          line    22 file /theoryfs2/ds/metcalf/miniconda2/envs/tf2gpu/share/psi4/basis/cc-pvdz.gbs
    atoms 13-14      entry N          line   168 file /theoryfs2/ds/metcalf/miniconda2/envs/tf2gpu/share/psi4/basis/cc-pvdz.gbs

         ---------------------------------------------------------
                                   SCF
               by Justin Turney, Rob Parrish, Andy Simmonett
                          and Daniel G. A. Smith
                              RHF Reference
                        1 Threads,    500 MiB Core
         ---------------------------------------------------------

  ==> Geometry <==

    Molecular point group: c1
    Full point group: C1

    Geometry (in Angstrom), charge = 0, multiplicity = 1:

       Center              X                  Y                   Z               Mass
    ------------   -----------------  -----------------  -----------------  -----------------
         C           -2.451088839230     0.876194581581    -1.089163349060    12.000000000000
         C           -3.892088839230     0.699194581581    -0.590163349060    12.000000000000
         H           -1.886088839230     1.478194581581    -0.378163349060     1.007825032230
         H           -1.967088839230    -0.098805418419    -1.160163349060     1.007825032230
         H           -2.443088839230     1.353194581581    -2.070163349060     1.007825032230
         H           -3.836088839230     0.241194581581     0.393836650940     1.007825032230
         H           -4.355668839230     1.691720581581    -0.490234349060     1.007825032230
         H           -4.415978839230     0.004254581581    -1.262917349060     1.007825032230
         C            1.105911160770     0.831194581581    -1.617163349060    12.000000000000
         C            1.193911160770     0.106194581581    -0.294163349060    12.000000000000
         C            1.399911160770     0.570194581581     0.972836650940    12.000000000000
         C            1.023911160770    -1.576805418419     1.121836650940    12.000000000000
         N            0.911911160770    -1.229805418419    -0.170163349060    14.003074004430
         N            1.323911160770    -0.506805418419     1.831836650940    14.003074004430
         H            0.238911160770     0.433194581581    -2.144163349060     1.007825032230
         H            1.958911160770     0.649194581581    -2.253163349060     1.007825032230
         H            1.696911160770     1.566194581581     1.209836650940     1.007825032230
         H            0.856911160770    -2.567805418419     1.524836650940     1.007825032230
         H            1.404911160770    -0.470805418419     2.852836650940     1.007825032230
         H            0.965651160770     1.915674581581    -1.497870349060     1.007825032230

  Running in c1 symmetry.

  Rotational constants: A =      0.08876  B =      0.03018  C =      0.02630 [cm^-1]
  Rotational constants: A =   2660.86659  B =    904.85098  C =    788.33660 [MHz]
  Nuclear repulsion =  354.832600607039353

  Charge       = 0
  Multiplicity = 1
  Electrons    = 62
  Nalpha       = 31
  Nbeta        = 31

  ==> Algorithm <==

  SCF Algorithm Type is PK.
  DIIS enabled.
  MOM disabled.
  Fractional occupation disabled.
  Guess Type is SAD.
  Energy threshold   = 1.00e-06
  Density threshold  = 1.00e-10
  Integral threshold = 0.00e+00

  ==> Primary Basis <==

  Basis Set: CC-PVDZ
    Blend: CC-PVDZ
    Number of shells: 84
    Number of basis function: 172
    Number of Cartesian functions: 180
    Spherical Harmonics?: true
    Max angular momentum: 2

  ==> Pre-Iterations <==

   -------------------------------------------------------
    Irrep   Nso     Nmo     Nalpha   Nbeta   Ndocc  Nsocc
   -------------------------------------------------------
     A        172     172       0       0       0       0
   -------------------------------------------------------
    Total     172     172      31      31      31       0
   -------------------------------------------------------

  ==> Integral Setup <==

  Using integral reordering PK algorithm.
  Sizing the integral batches needed.
  Building batch lookup table.
   Calculation information:
      Number of atoms:                  20
      Number of AO shells:              84
      Number of primitives:            236
      Number of atomic orbitals:       180
      Number of basis functions:       172

      Integral cutoff                 1.00e-12
      Number of threads:                 1

	Batch   1 pq = [       0,    9405] index = [             0,44231715] size =     44231715
	Batch   2 pq = [    9405,   13301] index = [      44231715,88464951] size =     44233236
	Batch   3 pq = [   13301,   14878] index = [      88464951,110684881] size =     22219930
  Task number: 11
  Buffer size: 11059200
  Buffer per thread: 2
  We computed 5458003 shell quartets total.
  Whereas there are 6374235 unique shell quartets.

  ==> DiskJK: Disk-Based J/K Matrices <==

    J tasked:                  Yes
    K tasked:                  Yes
    wK tasked:                  No
    Memory [MiB]:              375
    Schwarz Cutoff:          1E-12

    OpenMP threads:              1

  Minimum eigenvalue in the overlap matrix is 1.2617571129E-03.
  Using Symmetric Orthogonalization.

  SCF Guess: Superposition of Atomic Densities via on-the-fly atomic UHF.

  ==> Iterations <==

                        Total Energy        Delta E     RMS |[F,P]|

   @RHF iter SAD:  -342.18478154433973   -3.42185e+02   0.00000e+00
   @RHF iter   1:  -342.88380685942388   -6.99025e-01   3.35431e-03 DIIS
   @RHF iter   2:  -343.05544222008450   -1.71635e-01   1.70650e-03 DIIS
   @RHF iter   3:  -343.09611394563200   -4.06717e-02   4.40668e-04 DIIS
   @RHF iter   4:  -343.09966238395054   -3.54844e-03   1.82798e-04 DIIS
   @RHF iter   5:  -343.10023508032089   -5.72696e-04   2.68137e-05 DIIS
   @RHF iter   6:  -343.10025581079486   -2.07305e-05   1.13467e-05 DIIS
   @RHF iter   7:  -343.10025909882489   -3.28803e-06   3.96593e-06 DIIS
   @RHF iter   8:  -343.10025978221978   -6.83395e-07   1.58156e-06 DIIS
   @RHF iter   9:  -343.10025993706449   -1.54845e-07   5.77956e-07 DIIS
   @RHF iter  10:  -343.10025995332091   -1.62564e-08   1.81717e-07 DIIS
   @RHF iter  11:  -343.10025995525046   -1.92955e-09   8.06184e-08 DIIS
   @RHF iter  12:  -343.10025995549336   -2.42892e-10   3.17983e-08 DIIS
   @RHF iter  13:  -343.10025995553974   -4.63842e-11   8.87809e-09 DIIS
   @RHF iter  14:  -343.10025995554417   -4.43379e-12   3.16988e-09 DIIS
   @RHF iter  15:  -343.10025995554298    1.19371e-12   1.28735e-09 DIIS
   @RHF iter  16:  -343.10025995554321   -2.27374e-13   4.07180e-10 DIIS
   @RHF iter  17:  -343.10025995554395   -7.38964e-13   1.29792e-10 DIIS
   @RHF iter  18:  -343.10025995554219    1.76215e-12   4.58611e-11 DIIS
  Energy and wave function converged.

  ==> Post-Iterations <==

    Orbital Energies [Eh]
    ---------------------

    Doubly Occupied:

       1A    -15.624988     2A    -15.527938     3A    -11.293505
       4A    -11.247524     5A    -11.243146     6A    -11.222203
       7A    -11.212207     8A    -11.205678     9A     -1.342149
      10A     -1.153764    11A     -1.025268    12A     -1.008882
      13A     -0.941294    14A     -0.826338    15A     -0.818959
      16A     -0.761100    17A     -0.743327    18A     -0.607767
      19A     -0.604747    20A     -0.595567    21A     -0.592716
      22A     -0.587892    23A     -0.551882    24A     -0.540231
      25A     -0.521947    26A     -0.483869    27A     -0.479925
      28A     -0.475797    29A     -0.408328    30A     -0.378057
      31A     -0.307131

    Virtual:

      32A      0.171435    33A      0.181637    34A      0.192159
      35A      0.204606    36A      0.225943    37A      0.226982
      38A      0.237726    39A      0.261099    40A      0.262768
      41A      0.271408    42A      0.282188    43A      0.292220
      44A      0.302666    45A      0.328948    46A      0.379499
      47A      0.390367    48A      0.399020    49A      0.425196
      50A      0.476372    51A      0.487657    52A      0.569344
      53A      0.603044    54A      0.608640    55A      0.614878
      56A      0.637325    57A      0.658142    58A      0.659617
      59A      0.694092    60A      0.704405    61A      0.714325
      62A      0.735805    63A      0.765994    64A      0.770119
      65A      0.778110    66A      0.817154    67A      0.843569
      68A      0.854951    69A      0.878962    70A      0.900129
      71A      0.901315    72A      0.906531    73A      0.908602
      74A      0.916308    75A      0.923442    76A      0.937018
      77A      0.944077    78A      0.961523    79A      0.971119
      80A      0.984070    81A      1.025301    82A      1.026808
      83A      1.046026    84A      1.067911    85A      1.100012
      86A      1.125332    87A      1.139430    88A      1.143679
      89A      1.170056    90A      1.195682    91A      1.244511
      92A      1.251500    93A      1.274703    94A      1.304164
      95A      1.318745    96A      1.344857    97A      1.425719
      98A      1.453722    99A      1.479421   100A      1.488736
     101A      1.496258   102A      1.527419   103A      1.565458
     104A      1.581195   105A      1.602445   106A      1.652778
     107A      1.674060   108A      1.696947   109A      1.704123
     110A      1.705170   111A      1.770152   112A      1.810149
     113A      1.827779   114A      1.842854   115A      1.865655
     116A      1.891053   117A      1.902053   118A      1.923513
     119A      1.936109   120A      1.942362   121A      1.952454
     122A      1.956155   123A      1.960612   124A      1.969584
     125A      1.980044   126A      1.985565   127A      1.998149
     128A      2.024808   129A      2.051953   130A      2.067018
     131A      2.112703   132A      2.124787   133A      2.131510
     134A      2.140438   135A      2.188692   136A      2.208980
     137A      2.231670   138A      2.300154   139A      2.310529
     140A      2.340557   141A      2.362446   142A      2.388397
     143A      2.442573   144A      2.451425   145A      2.457547
     146A      2.474150   147A      2.484908   148A      2.554495
     149A      2.577787   150A      2.583356   151A      2.606635
     152A      2.699435   153A      2.719295   154A      2.755931
     155A      2.773335   156A      2.782582   157A      2.797752
     158A      2.805101   159A      2.837823   160A      2.841811
     161A      2.849193   162A      2.881734   163A      2.908804
     164A      2.931695   165A      2.955180   166A      2.964903
     167A      2.971821   168A      3.067984   169A      3.156645
     170A      3.237508   171A      3.461916   172A      3.778107

    Final Occupation by Irrep:
              A
    DOCC [    31 ]

  @RHF Final Energy:  -343.10025995554219

   => Energetics <=

    Nuclear Repulsion Energy =            354.8326006070393532
    One-Electron Energy =               -1167.1974721850699552
    Two-Electron Energy =                 469.2646116224884167
    Total Energy =                       -343.1002599555421853

Computation Completed

Properties will be evaluated at   0.000000,   0.000000,   0.000000 [a0]

Properties computed using the SCF density matrix

  Nuclear Dipole Moment: [e a0]
     X:   -11.0516      Y:     5.8130      Z:    -4.9504

  Electronic Dipole Moment: [e a0]
     X:    11.3486      Y:    -5.4467      Z:     6.2431

  Dipole Moment: [e a0]
     X:     0.2970      Y:     0.3663      Z:     1.2926     Total:     1.3760

  Dipole Moment: [D]
     X:     0.7550      Y:     0.9312      Z:     3.2855     Total:     3.4974

*** tstop() called on ds3 at Mon Apr 27 22:38:36 2020
Module time:
	user time   =      40.63 seconds =       0.68 minutes
	system time =      17.54 seconds =       0.29 minutes
	total time  =         61 seconds =       1.02 minutes
Total time:
	user time   =      40.63 seconds =       0.68 minutes
	system time =      17.54 seconds =       0.29 minutes
	total time  =         61 seconds =       1.02 minutes
                                     G D M A

                                 by Anthony Stone

                           version 2.2.06, 22 June 2011

               Distributed Multipoles from Gaussian wavefunctions

Starting at 22:38:36 on 27 Apr 2020

Using SCF density matrix from file ./SSI/SSI-124LEU-136HIE-2-dimer.test.31488.fchk

                         Distributed Multipole Analysis

Standard DMA

Positions and radii in angstrom
Multipole moments in atomic units, ea_0^k for rank k

C          x = -2.451089  y =  0.876195  z = -1.089163 angstrom
           Maximum rank =  0   Radius =  0.650 angstrom
                   Q00  =  -0.242233

C          x = -3.892089  y =  0.699195  z = -0.590163 angstrom
           Maximum rank =  0   Radius =  0.650 angstrom
                   Q00  =  -0.204232

H          x = -1.886089  y =  1.478195  z = -0.378163 angstrom
           Maximum rank =  0   Radius =  0.325 angstrom
                   Q00  =   0.077237

H          x = -1.967089  y = -0.098805  z = -1.160163 angstrom
           Maximum rank =  0   Radius =  0.325 angstrom
                   Q00  =   0.087348

H          x = -2.443089  y =  1.353195  z = -2.070163 angstrom
           Maximum rank =  0   Radius =  0.325 angstrom
                   Q00  =   0.072253

H          x = -3.836089  y =  0.241195  z =  0.393837 angstrom
           Maximum rank =  0   Radius =  0.325 angstrom
                   Q00  =   0.076886

H          x = -4.355669  y =  1.691721  z = -0.490234 angstrom
           Maximum rank =  0   Radius =  0.325 angstrom
                   Q00  =   0.063796

H          x = -4.415979  y =  0.004255  z = -1.262917 angstrom
           Maximum rank =  0   Radius =  0.325 angstrom
                   Q00  =   0.067402

C          x =  1.105911  y =  0.831195  z = -1.617163 angstrom
           Maximum rank =  0   Radius =  0.650 angstrom
                   Q00  =  -0.201670

C          x =  1.193911  y =  0.106195  z = -0.294163 angstrom
           Maximum rank =  0   Radius =  0.650 angstrom
                   Q00  =   0.229783

C          x =  1.399911  y =  0.570195  z =  0.972837 angstrom
           Maximum rank =  0   Radius =  0.650 angstrom
                   Q00  =  -0.015882

C          x =  1.023911  y = -1.576805  z =  1.121837 angstrom
           Maximum rank =  0   Radius =  0.650 angstrom
                   Q00  =   0.456059

N          x =  0.911911  y = -1.229805  z = -0.170163 angstrom
           Maximum rank =  0   Radius =  0.650 angstrom
                   Q00  =  -0.773715

N          x =  1.323911  y = -0.506805  z =  1.831837 angstrom
           Maximum rank =  0   Radius =  0.650 angstrom
                   Q00  =  -0.465022

H          x =  0.238911  y =  0.433195  z = -2.144163 angstrom
           Maximum rank =  0   Radius =  0.325 angstrom
                   Q00  =   0.119846

H          x =  1.958911  y =  0.649195  z = -2.253163 angstrom
           Maximum rank =  0   Radius =  0.325 angstrom
                   Q00  =   0.111209

H          x =  1.696911  y =  1.566195  z =  1.209837 angstrom
           Maximum rank =  0   Radius =  0.325 angstrom
                   Q00  =   0.098880

H          x =  0.856911  y = -2.567805  z =  1.524837 angstrom
           Maximum rank =  0   Radius =  0.325 angstrom
                   Q00  =   0.123128

H          x =  1.404911  y = -0.470805  z =  2.852837 angstrom
           Maximum rank =  0   Radius =  0.325 angstrom
                   Q00  =   0.226778

H          x =  0.965651  y =  1.915675  z = -1.497870 angstrom
           Maximum rank =  0   Radius =  0.325 angstrom
                   Q00  =   0.092150

Total multipoles referred to origin at
           x =   0.000000,  y =    0.000000,  z =    0.000000 angstrom
                   Q00  =  -0.000000

Finished at 22:38:36 on 27 Apr 2020

  DMA results are available in the Python driver through the
	  variable('DMA DISTRIBUTED MULTIPOLES')
  and
	  variable('DMA TOTAL MULTIPOLES')
  commands.

    Psi4 stopped on: Monday, 27 April 2020 10:38PM
    Psi4 wall time for execution: 0:01:00.92

*** Psi4 exiting successfully. Buy a developer a beer!
