                               Psi4 1.3.2 release

  ==> Input File <==

--------------------------------------------------------------------------
import numpy as np
set {scf_type pk
basis cc-pvdz
d_convergence 10
gdma_switch   0
gdma_limit    0
gdma_origin   [ 0.0,  0.0,  0.0 ]
}
molecule test {
    units Angstrom
    0 1
    --
    0 1
    C                0.438423331143805    -1.037142355216524     2.331997832756841
    C                0.090423331143805    -1.599142355216524     3.704997832756841
    C                0.224423331143805     0.442857644783476     2.108997832756841
    C               -1.060576668856195     0.983857644783476     2.076997832756841
    C                1.307423331143805     1.281857644783476     1.867997832756841
    C               -1.259576668856195     2.343857644783476     1.839997832756841
    C                1.120423331143805     2.639857644783476     1.635997832756841
    C               -0.161576668856195     3.171857644783476     1.618997832756841
    O               -0.334576668856195     4.504857644783477     1.386997832756841
    H                1.463423331143805    -1.303142355216524     2.091997832756841
    H               -0.207576668856195    -1.540142355216524     1.629997832756841
    H               -0.934576668856195    -1.330142355216524     3.942997832756841
    H               -1.894576668856196     0.349857644783476     2.306997832756841
    H                2.305423331143805     0.876857644783476     1.876997832756841
    H               -2.259576668856195     2.752857644783476     1.838997832756841
    H                1.960423331143804     3.296857644783476     1.492997832756841
    H               -1.259576668856195     4.759857644783477     1.451997832756841
    H                0.765243331143804    -1.187922355216524     4.470191832756840
    H                0.132983331143805    -2.694852355216524     3.617716832756841
    C               -0.501576668856195    -3.380142355216524    -0.535002167243159
    C               -1.998576668856195    -3.675142355216524    -0.414002167243159
    C               -0.134576668856195    -2.228142355216524    -1.450002167243159
    C               -0.348576668856195    -0.909142355216524    -1.061002167243159
    C                0.458423331143805    -2.468142355216524    -2.692002167243159
    C                0.018423331143805     0.150857644783476    -1.881002167243159
    C                0.822423331143805    -1.409142355216524    -3.526002167243159
    C                0.600423331143805    -0.097142355216524    -3.118002167243159
    O                0.952423331143805     0.946857644783476    -3.920002167243159
    H               -0.053576668856195    -3.248142355216524     0.442997832756841
    H               -0.001576668856195    -4.262142355216524    -0.941002167243159
    H               -2.477576668856195    -3.271142355216524    -1.306002167243159
    H               -0.866576668856195    -0.686142355216524    -0.144002167243159
    H                0.637423331143805    -3.485142355216524    -3.018002167243159
    H               -0.156576668856195     1.167857644783476    -1.560002167243159
    H                1.278423331143805    -1.598142355216524    -4.487002167243159
    H                0.927423331143805     1.781857644783476    -3.422002167243159
    H               -2.435476668856195    -3.217972355216524     0.486064832756841
    H               -2.154276668856196    -4.763622355216523    -0.445142167243159

}
e, wfn = energy('scf', return_wfn=True)
gdma(wfn)
dmavals = variable('DMA DISTRIBUTED MULTIPOLES')
charges = np.array(dmavals)
print(charges)
np.save('SSI-163TYR-178TYR-1-dimer.npy', np.array(charges))--------------------------------------------------------------------------

*** tstart() called on ds3
*** at Tue Apr 28 02:07:00 2020

   => Loading Basis Set <=

    Name: CC-PVDZ
    Role: ORBITAL
    Keyword: BASIS
    atoms 1-8, 20-27   entry C          line   138 file /theoryfs2/ds/metcalf/miniconda2/envs/tf2gpu/share/psi4/basis/cc-pvdz.gbs
    atoms 9, 28        entry O          line   198 file /theoryfs2/ds/metcalf/miniconda2/envs/tf2gpu/share/psi4/basis/cc-pvdz.gbs
    atoms 10-19, 29-38 entry H          line    22 file /theoryfs2/ds/metcalf/miniconda2/envs/tf2gpu/share/psi4/basis/cc-pvdz.gbs

         ---------------------------------------------------------
                                   SCF
               by Justin Turney, Rob Parrish, Andy Simmonett
                          and Daniel G. A. Smith
                              RHF Reference
                        1 Threads,    500 MiB Core
         ---------------------------------------------------------

  ==> Geometry <==

    Molecular point group: c1
    Full point group: C1

    Geometry (in Angstrom), charge = 0, multiplicity = 1:

       Center              X                  Y                   Z               Mass
    ------------   -----------------  -----------------  -----------------  -----------------
         C            0.438423331144    -1.037142355217     2.331997832757    12.000000000000
         C            0.090423331144    -1.599142355217     3.704997832757    12.000000000000
         C            0.224423331144     0.442857644783     2.108997832757    12.000000000000
         C           -1.060576668856     0.983857644783     2.076997832757    12.000000000000
         C            1.307423331144     1.281857644783     1.867997832757    12.000000000000
         C           -1.259576668856     2.343857644783     1.839997832757    12.000000000000
         C            1.120423331144     2.639857644783     1.635997832757    12.000000000000
         C           -0.161576668856     3.171857644783     1.618997832757    12.000000000000
         O           -0.334576668856     4.504857644783     1.386997832757    15.994914619570
         H            1.463423331144    -1.303142355217     2.091997832757     1.007825032230
         H           -0.207576668856    -1.540142355217     1.629997832757     1.007825032230
         H           -0.934576668856    -1.330142355217     3.942997832757     1.007825032230
         H           -1.894576668856     0.349857644783     2.306997832757     1.007825032230
         H            2.305423331144     0.876857644783     1.876997832757     1.007825032230
         H           -2.259576668856     2.752857644783     1.838997832757     1.007825032230
         H            1.960423331144     3.296857644783     1.492997832757     1.007825032230
         H           -1.259576668856     4.759857644783     1.451997832757     1.007825032230
         H            0.765243331144    -1.187922355217     4.470191832757     1.007825032230
         H            0.132983331144    -2.694852355217     3.617716832757     1.007825032230
         C           -0.501576668856    -3.380142355217    -0.535002167243    12.000000000000
         C           -1.998576668856    -3.675142355217    -0.414002167243    12.000000000000
         C           -0.134576668856    -2.228142355217    -1.450002167243    12.000000000000
         C           -0.348576668856    -0.909142355217    -1.061002167243    12.000000000000
         C            0.458423331144    -2.468142355217    -2.692002167243    12.000000000000
         C            0.018423331144     0.150857644783    -1.881002167243    12.000000000000
         C            0.822423331144    -1.409142355217    -3.526002167243    12.000000000000
         C            0.600423331144    -0.097142355217    -3.118002167243    12.000000000000
         O            0.952423331144     0.946857644783    -3.920002167243    15.994914619570
         H           -0.053576668856    -3.248142355217     0.442997832757     1.007825032230
         H           -0.001576668856    -4.262142355217    -0.941002167243     1.007825032230
         H           -2.477576668856    -3.271142355217    -1.306002167243     1.007825032230
         H           -0.866576668856    -0.686142355217    -0.144002167243     1.007825032230
         H            0.637423331144    -3.485142355217    -3.018002167243     1.007825032230
         H           -0.156576668856     1.167857644783    -1.560002167243     1.007825032230
         H            1.278423331144    -1.598142355217    -4.487002167243     1.007825032230
         H            0.927423331144     1.781857644783    -3.422002167243     1.007825032230
         H           -2.435476668856    -3.217972355217     0.486064832757     1.007825032230
         H           -2.154276668856    -4.763622355217    -0.445142167243     1.007825032230

  Running in c1 symmetry.

  Rotational constants: A =      0.01536  B =      0.00891  C =      0.00637 [cm^-1]
  Rotational constants: A =    460.49928  B =    267.15401  C =    190.86155 [MHz]
  Nuclear repulsion = 1250.040841353937822

  Charge       = 0
  Multiplicity = 1
  Electrons    = 132
  Nalpha       = 66
  Nbeta        = 66

  ==> Algorithm <==

  SCF Algorithm Type is PK.
  DIIS enabled.
  MOM disabled.
  Fractional occupation disabled.
  Guess Type is SAD.
  Energy threshold   = 1.00e-06
  Density threshold  = 1.00e-10
  Integral threshold = 0.00e+00

  ==> Primary Basis <==

  Basis Set: CC-PVDZ
    Blend: CC-PVDZ
    Number of shells: 168
    Number of basis function: 352
    Number of Cartesian functions: 370
    Spherical Harmonics?: true
    Max angular momentum: 2

  ==> Pre-Iterations <==

   -------------------------------------------------------
    Irrep   Nso     Nmo     Nalpha   Nbeta   Ndocc  Nsocc
   -------------------------------------------------------
     A        352     352       0       0       0       0
   -------------------------------------------------------
    Total     352     352      66      66      66       0
   -------------------------------------------------------

  ==> Integral Setup <==

  Using Yoshimine PK algorithm.
  Sizing the integral batches needed.
  Building batch lookup table.
   Calculation information:
      Number of atoms:                  38
      Number of AO shells:             168
      Number of primitives:            496
      Number of atomic orbitals:       370
      Number of basis functions:       352

      Integral cutoff                 1.00e-12
      Number of threads:                 1

	Batch   1 pq = [       0,    9405] index = [             0,44231715] size =     44231715
	Batch   2 pq = [    9405,   13301] index = [      44231715,88464951] size =     44233236
	Batch   3 pq = [   13301,   16290] index = [      88464951,132690195] size =     44225244
	Batch   4 pq = [   16290,   18810] index = [     132690195,176917455] size =     44227260
	Batch   5 pq = [   18810,   21030] index = [     176917455,221140965] size =     44223510
	Batch   6 pq = [   21030,   23037] index = [     221140965,265363203] size =     44222238
	Batch   7 pq = [   23037,   24883] index = [     265363203,309594286] size =     44231083
	Batch   8 pq = [   24883,   26601] index = [     309594286,353819901] size =     44225615
	Batch   9 pq = [   26601,   28214] index = [     353819901,398029005] size =     44209104
	Batch  10 pq = [   28214,   29740] index = [     398029005,442248670] size =     44219665
	Batch  11 pq = [   29740,   31191] index = [     442248670,486454836] size =     44206166
	Batch  12 pq = [   31191,   32578] index = [     486454836,530679331] size =     44224495
	Batch  13 pq = [   32578,   33908] index = [     530679331,574893186] size =     44213855
	Batch  14 pq = [   33908,   35188] index = [     574893186,619115266] size =     44222080
	Batch  15 pq = [   35188,   36423] index = [     619115266,663335676] size =     44220410
	Batch  16 pq = [   36423,   37617] index = [     663335676,707538153] size =     44202477
	Batch  17 pq = [   37617,   38775] index = [     707538153,751769700] size =     44231547
	Batch  18 pq = [   38775,   39899] index = [     751769700,795985050] size =     44215350
	Batch  19 pq = [   39899,   40992] index = [     795985050,840192528] size =     44207478
	Batch  20 pq = [   40992,   42057] index = [     840192528,884416653] size =     44224125
	Batch  21 pq = [   42057,   43095] index = [     884416653,928611060] size =     44194407
	Batch  22 pq = [   43095,   44109] index = [     928611060,972823995] size =     44212935
	Batch  23 pq = [   44109,   45100] index = [     972823995,1017027550] size =     44203555
	Batch  24 pq = [   45100,   46070] index = [    1017027550,1061245485] size =     44217935
	Batch  25 pq = [   46070,   47020] index = [    1061245485,1105463710] size =     44218225
	Batch  26 pq = [   47020,   47951] index = [    1105463710,1149673176] size =     44209466
	Batch  27 pq = [   47951,   48864] index = [    1149673176,1193869680] size =     44196504
	Batch  28 pq = [   48864,   49761] index = [    1193869680,1238103441] size =     44233761
	Batch  29 pq = [   49761,   50642] index = [    1238103441,1282331403] size =     44227962
	Batch  30 pq = [   50642,   51508] index = [    1282331403,1326562786] size =     44231383
	Batch  31 pq = [   51508,   52359] index = [    1326562786,1370758620] size =     44195834
	Batch  32 pq = [   52359,   53197] index = [    1370758620,1414987003] size =     44228383
	Batch  33 pq = [   53197,   54022] index = [    1414987003,1459215253] size =     44228250
	Batch  34 pq = [   54022,   54834] index = [    1459215253,1503411195] size =     44195942
	Batch  35 pq = [   54834,   55634] index = [    1503411195,1547598795] size =     44187600
	Batch  36 pq = [   55634,   56423] index = [    1547598795,1591805676] size =     44206881
	Batch  37 pq = [   56423,   57201] index = [    1591805676,1636005801] size =     44200125
	Batch  38 pq = [   57201,   57969] index = [    1636005801,1680231465] size =     44225664
	Batch  39 pq = [   57969,   58727] index = [    1680231465,1724459628] size =     44228163
	Batch  40 pq = [   58727,   59475] index = [    1724459628,1768667550] size =     44207922
	Batch  41 pq = [   59475,   60214] index = [    1768667550,1812893005] size =     44225455
	Batch  42 pq = [   60214,   60944] index = [    1812893005,1857116040] size =     44223035
	Batch  43 pq = [   60944,   61665] index = [    1857116040,1901316945] size =     44200905
	Batch  44 pq = [   61665,   62128] index = [    1901316945,1929975256] size =     28658311
  ==> DiskJK: Disk-Based J/K Matrices <==

    J tasked:                  Yes
    K tasked:                  Yes
    wK tasked:                  No
    Memory [MiB]:              375
    Schwarz Cutoff:          1E-12

    OpenMP threads:              1

  Minimum eigenvalue in the overlap matrix is 3.0426030321E-04.
  Using Symmetric Orthogonalization.

  SCF Guess: Superposition of Atomic Densities via on-the-fly atomic UHF.

  ==> Iterations <==

                        Total Energy        Delta E     RMS |[F,P]|

   @RHF iter SAD:  -766.12524214749396   -7.66125e+02   0.00000e+00
   @RHF iter   1:  -766.90186342286972   -7.76621e-01   2.23920e-03 DIIS
   @RHF iter   2:  -767.24780628156930   -3.45943e-01   9.43699e-04 DIIS
   @RHF iter   3:  -767.30219703393186   -5.43908e-02   2.34460e-04 DIIS
   @RHF iter   4:  -767.30706763385513   -4.87060e-03   1.06842e-04 DIIS
   @RHF iter   5:  -767.30789407027635   -8.26436e-04   1.59341e-05 DIIS
   @RHF iter   6:  -767.30792510842628   -3.10381e-05   5.54361e-06 DIIS
   @RHF iter   7:  -767.30792822234889   -3.11392e-06   1.96001e-06 DIIS
   @RHF iter   8:  -767.30792868692663   -4.64578e-07   5.87423e-07 DIIS
   @RHF iter   9:  -767.30792873455312   -4.76265e-08   1.81225e-07 DIIS
   @RHF iter  10:  -767.30792873858559   -4.03247e-09   6.03339e-08 DIIS
   @RHF iter  11:  -767.30792873913254   -5.46947e-10   2.26300e-08 DIIS
   @RHF iter  12:  -767.30792873923929   -1.06752e-10   1.10501e-08 DIIS
   @RHF iter  13:  -767.30792873927589   -3.66072e-11   5.11934e-09 DIIS
   @RHF iter  14:  -767.30792873928920   -1.33014e-11   1.70913e-09 DIIS
   @RHF iter  15:  -767.30792873928613    3.06954e-12   6.35650e-10 DIIS
   @RHF iter  16:  -767.30792873928067    5.45697e-12   2.26881e-10 DIIS
   @RHF iter  17:  -767.30792873929022   -9.54969e-12   8.32463e-11 DIIS
  Energy and wave function converged.

  ==> Post-Iterations <==

    Orbital Energies [Eh]
    ---------------------

    Doubly Occupied:

       1A    -20.588415     2A    -20.578727     3A    -11.304386
       4A    -11.292945     5A    -11.243856     6A    -11.240739
       7A    -11.240254     8A    -11.234828     9A    -11.234468
      10A    -11.233328    11A    -11.230146    12A    -11.227335
      13A    -11.226588    14A    -11.225556    15A    -11.225383
      16A    -11.225125    17A    -11.224786    18A    -11.221732
      19A     -1.405002    20A     -1.393283    21A     -1.157958
      22A     -1.146607    23A     -1.063706    24A     -1.053622
      25A     -1.023436    26A     -1.012049    27A     -0.984226
      28A     -0.973570    29A     -0.864932    30A     -0.857450
      31A     -0.851214    32A     -0.838698    33A     -0.795489
      34A     -0.786498    35A     -0.737309    36A     -0.724982
      37A     -0.678024    38A     -0.667215    39A     -0.652060
      40A     -0.640365    41A     -0.621271    42A     -0.611207
      43A     -0.603289    44A     -0.593088    45A     -0.590664
      46A     -0.589304    47A     -0.585736    48A     -0.580913
      49A     -0.577635    50A     -0.564459    51A     -0.547477
      52A     -0.542015    53A     -0.523756    54A     -0.514800
      55A     -0.504202    56A     -0.493698    57A     -0.483161
      58A     -0.479640    59A     -0.470513    60A     -0.469368
      61A     -0.463192    62A     -0.459530    63A     -0.344459
      64A     -0.332180    65A     -0.306583    66A     -0.297967

    Virtual:

      67A      0.122277    68A      0.135060    69A      0.144507
      70A      0.157732    71A      0.171773    72A      0.176633
      73A      0.186367    74A      0.197483    75A      0.203759
      76A      0.205976    77A      0.222544    78A      0.235060
      79A      0.237406    80A      0.243773    81A      0.250848
      82A      0.253020    83A      0.265537    84A      0.270660
      85A      0.290273    86A      0.298407    87A      0.308022
      88A      0.312630    89A      0.332781    90A      0.347184
      91A      0.357566    92A      0.367600    93A      0.382362
      94A      0.402699    95A      0.415838    96A      0.416846
      97A      0.422532    98A      0.435106    99A      0.465078
     100A      0.482292   101A      0.484268   102A      0.490436
     103A      0.503467   104A      0.504694   105A      0.518220
     106A      0.534814   107A      0.589178   108A      0.600240
     109A      0.607190   110A      0.608655   111A      0.632770
     112A      0.638530   113A      0.643451   114A      0.658526
     115A      0.665719   116A      0.672980   117A      0.679188
     118A      0.690714   119A      0.695841   120A      0.703909
     121A      0.710715   122A      0.719607   123A      0.724803
     124A      0.728236   125A      0.731761   126A      0.736719
     127A      0.753216   128A      0.755553   129A      0.762858
     130A      0.770380   131A      0.781493   132A      0.788119
     133A      0.796372   134A      0.799591   135A      0.808127
     136A      0.811050   137A      0.825304   138A      0.833870
     139A      0.837921   140A      0.842091   141A      0.858139
     142A      0.867165   143A      0.868004   144A      0.869963
     145A      0.879545   146A      0.884325   147A      0.890205
     148A      0.892994   149A      0.895047   150A      0.896538
     151A      0.906061   152A      0.914786   153A      0.917019
     154A      0.917561   155A      0.927996   156A      0.935297
     157A      0.937688   158A      0.942601   159A      0.951014
     160A      0.957022   161A      0.965180   162A      0.971340
     163A      0.984095   164A      0.998459   165A      1.005969
     166A      1.019973   167A      1.033988   168A      1.037406
     169A      1.065173   170A      1.084732   171A      1.106923
     172A      1.108955   173A      1.131425   174A      1.141813
     175A      1.145909   176A      1.149928   177A      1.154303
     178A      1.160343   179A      1.181718   180A      1.190606
     181A      1.205155   182A      1.216877   183A      1.223974
     184A      1.237505   185A      1.251641   186A      1.262638
     187A      1.273703   188A      1.279567   189A      1.282822
     190A      1.286621   191A      1.298112   192A      1.303105
     193A      1.312847   194A      1.319972   195A      1.324266
     196A      1.343265   197A      1.355455   198A      1.359023
     199A      1.363152   200A      1.372203   201A      1.373766
     202A      1.411956   203A      1.432266   204A      1.443022
     205A      1.455494   206A      1.477399   207A      1.485089
     208A      1.496288   209A      1.506797   210A      1.518414
     211A      1.546824   212A      1.558726   213A      1.580773
     214A      1.605730   215A      1.614740   216A      1.623344
     217A      1.627074   218A      1.648053   219A      1.666998
     220A      1.672697   221A      1.690826   222A      1.702289
     223A      1.724686   224A      1.732605   225A      1.748823
     226A      1.751327   227A      1.764017   228A      1.776225
     229A      1.793815   230A      1.801292   231A      1.822140
     232A      1.830664   233A      1.851850   234A      1.854453
     235A      1.861901   236A      1.877237   237A      1.879888
     238A      1.883358   239A      1.893127   240A      1.894464
     241A      1.904391   242A      1.912109   243A      1.914292
     244A      1.916210   245A      1.934862   246A      1.935172
     247A      1.937848   248A      1.943618   249A      1.950054
     250A      1.950808   251A      1.961991   252A      1.968044
     253A      1.976394   254A      1.979273   255A      1.992388
     256A      1.998642   257A      2.007597   258A      2.013584
     259A      2.024868   260A      2.033753   261A      2.041995
     262A      2.052691   263A      2.064257   264A      2.066414
     265A      2.071651   266A      2.072174   267A      2.078796
     268A      2.083981   269A      2.093261   270A      2.101003
     271A      2.110694   272A      2.122074   273A      2.129854
     274A      2.147344   275A      2.156110   276A      2.168005
     277A      2.184547   278A      2.193210   279A      2.202536
     280A      2.222013   281A      2.238317   282A      2.248129
     283A      2.261560   284A      2.270019   285A      2.287677
     286A      2.293845   287A      2.310342   288A      2.321166
     289A      2.322642   290A      2.335318   291A      2.350762
     292A      2.361259   293A      2.367235   294A      2.378572
     295A      2.397835   296A      2.445323   297A      2.451992
     298A      2.453476   299A      2.461627   300A      2.463787
     301A      2.479758   302A      2.494744   303A      2.516554
     304A      2.530111   305A      2.537312   306A      2.551402
     307A      2.553106   308A      2.573064   309A      2.579797
     310A      2.604350   311A      2.637013   312A      2.647620
     313A      2.649474   314A      2.673753   315A      2.757692
     316A      2.767734   317A      2.774987   318A      2.781211
     319A      2.793967   320A      2.811268   321A      2.822989
     322A      2.831877   323A      2.842721   324A      2.864078
     325A      2.866765   326A      2.873202   327A      2.905599
     328A      2.938968   329A      2.955837   330A      2.970482
     331A      2.996488   332A      3.010486   333A      3.024892
     334A      3.045841   335A      3.094413   336A      3.100032
     337A      3.154653   338A      3.191956   339A      3.246649
     340A      3.266492   341A      3.295565   342A      3.299016
     343A      3.342118   344A      3.348259   345A      3.570006
     346A      3.587409   347A      3.674103   348A      3.678291
     349A      3.968142   350A      3.973119   351A      4.174557
     352A      4.190835

    Final Occupation by Irrep:
              A
    DOCC [    66 ]

  @RHF Final Energy:  -767.30792873929022

   => Energetics <=

    Nuclear Repulsion Energy =           1250.0408413539378216
    One-Electron Energy =               -3525.7847347935735343
    Two-Electron Energy =                1508.4359647003457212
    Total Energy =                       -767.3079287392902188

Computation Completed

Properties will be evaluated at   0.000000,   0.000000,   0.000000 [a0]

Properties computed using the SCF density matrix

  Nuclear Dipole Moment: [e a0]
     X:    -4.9007      Y:   -16.4757      Z:     9.6689

  Electronic Dipole Moment: [e a0]
     X:     4.3223      Y:    16.5204      Z:    -8.9494

  Dipole Moment: [e a0]
     X:    -0.5784      Y:     0.0446      Z:     0.7195     Total:     0.9242

  Dipole Moment: [D]
     X:    -1.4701      Y:     0.1134      Z:     1.8288     Total:     2.3492

*** tstop() called on ds3 at Tue Apr 28 07:57:36 2020
Module time:
	user time   =     550.36 seconds =       9.17 minutes
	system time =     512.64 seconds =       8.54 minutes
	total time  =      21036 seconds =     350.60 minutes
Total time:
	user time   =     550.36 seconds =       9.17 minutes
	system time =     512.64 seconds =       8.54 minutes
	total time  =      21036 seconds =     350.60 minutes
                                     G D M A

                                 by Anthony Stone

                           version 2.2.06, 22 June 2011

               Distributed Multipoles from Gaussian wavefunctions

Starting at 7:57:36 on 28 Apr 2020

Using SCF density matrix from file ./SSI/SSI-163TYR-178TYR-1-dimer.test.10516.fchk

                         Distributed Multipole Analysis

Standard DMA

Positions and radii in angstrom
Multipole moments in atomic units, ea_0^k for rank k

C          x =  0.438423  y = -1.037142  z =  2.331998 angstrom
           Maximum rank =  0   Radius =  0.650 angstrom
                   Q00  =  -0.016273

C          x =  0.090423  y = -1.599142  z =  3.704998 angstrom
           Maximum rank =  0   Radius =  0.650 angstrom
                   Q00  =  -0.226269

C          x =  0.224423  y =  0.442858  z =  2.108998 angstrom
           Maximum rank =  0   Radius =  0.650 angstrom
                   Q00  =  -0.156663

C          x = -1.060577  y =  0.983858  z =  2.076998 angstrom
           Maximum rank =  0   Radius =  0.650 angstrom
                   Q00  =  -0.043678

C          x =  1.307423  y =  1.281858  z =  1.867998 angstrom
           Maximum rank =  0   Radius =  0.650 angstrom
                   Q00  =   0.051555

C          x = -1.259577  y =  2.343858  z =  1.839998 angstrom
           Maximum rank =  0   Radius =  0.650 angstrom
                   Q00  =  -0.199385

C          x =  1.120423  y =  2.639858  z =  1.635998 angstrom
           Maximum rank =  0   Radius =  0.650 angstrom
                   Q00  =  -0.115306

C          x = -0.161577  y =  3.171858  z =  1.618998 angstrom
           Maximum rank =  0   Radius =  0.650 angstrom
                   Q00  =   0.324094

O          x = -0.334577  y =  4.504858  z =  1.386998 angstrom
           Maximum rank =  0   Radius =  0.650 angstrom
                   Q00  =  -0.676476

H          x =  1.463423  y = -1.303142  z =  2.091998 angstrom
           Maximum rank =  0   Radius =  0.325 angstrom
                   Q00  =   0.068179

H          x = -0.207577  y = -1.540142  z =  1.629998 angstrom
           Maximum rank =  0   Radius =  0.325 angstrom
                   Q00  =   0.045110

H          x = -0.934577  y = -1.330142  z =  3.942998 angstrom
           Maximum rank =  0   Radius =  0.325 angstrom
                   Q00  =   0.078626

H          x = -1.894577  y =  0.349858  z =  2.306998 angstrom
           Maximum rank =  0   Radius =  0.325 angstrom
                   Q00  =   0.070700

H          x =  2.305423  y =  0.876858  z =  1.876998 angstrom
           Maximum rank =  0   Radius =  0.325 angstrom
                   Q00  =   0.066976

H          x = -2.259577  y =  2.752858  z =  1.838998 angstrom
           Maximum rank =  0   Radius =  0.325 angstrom
                   Q00  =   0.074357

H          x =  1.960423  y =  3.296858  z =  1.492998 angstrom
           Maximum rank =  0   Radius =  0.325 angstrom
                   Q00  =   0.080324

H          x = -1.259577  y =  4.759858  z =  1.451998 angstrom
           Maximum rank =  0   Radius =  0.325 angstrom
                   Q00  =   0.406070

H          x =  0.765243  y = -1.187922  z =  4.470192 angstrom
           Maximum rank =  0   Radius =  0.325 angstrom
                   Q00  =   0.084935

H          x =  0.132983  y = -2.694852  z =  3.617717 angstrom
           Maximum rank =  0   Radius =  0.325 angstrom
                   Q00  =   0.082085

C          x = -0.501577  y = -3.380142  z = -0.535002 angstrom
           Maximum rank =  0   Radius =  0.650 angstrom
                   Q00  =  -0.055059

C          x = -1.998577  y = -3.675142  z = -0.414002 angstrom
           Maximum rank =  0   Radius =  0.650 angstrom
                   Q00  =  -0.231757

C          x = -0.134577  y = -2.228142  z = -1.450002 angstrom
           Maximum rank =  0   Radius =  0.650 angstrom
                   Q00  =  -0.147268

C          x = -0.348577  y = -0.909142  z = -1.061002 angstrom
           Maximum rank =  0   Radius =  0.650 angstrom
                   Q00  =   0.032258

C          x =  0.458423  y = -2.468142  z = -2.692002 angstrom
           Maximum rank =  0   Radius =  0.650 angstrom
                   Q00  =  -0.010792

C          x =  0.018423  y =  0.150858  z = -1.881002 angstrom
           Maximum rank =  0   Radius =  0.650 angstrom
                   Q00  =  -0.172763

C          x =  0.822423  y = -1.409142  z = -3.526002 angstrom
           Maximum rank =  0   Radius =  0.650 angstrom
                   Q00  =  -0.123394

C          x =  0.600423  y = -0.097142  z = -3.118002 angstrom
           Maximum rank =  0   Radius =  0.650 angstrom
                   Q00  =   0.306650

O          x =  0.952423  y =  0.946858  z = -3.920002 angstrom
           Maximum rank =  0   Radius =  0.650 angstrom
                   Q00  =  -0.672706

H          x = -0.053577  y = -3.248142  z =  0.442998 angstrom
           Maximum rank =  0   Radius =  0.325 angstrom
                   Q00  =   0.065548

H          x = -0.001577  y = -4.262142  z = -0.941002 angstrom
           Maximum rank =  0   Radius =  0.325 angstrom
                   Q00  =   0.064041

H          x = -2.477577  y = -3.271142  z = -1.306002 angstrom
           Maximum rank =  0   Radius =  0.325 angstrom
                   Q00  =   0.087683

H          x = -0.866577  y = -0.686142  z = -0.144002 angstrom
           Maximum rank =  0   Radius =  0.325 angstrom
                   Q00  =   0.063982

H          x =  0.637423  y = -3.485142  z = -3.018002 angstrom
           Maximum rank =  0   Radius =  0.325 angstrom
                   Q00  =   0.062934

H          x = -0.156577  y =  1.167858  z = -1.560002 angstrom
           Maximum rank =  0   Radius =  0.325 angstrom
                   Q00  =   0.075960

H          x =  1.278423  y = -1.598142  z = -4.487002 angstrom
           Maximum rank =  0   Radius =  0.325 angstrom
                   Q00  =   0.078628

H          x =  0.927423  y =  1.781858  z = -3.422002 angstrom
           Maximum rank =  0   Radius =  0.325 angstrom
                   Q00  =   0.410018

H          x = -2.435477  y = -3.217972  z =  0.486065 angstrom
           Maximum rank =  0   Radius =  0.325 angstrom
                   Q00  =   0.078397

H          x = -2.154277  y = -4.763622  z = -0.445142 angstrom
           Maximum rank =  0   Radius =  0.325 angstrom
                   Q00  =   0.088683

Total multipoles referred to origin at
           x =   0.000000,  y =    0.000000,  z =    0.000000 angstrom
                   Q00  =  -0.000000

Finished at 7:57:36 on 28 Apr 2020

  DMA results are available in the Python driver through the
	  variable('DMA DISTRIBUTED MULTIPOLES')
  and
	  variable('DMA TOTAL MULTIPOLES')
  commands.

    Psi4 stopped on: Tuesday, 28 April 2020 07:57AM
    Psi4 wall time for execution: 5:50:36.30

*** Psi4 exiting successfully. Buy a developer a beer!
