                               Psi4 1.3.2 release

  ==> Input File <==

--------------------------------------------------------------------------
import numpy as np
set {scf_type pk
basis cc-pvdz
d_convergence 10
gdma_switch   0
gdma_limit    0
gdma_origin   [ 0.0,  0.0,  0.0 ]
}
molecule test {
    units Angstrom
    -1 1
    --
    -1 1
    C                2.941803573916663     0.602614913629049    -0.380493331901536
    C                1.574803573916663     1.222614913629050    -0.149493331901536
    O                0.924803573916663     0.887614913629050     0.864506668098464
    O                1.155803573916663     2.034614913629050    -1.006493331901536
    H                3.677803573916663     1.381614913629050    -0.570493331901536
    H                2.874803573916663    -0.014385086370951    -1.279493331901536
    H                3.279183573916663    -0.032575086370951     0.451799268098464
    C               -1.359196426083337    -1.083385086370950    -0.045493331901536
    C               -1.057196426083337    -2.474385086370950     0.558506668098464
    C               -2.625196426083338    -1.107385086370950    -0.908493331901536
    O               -1.495196426083337    -0.110385086370951     0.982506668098464
    H               -0.522196426083337    -0.791385086370951    -0.681493331901536
    H               -0.178196426083337    -2.382385086370950     1.197506668098464
    H               -3.507196426083337    -1.311385086370950    -0.302493331901536
    H               -2.750196426083337    -0.132385086370951    -1.378493331901536
    H               -2.543196426083338    -1.851385086370950    -1.699493331901536
    H               -0.615196426083337     0.335614913629049     1.013506668098464
    H               -0.861496426083337    -3.190708086370950    -0.253023331901536
    H               -1.894136426083337    -2.822147086370951     1.181881268098464

}
e, wfn = energy('scf', return_wfn=True)
gdma(wfn)
dmavals = variable('DMA DISTRIBUTED MULTIPOLES')
charges = np.array(dmavals)
print(charges)
np.save('SSI-048ASP-081THR-1-dimer.npy', np.array(charges))--------------------------------------------------------------------------

*** tstart() called on ds3
*** at Mon Apr 27 00:58:16 2020

   => Loading Basis Set <=

    Name: CC-PVDZ
    Role: ORBITAL
    Keyword: BASIS
    atoms 1-2, 8-10  entry C          line   138 file /theoryfs2/ds/metcalf/miniconda2/envs/tf2gpu/share/psi4/basis/cc-pvdz.gbs
    atoms 3-4, 11    entry O          line   198 file /theoryfs2/ds/metcalf/miniconda2/envs/tf2gpu/share/psi4/basis/cc-pvdz.gbs
    atoms 5-7, 12-19 entry H          line    22 file /theoryfs2/ds/metcalf/miniconda2/envs/tf2gpu/share/psi4/basis/cc-pvdz.gbs

         ---------------------------------------------------------
                                   SCF
               by Justin Turney, Rob Parrish, Andy Simmonett
                          and Daniel G. A. Smith
                              RHF Reference
                        1 Threads,    500 MiB Core
         ---------------------------------------------------------

  ==> Geometry <==

    Molecular point group: c1
    Full point group: C1

    Geometry (in Angstrom), charge = -1, multiplicity = 1:

       Center              X                  Y                   Z               Mass
    ------------   -----------------  -----------------  -----------------  -----------------
         C            2.941803573917     0.602614913629    -0.380493331902    12.000000000000
         C            1.574803573917     1.222614913629    -0.149493331902    12.000000000000
         O            0.924803573917     0.887614913629     0.864506668098    15.994914619570
         O            1.155803573917     2.034614913629    -1.006493331902    15.994914619570
         H            3.677803573917     1.381614913629    -0.570493331902     1.007825032230
         H            2.874803573917    -0.014385086371    -1.279493331902     1.007825032230
         H            3.279183573917    -0.032575086371     0.451799268098     1.007825032230
         C           -1.359196426083    -1.083385086371    -0.045493331902    12.000000000000
         C           -1.057196426083    -2.474385086371     0.558506668098    12.000000000000
         C           -2.625196426083    -1.107385086371    -0.908493331902    12.000000000000
         O           -1.495196426083    -0.110385086371     0.982506668098    15.994914619570
         H           -0.522196426083    -0.791385086371    -0.681493331902     1.007825032230
         H           -0.178196426083    -2.382385086371     1.197506668098     1.007825032230
         H           -3.507196426083    -1.311385086371    -0.302493331902     1.007825032230
         H           -2.750196426083    -0.132385086371    -1.378493331902     1.007825032230
         H           -2.543196426083    -1.851385086371    -1.699493331902     1.007825032230
         H           -0.615196426083     0.335614913629     1.013506668098     1.007825032230
         H           -0.861496426083    -3.190708086371    -0.253023331902     1.007825032230
         H           -1.894136426083    -2.822147086371     1.181881268098     1.007825032230

  Running in c1 symmetry.

  Rotational constants: A =      0.10502  B =      0.02839  C =      0.02666 [cm^-1]
  Rotational constants: A =   3148.49950  B =    850.97536  C =    799.28525 [MHz]
  Nuclear repulsion =  379.820681219473897

  Charge       = -1
  Multiplicity = 1
  Electrons    = 66
  Nalpha       = 33
  Nbeta        = 33

  ==> Algorithm <==

  SCF Algorithm Type is PK.
  DIIS enabled.
  MOM disabled.
  Fractional occupation disabled.
  Guess Type is SAD.
  Energy threshold   = 1.00e-06
  Density threshold  = 1.00e-10
  Integral threshold = 0.00e+00

  ==> Primary Basis <==

  Basis Set: CC-PVDZ
    Blend: CC-PVDZ
    Number of shells: 81
    Number of basis function: 167
    Number of Cartesian functions: 175
    Spherical Harmonics?: true
    Max angular momentum: 2

  ==> Pre-Iterations <==

   -------------------------------------------------------
    Irrep   Nso     Nmo     Nalpha   Nbeta   Ndocc  Nsocc
   -------------------------------------------------------
     A        167     167       0       0       0       0
   -------------------------------------------------------
    Total     167     167      33      33      33       0
   -------------------------------------------------------

  ==> Integral Setup <==

  Using integral reordering PK algorithm.
  Sizing the integral batches needed.
  Building batch lookup table.
   Calculation information:
      Number of atoms:                  19
      Number of AO shells:              81
      Number of primitives:            231
      Number of atomic orbitals:       175
      Number of basis functions:       167

      Integral cutoff                 1.00e-12
      Number of threads:                 1

	Batch   1 pq = [       0,    9405] index = [             0,44231715] size =     44231715
	Batch   2 pq = [    9405,   13301] index = [      44231715,88464951] size =     44233236
	Batch   3 pq = [   13301,   14028] index = [      88464951,98399406] size =      9934455
  Task number: 9
  Buffer size: 11059200
  Buffer per thread: 2
  We computed 4550235 shell quartets total.
  Whereas there are 5516181 unique shell quartets.

  ==> DiskJK: Disk-Based J/K Matrices <==

    J tasked:                  Yes
    K tasked:                  Yes
    wK tasked:                  No
    Memory [MiB]:              375
    Schwarz Cutoff:          1E-12

    OpenMP threads:              1

  Minimum eigenvalue in the overlap matrix is 4.6899298552E-03.
  Using Symmetric Orthogonalization.

  SCF Guess: Superposition of Atomic Densities via on-the-fly atomic UHF.

  ==> Iterations <==

                        Total Energy        Delta E     RMS |[F,P]|

   @RHF iter SAD:  -418.64805632467971   -4.18648e+02   0.00000e+00
   @RHF iter   1:  -420.09112650952545   -1.44307e+00   4.69479e-03 DIIS
   @RHF iter   2:  -420.33053706886653   -2.39411e-01   2.56144e-03 DIIS
   @RHF iter   3:  -420.39713970181975   -6.66026e-02   4.11909e-04 DIIS
   @RHF iter   4:  -420.40025532898386   -3.11563e-03   1.57922e-04 DIIS
   @RHF iter   5:  -420.40070129746670   -4.45968e-04   3.02155e-05 DIIS
   @RHF iter   6:  -420.40071716726601   -1.58698e-05   1.30235e-05 DIIS
   @RHF iter   7:  -420.40071973612919   -2.56886e-06   2.75325e-06 DIIS
   @RHF iter   8:  -420.40071996412354   -2.27994e-07   1.14269e-06 DIIS
   @RHF iter   9:  -420.40072000198103   -3.78575e-08   4.54021e-07 DIIS
   @RHF iter  10:  -420.40072001017489   -8.19387e-09   1.69944e-07 DIIS
   @RHF iter  11:  -420.40072001135673   -1.18183e-09   6.10596e-08 DIIS
   @RHF iter  12:  -420.40072001147962   -1.22895e-10   1.98848e-08 DIIS
   @RHF iter  13:  -420.40072001149053   -1.09139e-11   4.89025e-09 DIIS
   @RHF iter  14:  -420.40072001149247   -1.93268e-12   1.36235e-09 DIIS
   @RHF iter  15:  -420.40072001149377   -1.30740e-12   3.93481e-10 DIIS
   @RHF iter  16:  -420.40072001149485   -1.08002e-12   1.25877e-10 DIIS
   @RHF iter  17:  -420.40072001149088    3.97904e-12   5.09659e-11 DIIS
  Energy and wave function converged.

  ==> Post-Iterations <==

    Orbital Energies [Eh]
    ---------------------

    Doubly Occupied:

       1A    -20.360029     2A    -20.296227     3A    -20.282481
       4A    -11.144979     5A    -11.130145     6A    -11.091949
       7A    -11.090020     8A    -11.067841     9A     -1.183824
      10A     -1.168022    11A     -1.067248    12A     -0.895670
      13A     -0.816175    14A     -0.804153    15A     -0.646234
      16A     -0.555982    17A     -0.517842    18A     -0.466307
      19A     -0.453214    20A     -0.438647    21A     -0.431208
      22A     -0.429231    23A     -0.414303    24A     -0.408359
      25A     -0.372862    26A     -0.365518    27A     -0.365033
      28A     -0.328947    29A     -0.309976    30A     -0.262768
      31A     -0.213918    32A     -0.200024    33A     -0.192719

    Virtual:

      34A      0.303946    35A      0.332183    36A      0.352842
      37A      0.357570    38A      0.377853    39A      0.379010
      40A      0.393859    41A      0.414028    42A      0.416999
      43A      0.422903    44A      0.464994    45A      0.494735
      46A      0.510294    47A      0.551653    48A      0.556782
      49A      0.605538    50A      0.678743    51A      0.691005
      52A      0.724029    53A      0.741957    54A      0.797340
      55A      0.809098    56A      0.818968    57A      0.853697
      58A      0.864247    59A      0.899780    60A      0.927496
      61A      0.942196    62A      0.961524    63A      0.978304
      64A      0.990862    65A      0.999526    66A      1.010675
      67A      1.012831    68A      1.023111    69A      1.028899
      70A      1.031858    71A      1.038232    72A      1.042895
      73A      1.066510    74A      1.074700    75A      1.087427
      76A      1.109295    77A      1.132871    78A      1.217333
      79A      1.264974    80A      1.275759    81A      1.302252
      82A      1.324077    83A      1.354919    84A      1.390418
      85A      1.448022    86A      1.496843    87A      1.513258
      88A      1.540518    89A      1.558309    90A      1.579399
      91A      1.590911    92A      1.616793    93A      1.642192
      94A      1.654053    95A      1.685567    96A      1.701722
      97A      1.733763    98A      1.798677    99A      1.803649
     100A      1.817684   101A      1.819776   102A      1.828215
     103A      1.833495   104A      1.857447   105A      1.915801
     106A      1.978236   107A      1.998671   108A      2.013133
     109A      2.027664   110A      2.036484   111A      2.047463
     112A      2.070411   113A      2.081268   114A      2.103158
     115A      2.114780   116A      2.119346   117A      2.128866
     118A      2.144321   119A      2.170675   120A      2.181738
     121A      2.196115   122A      2.243256   123A      2.254751
     124A      2.284798   125A      2.311161   126A      2.313512
     127A      2.373407   128A      2.417722   129A      2.429264
     130A      2.433900   131A      2.479765   132A      2.511116
     133A      2.574538   134A      2.621454   135A      2.632782
     136A      2.647694   137A      2.684602   138A      2.696616
     139A      2.719581   140A      2.751390   141A      2.808014
     142A      2.871876   143A      2.879757   144A      2.896244
     145A      2.904159   146A      2.907753   147A      2.957157
     148A      2.965246   149A      2.978866   150A      3.008435
     151A      3.020278   152A      3.147991   153A      3.224183
     154A      3.247305   155A      3.333035   156A      3.402616
     157A      3.508631   158A      3.584825   159A      3.611512
     160A      3.691527   161A      3.765495   162A      3.792904
     163A      3.858147   164A      4.049114   165A      4.064038
     166A      4.152199   167A      4.396007

    Final Occupation by Irrep:
              A
    DOCC [    33 ]

  @RHF Final Energy:  -420.40072001149088

   => Energetics <=

    Nuclear Repulsion Energy =            379.8206812194738973
    One-Electron Energy =               -1340.8990974162886687
    Two-Electron Energy =                 540.6776961853238390
    Total Energy =                       -420.4007200114908755

Computation Completed

Properties will be evaluated at   0.000000,   0.000000,   0.000000 [a0]

Properties computed using the SCF density matrix

  Nuclear Dipole Moment: [e a0]
     X:    -2.8471      Y:   -10.1220      Z:    -2.1712

  Electronic Dipole Moment: [e a0]
     X:     2.5191      Y:     7.9267      Z:     1.8503

  Dipole Moment: [e a0]
     X:    -0.3280      Y:    -2.1953      Z:    -0.3209     Total:     2.2427

  Dipole Moment: [D]
     X:    -0.8337      Y:    -5.5799      Z:    -0.8155     Total:     5.7005

*** tstop() called on ds3 at Mon Apr 27 01:01:02 2020
Module time:
	user time   =      31.49 seconds =       0.52 minutes
	system time =      13.33 seconds =       0.22 minutes
	total time  =        166 seconds =       2.77 minutes
Total time:
	user time   =      31.49 seconds =       0.52 minutes
	system time =      13.33 seconds =       0.22 minutes
	total time  =        166 seconds =       2.77 minutes
                                     G D M A

                                 by Anthony Stone

                           version 2.2.06, 22 June 2011

               Distributed Multipoles from Gaussian wavefunctions

Starting at 1:1:2 on 27 Apr 2020

Using SCF density matrix from file ./SSI/SSI-048ASP-081THR-1-dimer.test.11852.fchk

                         Distributed Multipole Analysis

Standard DMA

Positions and radii in angstrom
Multipole moments in atomic units, ea_0^k for rank k

C          x =  2.941804  y =  0.602615  z = -0.380493 angstrom
           Maximum rank =  0   Radius =  0.650 angstrom
                   Q00  =  -0.279230

C          x =  1.574804  y =  1.222615  z = -0.149493 angstrom
           Maximum rank =  0   Radius =  0.650 angstrom
                   Q00  =   0.951719

O          x =  0.924804  y =  0.887615  z =  0.864507 angstrom
           Maximum rank =  0   Radius =  0.650 angstrom
                   Q00  =  -0.951246

O          x =  1.155804  y =  2.034615  z = -1.006493 angstrom
           Maximum rank =  0   Radius =  0.650 angstrom
                   Q00  =  -0.905744

H          x =  3.677804  y =  1.381615  z = -0.570493 angstrom
           Maximum rank =  0   Radius =  0.325 angstrom
                   Q00  =   0.075277

H          x =  2.874804  y = -0.014385  z = -1.279493 angstrom
           Maximum rank =  0   Radius =  0.325 angstrom
                   Q00  =   0.078792

H          x =  3.279184  y = -0.032575  z =  0.451799 angstrom
           Maximum rank =  0   Radius =  0.325 angstrom
                   Q00  =   0.056364

C          x = -1.359196  y = -1.083385  z = -0.045493 angstrom
           Maximum rank =  0   Radius =  0.650 angstrom
                   Q00  =   0.263096

C          x = -1.057196  y = -2.474385  z =  0.558507 angstrom
           Maximum rank =  0   Radius =  0.650 angstrom
                   Q00  =  -0.275848

C          x = -2.625196  y = -1.107385  z = -0.908493 angstrom
           Maximum rank =  0   Radius =  0.650 angstrom
                   Q00  =  -0.253820

O          x = -1.495196  y = -0.110385  z =  0.982507 angstrom
           Maximum rank =  0   Radius =  0.650 angstrom
                   Q00  =  -0.728667

H          x = -0.522196  y = -0.791385  z = -0.681493 angstrom
           Maximum rank =  0   Radius =  0.325 angstrom
                   Q00  =   0.016182

H          x = -0.178196  y = -2.382385  z =  1.197507 angstrom
           Maximum rank =  0   Radius =  0.325 angstrom
                   Q00  =   0.089164

H          x = -3.507196  y = -1.311385  z = -0.302493 angstrom
           Maximum rank =  0   Radius =  0.325 angstrom
                   Q00  =   0.066008

H          x = -2.750196  y = -0.132385  z = -1.378493 angstrom
           Maximum rank =  0   Radius =  0.325 angstrom
                   Q00  =   0.089659

H          x = -2.543196  y = -1.851385  z = -1.699493 angstrom
           Maximum rank =  0   Radius =  0.325 angstrom
                   Q00  =   0.046175

H          x = -0.615196  y =  0.335615  z =  1.013507 angstrom
           Maximum rank =  0   Radius =  0.325 angstrom
                   Q00  =   0.556334

H          x = -0.861496  y = -3.190708  z = -0.253023 angstrom
           Maximum rank =  0   Radius =  0.325 angstrom
                   Q00  =   0.043305

H          x = -1.894136  y = -2.822147  z =  1.181881 angstrom
           Maximum rank =  0   Radius =  0.325 angstrom
                   Q00  =   0.062479

Total multipoles referred to origin at
           x =   0.000000,  y =    0.000000,  z =    0.000000 angstrom
                   Q00  =  -1.000000

Finished at 1:1:2 on 27 Apr 2020

  DMA results are available in the Python driver through the
	  variable('DMA DISTRIBUTED MULTIPOLES')
  and
	  variable('DMA TOTAL MULTIPOLES')
  commands.

    Psi4 stopped on: Monday, 27 April 2020 01:01AM
    Psi4 wall time for execution: 0:02:46.78

*** Psi4 exiting successfully. Buy a developer a beer!
