                               Psi4 1.3.2 release

  ==> Input File <==

--------------------------------------------------------------------------
import numpy as np
set {scf_type pk
basis cc-pvdz
d_convergence 10
gdma_switch   0
gdma_limit    0
gdma_origin   [ 0.0,  0.0,  0.0 ]
}
molecule test {
    units Angstrom
    0 1
    --
    0 1
    C                2.039017268475651    -2.748704446325211     4.302336441146411
    C               -0.552982731524349    -2.084704446325211     1.591336441146412
    C                0.291017268475651    -1.888704446325211     2.687336441146412
    C               -0.608982731524349    -3.298704446325210     0.944336441146412
    C                1.065017268475651    -2.953704446325211     3.165336441146412
    C                0.093017268475651    -4.379704446325211     1.444336441146412
    C                0.963017268475651    -4.187704446325212     2.548336441146412
    H               -1.124982731524349    -1.251704446325211     1.210336441146412
    H                0.337017268475651    -0.930704446325211     3.168336441146412
    H               -1.242982731524349    -3.418704446325211     0.076336441146412
    H                0.032017268475651    -5.329704446325210     0.944336441146412
    H                2.381017268475651    -1.712704446325211     4.274336441146411
    H                2.910017268475651    -3.385704446325211     4.153336441146412
    H                1.558017268475651    -5.016704446325211     2.904336441146412
    H                1.621787268475651    -2.954384446325211     5.299136441146412
    C                2.510017268475651     2.780295553674789    -1.031663558853588
    C                0.038017268475651     1.968295553674789    -1.515663558853588
    C                1.058017268475651     2.993295553674789    -1.459663558853588
    C               -1.142982731524349     2.583295553674789    -2.019663558853588
    C                0.464017268475651     4.143295553674790    -1.913663558853588
    C               -1.200982731524349    -0.105704446325211    -1.412663558853588
    C               -2.346982731524349     0.563295553674789    -1.904663558853588
    C                0.018017268475651     0.571295553674789    -1.245663558853588
    C               -2.332982731524349     1.897295553674789    -2.207663558853588
    N               -0.855982731524349     3.900295553674789    -2.261663558853588
    H               -1.256982731524349    -1.163704446325211    -1.199663558853588
    H               -3.255982731524349    -0.002704446325211    -2.059663558853588
    H                0.900017268475651     0.060295553674789    -0.886663558853588
    H               -3.199982731524349     2.393295553674789    -2.612663558853588
    H                2.545017268475651     2.049295553674789    -0.224663558853588
    H                2.875017268475651     3.721295553674789    -0.635663558853588
    H                0.963017268475651     5.103295553674789    -2.001663558853588
    H               -1.495982731524349     4.603295553674790    -2.610663558853588
    H                3.140877268475651     2.424725553674789    -1.859664558853588

}
e, wfn = energy('scf', return_wfn=True)
gdma(wfn)
dmavals = variable('DMA DISTRIBUTED MULTIPOLES')
charges = np.array(dmavals)
print(charges)
np.save('SSI-184PHE-255TRP-1-dimer.npy', np.array(charges))--------------------------------------------------------------------------

*** tstart() called on ds3
*** at Mon Apr 27 03:44:06 2020

   => Loading Basis Set <=

    Name: CC-PVDZ
    Role: ORBITAL
    Keyword: BASIS
    atoms 1-7, 16-24  entry C          line   138 file /theoryfs2/ds/metcalf/miniconda2/envs/tf2gpu/share/psi4/basis/cc-pvdz.gbs
    atoms 8-15, 26-34 entry H          line    22 file /theoryfs2/ds/metcalf/miniconda2/envs/tf2gpu/share/psi4/basis/cc-pvdz.gbs
    atoms 25          entry N          line   168 file /theoryfs2/ds/metcalf/miniconda2/envs/tf2gpu/share/psi4/basis/cc-pvdz.gbs

         ---------------------------------------------------------
                                   SCF
               by Justin Turney, Rob Parrish, Andy Simmonett
                          and Daniel G. A. Smith
                              RHF Reference
                        1 Threads,    500 MiB Core
         ---------------------------------------------------------

  ==> Geometry <==

    Molecular point group: c1
    Full point group: C1

    Geometry (in Angstrom), charge = 0, multiplicity = 1:

       Center              X                  Y                   Z               Mass
    ------------   -----------------  -----------------  -----------------  -----------------
         C            2.039017268476    -2.748704446325     4.302336441146    12.000000000000
         C           -0.552982731524    -2.084704446325     1.591336441146    12.000000000000
         C            0.291017268476    -1.888704446325     2.687336441146    12.000000000000
         C           -0.608982731524    -3.298704446325     0.944336441146    12.000000000000
         C            1.065017268476    -2.953704446325     3.165336441146    12.000000000000
         C            0.093017268476    -4.379704446325     1.444336441146    12.000000000000
         C            0.963017268476    -4.187704446325     2.548336441146    12.000000000000
         H           -1.124982731524    -1.251704446325     1.210336441146     1.007825032230
         H            0.337017268476    -0.930704446325     3.168336441146     1.007825032230
         H           -1.242982731524    -3.418704446325     0.076336441146     1.007825032230
         H            0.032017268476    -5.329704446325     0.944336441146     1.007825032230
         H            2.381017268476    -1.712704446325     4.274336441146     1.007825032230
         H            2.910017268476    -3.385704446325     4.153336441146     1.007825032230
         H            1.558017268476    -5.016704446325     2.904336441146     1.007825032230
         H            1.621787268476    -2.954384446325     5.299136441146     1.007825032230
         C            2.510017268476     2.780295553675    -1.031663558854    12.000000000000
         C            0.038017268476     1.968295553675    -1.515663558854    12.000000000000
         C            1.058017268476     2.993295553675    -1.459663558854    12.000000000000
         C           -1.142982731524     2.583295553675    -2.019663558854    12.000000000000
         C            0.464017268476     4.143295553675    -1.913663558854    12.000000000000
         C           -1.200982731524    -0.105704446325    -1.412663558854    12.000000000000
         C           -2.346982731524     0.563295553675    -1.904663558854    12.000000000000
         C            0.018017268476     0.571295553675    -1.245663558854    12.000000000000
         C           -2.332982731524     1.897295553675    -2.207663558854    12.000000000000
         N           -0.855982731524     3.900295553675    -2.261663558854    14.003074004430
         H           -1.256982731524    -1.163704446325    -1.199663558854     1.007825032230
         H           -3.255982731524    -0.002704446325    -2.059663558854     1.007825032230
         H            0.900017268476     0.060295553675    -0.886663558854     1.007825032230
         H           -3.199982731524     2.393295553675    -2.612663558854     1.007825032230
         H            2.545017268476     2.049295553675    -0.224663558854     1.007825032230
         H            2.875017268476     3.721295553675    -0.635663558854     1.007825032230
         H            0.963017268476     5.103295553675    -2.001663558854     1.007825032230
         H           -1.495982731524     4.603295553675    -2.610663558854     1.007825032230
         H            3.140877268476     2.424725553675    -1.859664558854     1.007825032230

  Running in c1 symmetry.

  Rotational constants: A =      0.02818  B =      0.00602  C =      0.00522 [cm^-1]
  Rotational constants: A =    844.81337  B =    180.32788  C =    156.58644 [MHz]
  Nuclear repulsion = 1028.085352354702309

  Charge       = 0
  Multiplicity = 1
  Electrons    = 120
  Nalpha       = 60
  Nbeta        = 60

  ==> Algorithm <==

  SCF Algorithm Type is PK.
  DIIS enabled.
  MOM disabled.
  Fractional occupation disabled.
  Guess Type is SAD.
  Energy threshold   = 1.00e-06
  Density threshold  = 1.00e-10
  Integral threshold = 0.00e+00

  ==> Primary Basis <==

  Basis Set: CC-PVDZ
    Blend: CC-PVDZ
    Number of shells: 153
    Number of basis function: 323
    Number of Cartesian functions: 340
    Spherical Harmonics?: true
    Max angular momentum: 2

  ==> Pre-Iterations <==

   -------------------------------------------------------
    Irrep   Nso     Nmo     Nalpha   Nbeta   Ndocc  Nsocc
   -------------------------------------------------------
     A        323     323       0       0       0       0
   -------------------------------------------------------
    Total     323     323      60      60      60       0
   -------------------------------------------------------

  ==> Integral Setup <==

  Using integral reordering PK algorithm.
  Sizing the integral batches needed.
  Building batch lookup table.
   Calculation information:
      Number of atoms:                  34
      Number of AO shells:             153
      Number of primitives:            459
      Number of atomic orbitals:       340
      Number of basis functions:       323

      Integral cutoff                 1.00e-12
      Number of threads:                 1

	Batch   1 pq = [       0,    9405] index = [             0,44231715] size =     44231715
	Batch   2 pq = [    9405,   13301] index = [      44231715,88464951] size =     44233236
	Batch   3 pq = [   13301,   16290] index = [      88464951,132690195] size =     44225244
	Batch   4 pq = [   16290,   18810] index = [     132690195,176917455] size =     44227260
	Batch   5 pq = [   18810,   21030] index = [     176917455,221140965] size =     44223510
	Batch   6 pq = [   21030,   23037] index = [     221140965,265363203] size =     44222238
	Batch   7 pq = [   23037,   24883] index = [     265363203,309594286] size =     44231083
	Batch   8 pq = [   24883,   26601] index = [     309594286,353819901] size =     44225615
	Batch   9 pq = [   26601,   28214] index = [     353819901,398029005] size =     44209104
	Batch  10 pq = [   28214,   29740] index = [     398029005,442248670] size =     44219665
	Batch  11 pq = [   29740,   31191] index = [     442248670,486454836] size =     44206166
	Batch  12 pq = [   31191,   32578] index = [     486454836,530679331] size =     44224495
	Batch  13 pq = [   32578,   33908] index = [     530679331,574893186] size =     44213855
	Batch  14 pq = [   33908,   35188] index = [     574893186,619115266] size =     44222080
	Batch  15 pq = [   35188,   36423] index = [     619115266,663335676] size =     44220410
	Batch  16 pq = [   36423,   37617] index = [     663335676,707538153] size =     44202477
	Batch  17 pq = [   37617,   38775] index = [     707538153,751769700] size =     44231547
	Batch  18 pq = [   38775,   39899] index = [     751769700,795985050] size =     44215350
	Batch  19 pq = [   39899,   40992] index = [     795985050,840192528] size =     44207478
	Batch  20 pq = [   40992,   42057] index = [     840192528,884416653] size =     44224125
	Batch  21 pq = [   42057,   43095] index = [     884416653,928611060] size =     44194407
	Batch  22 pq = [   43095,   44109] index = [     928611060,972823995] size =     44212935
	Batch  23 pq = [   44109,   45100] index = [     972823995,1017027550] size =     44203555
	Batch  24 pq = [   45100,   46070] index = [    1017027550,1061245485] size =     44217935
	Batch  25 pq = [   46070,   47020] index = [    1061245485,1105463710] size =     44218225
	Batch  26 pq = [   47020,   47951] index = [    1105463710,1149673176] size =     44209466
	Batch  27 pq = [   47951,   48864] index = [    1149673176,1193869680] size =     44196504
	Batch  28 pq = [   48864,   49761] index = [    1193869680,1238103441] size =     44233761
	Batch  29 pq = [   49761,   50642] index = [    1238103441,1282331403] size =     44227962
	Batch  30 pq = [   50642,   51508] index = [    1282331403,1326562786] size =     44231383
	Batch  31 pq = [   51508,   52326] index = [    1326562786,1369031301] size =     42468515
  Task number: 124
  Buffer size: 11059200
  Buffer per thread: 2
  We computed 59671297 shell quartets total.
  Whereas there are 69401871 unique shell quartets.

  ==> DiskJK: Disk-Based J/K Matrices <==

    J tasked:                  Yes
    K tasked:                  Yes
    wK tasked:                  No
    Memory [MiB]:              375
    Schwarz Cutoff:          1E-12

    OpenMP threads:              1

  Minimum eigenvalue in the overlap matrix is 2.6269128909E-04.
  Using Symmetric Orthogonalization.

  SCF Guess: Superposition of Atomic Densities via on-the-fly atomic UHF.

  ==> Iterations <==

                        Total Energy        Delta E     RMS |[F,P]|

   @RHF iter SAD:  -669.38848732728047   -6.69388e+02   0.00000e+00
   @RHF iter   1:  -669.95261380036015   -5.64126e-01   2.12610e-03 DIIS
   @RHF iter   2:  -670.24023020976574   -2.87616e-01   9.08166e-04 DIIS
   @RHF iter   3:  -670.28629235952724   -4.60621e-02   2.47359e-04 DIIS
   @RHF iter   4:  -670.29075320186018   -4.46084e-03   1.08428e-04 DIIS
   @RHF iter   5:  -670.29143469692519   -6.81495e-04   1.69497e-05 DIIS
   @RHF iter   6:  -670.29146744314698   -3.27462e-05   7.64412e-06 DIIS
   @RHF iter   7:  -670.29147446510274   -7.02196e-06   3.00562e-06 DIIS
   @RHF iter   8:  -670.29147627084149   -1.80574e-06   1.26706e-06 DIIS
   @RHF iter   9:  -670.29147665609969   -3.85258e-07   5.47373e-07 DIIS
   @RHF iter  10:  -670.29147673447392   -7.83742e-08   2.44123e-07 DIIS
   @RHF iter  11:  -670.29147675399224   -1.95183e-08   9.70323e-08 DIIS
   @RHF iter  12:  -670.29147675666695   -2.67471e-09   3.81806e-08 DIIS
   @RHF iter  13:  -670.29147675693321   -2.66255e-10   1.08211e-08 DIIS
   @RHF iter  14:  -670.29147675695242   -1.92131e-11   4.48022e-09 DIIS
   @RHF iter  15:  -670.29147675694401    8.41283e-12   1.59509e-09 DIIS
   @RHF iter  16:  -670.29147675695060   -6.59384e-12   7.68711e-10 DIIS
   @RHF iter  17:  -670.29147675695992   -9.32232e-12   3.81444e-10 DIIS
   @RHF iter  18:  -670.29147675695594    3.97904e-12   1.58933e-10 DIIS
   @RHF iter  19:  -670.29147675695276    3.18323e-12   6.11003e-11 DIIS
  Energy and wave function converged.

  ==> Post-Iterations <==

    Orbital Energies [Eh]
    ---------------------

    Doubly Occupied:

       1A    -15.601814     2A    -11.265968     3A    -11.263778
       4A    -11.237257     5A    -11.235380     6A    -11.233739
       7A    -11.229242     8A    -11.229121     9A    -11.228407
      10A    -11.228037    11A    -11.227490    12A    -11.227111
      13A    -11.226673    14A    -11.225024    15A    -11.223790
      16A    -11.223644    17A    -11.222648    18A     -1.290764
      19A     -1.148528    20A     -1.124855    21A     -1.068491
      22A     -1.043042    23A     -1.003699    24A     -0.995457
      25A     -0.982746    26A     -0.930444    27A     -0.928838
      28A     -0.836573    29A     -0.824916    30A     -0.801920
      31A     -0.788535    32A     -0.751043    33A     -0.720012
      34A     -0.688707    35A     -0.659544    36A     -0.640882
      37A     -0.628355    38A     -0.625845    39A     -0.601820
      40A     -0.591101    41A     -0.587937    42A     -0.575616
      43A     -0.572784    44A     -0.564921    45A     -0.560721
      46A     -0.553390    47A     -0.534582    48A     -0.532905
      49A     -0.525165    50A     -0.494996    51A     -0.484212
      52A     -0.482720    53A     -0.475199    54A     -0.469510
      55A     -0.458361    56A     -0.372416    57A     -0.324494
      58A     -0.322134    59A     -0.292783    60A     -0.275588

    Virtual:

      61A      0.124970    62A      0.135979    63A      0.147072
      64A      0.166509    65A      0.180185    66A      0.182617
      67A      0.193749    68A      0.199058    69A      0.213127
      70A      0.220300    71A      0.226219    72A      0.228890
      73A      0.240480    74A      0.253286    75A      0.258905
      76A      0.270223    77A      0.273805    78A      0.284377
      79A      0.288246    80A      0.293007    81A      0.300783
      82A      0.341621    83A      0.368515    84A      0.373221
      85A      0.374579    86A      0.383253    87A      0.398812
      88A      0.421229    89A      0.440924    90A      0.461660
      91A      0.467606    92A      0.473129    93A      0.478225
      94A      0.482322    95A      0.497427    96A      0.504704
      97A      0.510279    98A      0.578606    99A      0.588658
     100A      0.602022   101A      0.612824   102A      0.632839
     103A      0.639647   104A      0.643154   105A      0.663027
     106A      0.675057   107A      0.693471   108A      0.697226
     109A      0.698878   110A      0.703461   111A      0.712315
     112A      0.717546   113A      0.726376   114A      0.730067
     115A      0.732835   116A      0.739458   117A      0.742706
     118A      0.745598   119A      0.749682   120A      0.751942
     121A      0.756432   122A      0.760737   123A      0.771773
     124A      0.774512   125A      0.779889   126A      0.790491
     127A      0.791984   128A      0.796826   129A      0.817045
     130A      0.830982   131A      0.846054   132A      0.854507
     133A      0.861466   134A      0.868860   135A      0.878127
     136A      0.880068   137A      0.881080   138A      0.886381
     139A      0.893993   140A      0.898905   141A      0.904396
     142A      0.913404   143A      0.921312   144A      0.928108
     145A      0.933267   146A      0.942788   147A      0.950595
     148A      0.951833   149A      0.963098   150A      0.975309
     151A      0.979314   152A      0.983180   153A      1.000562
     154A      1.019223   155A      1.029731   156A      1.052355
     157A      1.060768   158A      1.067297   159A      1.091306
     160A      1.117658   161A      1.126239   162A      1.137161
     163A      1.139349   164A      1.147264   165A      1.155501
     166A      1.161248   167A      1.172671   168A      1.186106
     169A      1.194625   170A      1.213310   171A      1.215146
     172A      1.225701   173A      1.232304   174A      1.238824
     175A      1.255676   176A      1.258968   177A      1.265818
     178A      1.273400   179A      1.284882   180A      1.287388
     181A      1.305145   182A      1.309750   183A      1.311944
     184A      1.326266   185A      1.331410   186A      1.336771
     187A      1.342925   188A      1.357359   189A      1.380459
     190A      1.415274   191A      1.422025   192A      1.443866
     193A      1.509270   194A      1.513034   195A      1.529834
     196A      1.551869   197A      1.553284   198A      1.572101
     199A      1.597211   200A      1.603813   201A      1.632365
     202A      1.635312   203A      1.647342   204A      1.679767
     205A      1.689606   206A      1.695269   207A      1.704183
     208A      1.734448   209A      1.738224   210A      1.751891
     211A      1.762391   212A      1.763642   213A      1.776159
     214A      1.786942   215A      1.794665   216A      1.802562
     217A      1.813550   218A      1.823873   219A      1.832402
     220A      1.862464   221A      1.879408   222A      1.884382
     223A      1.891008   224A      1.892729   225A      1.897874
     226A      1.904057   227A      1.911565   228A      1.918077
     229A      1.922326   230A      1.925342   231A      1.931661
     232A      1.937289   233A      1.942228   234A      1.957339
     235A      1.962225   236A      1.967553   237A      1.972512
     238A      1.978474   239A      1.991599   240A      2.000634
     241A      2.004616   242A      2.018147   243A      2.035760
     244A      2.038214   245A      2.054704   246A      2.064131
     247A      2.068363   248A      2.078490   249A      2.081817
     250A      2.092967   251A      2.107367   252A      2.111338
     253A      2.115410   254A      2.142402   255A      2.151869
     256A      2.154836   257A      2.164335   258A      2.169582
     259A      2.180464   260A      2.181388   261A      2.195279
     262A      2.204001   263A      2.221639   264A      2.263272
     265A      2.266071   266A      2.269183   267A      2.284135
     268A      2.295458   269A      2.300359   270A      2.306181
     271A      2.311459   272A      2.317504   273A      2.333544
     274A      2.347596   275A      2.351665   276A      2.388378
     277A      2.402959   278A      2.444445   279A      2.460782
     280A      2.470397   281A      2.485579   282A      2.494654
     283A      2.525713   284A      2.549305   285A      2.573256
     286A      2.589876   287A      2.624838   288A      2.626910
     289A      2.664006   290A      2.672799   291A      2.697566
     292A      2.748117   293A      2.760030   294A      2.769667
     295A      2.771471   296A      2.782284   297A      2.785914
     298A      2.790936   299A      2.798846   300A      2.813757
     301A      2.828166   302A      2.851938   303A      2.857121
     304A      2.868750   305A      2.875244   306A      2.900318
     307A      2.949038   308A      2.978563   309A      3.009121
     310A      3.015543   311A      3.025441   312A      3.038055
     313A      3.062675   314A      3.101212   315A      3.156844
     316A      3.193380   317A      3.204320   318A      3.283372
     319A      3.307995   320A      3.354955   321A      3.738420
     322A      3.927318   323A      3.965497

    Final Occupation by Irrep:
              A
    DOCC [    60 ]

  @RHF Final Energy:  -670.29147675695276

   => Energetics <=

    Nuclear Repulsion Energy =           1028.0853523547023087
    One-Electron Energy =               -2947.8223079255822086
    Two-Electron Energy =                1249.4454788139271386
    Total Energy =                       -670.2914767569527612

Computation Completed

Properties will be evaluated at   0.000000,   0.000000,   0.000000 [a0]

Properties computed using the SCF density matrix

  Nuclear Dipole Moment: [e a0]
     X:     7.2087      Y:    -4.5217      Z:     7.4496

  Electronic Dipole Moment: [e a0]
     X:    -7.2004      Y:     5.3529      Z:    -7.6377

  Dipole Moment: [e a0]
     X:     0.0084      Y:     0.8312      Z:    -0.1881     Total:     0.8522

  Dipole Moment: [D]
     X:     0.0213      Y:     2.1126      Z:    -0.4780     Total:     2.1662

*** tstop() called on ds3 at Mon Apr 27 06:28:17 2020
Module time:
	user time   =     562.88 seconds =       9.38 minutes
	system time =     274.33 seconds =       4.57 minutes
	total time  =       9851 seconds =     164.18 minutes
Total time:
	user time   =     562.88 seconds =       9.38 minutes
	system time =     274.33 seconds =       4.57 minutes
	total time  =       9851 seconds =     164.18 minutes
                                     G D M A

                                 by Anthony Stone

                           version 2.2.06, 22 June 2011

               Distributed Multipoles from Gaussian wavefunctions

Starting at 6:28:17 on 27 Apr 2020

Using SCF density matrix from file ./SSI/SSI-184PHE-255TRP-1-dimer.test.20887.fchk

                         Distributed Multipole Analysis

Standard DMA

Positions and radii in angstrom
Multipole moments in atomic units, ea_0^k for rank k

C          x =  2.039017  y = -2.748704  z =  4.302336 angstrom
           Maximum rank =  0   Radius =  0.650 angstrom
                   Q00  =  -0.206762

C          x = -0.552983  y = -2.084704  z =  1.591336 angstrom
           Maximum rank =  0   Radius =  0.650 angstrom
                   Q00  =   0.029800

C          x =  0.291017  y = -1.888704  z =  2.687336 angstrom
           Maximum rank =  0   Radius =  0.650 angstrom
                   Q00  =  -0.088700

C          x = -0.608983  y = -3.298704  z =  0.944336 angstrom
           Maximum rank =  0   Radius =  0.650 angstrom
                   Q00  =  -0.096291

C          x =  1.065017  y = -2.953704  z =  3.165336 angstrom
           Maximum rank =  0   Radius =  0.650 angstrom
                   Q00  =  -0.106280

C          x =  0.093017  y = -4.379704  z =  1.444336 angstrom
           Maximum rank =  0   Radius =  0.650 angstrom
                   Q00  =  -0.076980

C          x =  0.963017  y = -4.187704  z =  2.548336 angstrom
           Maximum rank =  0   Radius =  0.650 angstrom
                   Q00  =  -0.069278

H          x = -1.124983  y = -1.251704  z =  1.210336 angstrom
           Maximum rank =  0   Radius =  0.325 angstrom
                   Q00  =   0.074434

H          x =  0.337017  y = -0.930704  z =  3.168336 angstrom
           Maximum rank =  0   Radius =  0.325 angstrom
                   Q00  =   0.060046

H          x = -1.242983  y = -3.418704  z =  0.076336 angstrom
           Maximum rank =  0   Radius =  0.325 angstrom
                   Q00  =   0.056725

H          x =  0.032017  y = -5.329704  z =  0.944336 angstrom
           Maximum rank =  0   Radius =  0.325 angstrom
                   Q00  =   0.066756

H          x =  2.381017  y = -1.712704  z =  4.274336 angstrom
           Maximum rank =  0   Radius =  0.325 angstrom
                   Q00  =   0.096263

H          x =  2.910017  y = -3.385704  z =  4.153336 angstrom
           Maximum rank =  0   Radius =  0.325 angstrom
                   Q00  =   0.098172

H          x =  1.558017  y = -5.016704  z =  2.904336 angstrom
           Maximum rank =  0   Radius =  0.325 angstrom
                   Q00  =   0.056816

H          x =  1.621787  y = -2.954384  z =  5.299136 angstrom
           Maximum rank =  0   Radius =  0.325 angstrom
                   Q00  =   0.105460

C          x =  2.510017  y =  2.780296  z = -1.031664 angstrom
           Maximum rank =  0   Radius =  0.650 angstrom
                   Q00  =  -0.207386

C          x =  0.038017  y =  1.968296  z = -1.515664 angstrom
           Maximum rank =  0   Radius =  0.650 angstrom
                   Q00  =  -0.065061

C          x =  1.058017  y =  2.993296  z = -1.459664 angstrom
           Maximum rank =  0   Radius =  0.650 angstrom
                   Q00  =  -0.128763

C          x = -1.142983  y =  2.583296  z = -2.019664 angstrom
           Maximum rank =  0   Radius =  0.650 angstrom
                   Q00  =   0.237628

C          x =  0.464017  y =  4.143296  z = -1.913664 angstrom
           Maximum rank =  0   Radius =  0.650 angstrom
                   Q00  =   0.070153

C          x = -1.200983  y = -0.105704  z = -1.412664 angstrom
           Maximum rank =  0   Radius =  0.650 angstrom
                   Q00  =  -0.078694

C          x = -2.346983  y =  0.563296  z = -1.904664 angstrom
           Maximum rank =  0   Radius =  0.650 angstrom
                   Q00  =  -0.036996

C          x =  0.018017  y =  0.571296  z = -1.245664 angstrom
           Maximum rank =  0   Radius =  0.650 angstrom
                   Q00  =  -0.087192

C          x = -2.332983  y =  1.897296  z = -2.207664 angstrom
           Maximum rank =  0   Radius =  0.650 angstrom
                   Q00  =  -0.111543

N          x = -0.855983  y =  3.900296  z = -2.261664 angstrom
           Maximum rank =  0   Radius =  0.650 angstrom
                   Q00  =  -0.496294

H          x = -1.256983  y = -1.163704  z = -1.199664 angstrom
           Maximum rank =  0   Radius =  0.325 angstrom
                   Q00  =   0.058906

H          x = -3.255983  y = -0.002704  z = -2.059664 angstrom
           Maximum rank =  0   Radius =  0.325 angstrom
                   Q00  =   0.061442

H          x =  0.900017  y =  0.060296  z = -0.886664 angstrom
           Maximum rank =  0   Radius =  0.325 angstrom
                   Q00  =   0.078004

H          x = -3.199983  y =  2.393296  z = -2.612664 angstrom
           Maximum rank =  0   Radius =  0.325 angstrom
                   Q00  =   0.072411

H          x =  2.545017  y =  2.049296  z = -0.224664 angstrom
           Maximum rank =  0   Radius =  0.325 angstrom
                   Q00  =   0.104397

H          x =  2.875017  y =  3.721296  z = -0.635664 angstrom
           Maximum rank =  0   Radius =  0.325 angstrom
                   Q00  =   0.105420

H          x =  0.963017  y =  5.103296  z = -2.001664 angstrom
           Maximum rank =  0   Radius =  0.325 angstrom
                   Q00  =   0.100623

H          x = -1.495983  y =  4.603296  z = -2.610664 angstrom
           Maximum rank =  0   Radius =  0.325 angstrom
                   Q00  =   0.220133

H          x =  3.140877  y =  2.424726  z = -1.859665 angstrom
           Maximum rank =  0   Radius =  0.325 angstrom
                   Q00  =   0.102629

Total multipoles referred to origin at
           x =   0.000000,  y =    0.000000,  z =    0.000000 angstrom
                   Q00  =  -0.000000

Finished at 6:28:17 on 27 Apr 2020

  DMA results are available in the Python driver through the
	  variable('DMA DISTRIBUTED MULTIPOLES')
  and
	  variable('DMA TOTAL MULTIPOLES')
  commands.

    Psi4 stopped on: Monday, 27 April 2020 06:28AM
    Psi4 wall time for execution: 2:44:11.24

*** Psi4 exiting successfully. Buy a developer a beer!
