                               Psi4 1.3.2 release

  ==> Input File <==

--------------------------------------------------------------------------
import numpy as np
set {scf_type pk
basis cc-pvdz
d_convergence 10
gdma_switch   0
gdma_limit    0
gdma_origin   [ 0.0,  0.0,  0.0 ]
}
molecule test {
    units Angstrom
    0 1
    --
    0 1
    C               -0.552028651718025     2.507505875059927    -0.975789822638780
    C               -0.434028651718025     2.021505875059927    -2.407789822638780
    H               -1.093028651718025     3.453505875059927    -0.933789822638780
    H               -1.098028651718025     1.768505875059927    -0.390789822638780
    H                0.427971348281975     2.628505875059927    -0.513789822638780
    H                0.105971348281975     1.084505875059927    -2.411789822638780
    H                0.129531348281975     2.759795875059927    -2.997129822638780
    H               -1.438928651718025     1.847625875059927    -2.820039822638780
    C                0.642971348281975    -1.037494124940073    -0.289789822638780
    C               -0.606028651718025    -1.437494124940073    -1.045789822638781
    C                0.352971348281975    -0.780494124940073     1.170210177361220
    O               -0.766028651718025    -0.442494124940073     1.560210177361220
    N                1.366971348281975    -0.948494124940073     1.995210177361220
    H                1.372971348281975    -1.844494124940073    -0.347789822638780
    H                1.087971348281975    -0.143494124940073    -0.724789822638780
    H               -1.333028651718025    -0.626494124940073    -0.993789822638780
    H               -1.041028651718025    -2.320494124940073    -0.577789822638780
    H                1.232971348281975    -0.788494124940073     2.981210177361219
    H                2.294971348281975    -1.134494124940073     1.606210177361220
    H               -0.385888651718025    -1.646764124940073    -2.103019822638780

}
e, wfn = energy('scf', return_wfn=True)
gdma(wfn)
dmavals = variable('DMA DISTRIBUTED MULTIPOLES')
charges = np.array(dmavals)
print(charges)
np.save('SSI-064VAL-143GLN-2-dimer.npy', np.array(charges))--------------------------------------------------------------------------

*** tstart() called on ds3
*** at Tue Apr 28 07:43:13 2020

   => Loading Basis Set <=

    Name: CC-PVDZ
    Role: ORBITAL
    Keyword: BASIS
    atoms 1-2, 9-11  entry C          line   138 file /theoryfs2/ds/metcalf/miniconda2/envs/tf2gpu/share/psi4/basis/cc-pvdz.gbs
    atoms 3-8, 14-20 entry H          line    22 file /theoryfs2/ds/metcalf/miniconda2/envs/tf2gpu/share/psi4/basis/cc-pvdz.gbs
    atoms 12         entry O          line   198 file /theoryfs2/ds/metcalf/miniconda2/envs/tf2gpu/share/psi4/basis/cc-pvdz.gbs
    atoms 13         entry N          line   168 file /theoryfs2/ds/metcalf/miniconda2/envs/tf2gpu/share/psi4/basis/cc-pvdz.gbs

         ---------------------------------------------------------
                                   SCF
               by Justin Turney, Rob Parrish, Andy Simmonett
                          and Daniel G. A. Smith
                              RHF Reference
                        1 Threads,    500 MiB Core
         ---------------------------------------------------------

  ==> Geometry <==

    Molecular point group: c1
    Full point group: C1

    Geometry (in Angstrom), charge = 0, multiplicity = 1:

       Center              X                  Y                   Z               Mass
    ------------   -----------------  -----------------  -----------------  -----------------
         C           -0.552028651718     2.507505875060    -0.975789822639    12.000000000000
         C           -0.434028651718     2.021505875060    -2.407789822639    12.000000000000
         H           -1.093028651718     3.453505875060    -0.933789822639     1.007825032230
         H           -1.098028651718     1.768505875060    -0.390789822639     1.007825032230
         H            0.427971348282     2.628505875060    -0.513789822639     1.007825032230
         H            0.105971348282     1.084505875060    -2.411789822639     1.007825032230
         H            0.129531348282     2.759795875060    -2.997129822639     1.007825032230
         H           -1.438928651718     1.847625875060    -2.820039822639     1.007825032230
         C            0.642971348282    -1.037494124940    -0.289789822639    12.000000000000
         C           -0.606028651718    -1.437494124940    -1.045789822639    12.000000000000
         C            0.352971348282    -0.780494124940     1.170210177361    12.000000000000
         O           -0.766028651718    -0.442494124940     1.560210177361    15.994914619570
         N            1.366971348282    -0.948494124940     1.995210177361    14.003074004430
         H            1.372971348282    -1.844494124940    -0.347789822639     1.007825032230
         H            1.087971348282    -0.143494124940    -0.724789822639     1.007825032230
         H           -1.333028651718    -0.626494124940    -0.993789822639     1.007825032230
         H           -1.041028651718    -2.320494124940    -0.577789822639     1.007825032230
         H            1.232971348282    -0.788494124940     2.981210177361     1.007825032230
         H            2.294971348282    -1.134494124940     1.606210177361     1.007825032230
         H           -0.385888651718    -1.646764124940    -2.103019822639     1.007825032230

  Running in c1 symmetry.

  Rotational constants: A =      0.10716  B =      0.03790  C =      0.03357 [cm^-1]
  Rotational constants: A =   3212.72209  B =   1136.33126  C =   1006.46634 [MHz]
  Nuclear repulsion =  312.313779318140178

  Charge       = 0
  Multiplicity = 1
  Electrons    = 58
  Nalpha       = 29
  Nbeta        = 29

  ==> Algorithm <==

  SCF Algorithm Type is PK.
  DIIS enabled.
  MOM disabled.
  Fractional occupation disabled.
  Guess Type is SAD.
  Energy threshold   = 1.00e-06
  Density threshold  = 1.00e-10
  Integral threshold = 0.00e+00

  ==> Primary Basis <==

  Basis Set: CC-PVDZ
    Blend: CC-PVDZ
    Number of shells: 81
    Number of basis function: 163
    Number of Cartesian functions: 170
    Spherical Harmonics?: true
    Max angular momentum: 2

  ==> Pre-Iterations <==

   -------------------------------------------------------
    Irrep   Nso     Nmo     Nalpha   Nbeta   Ndocc  Nsocc
   -------------------------------------------------------
     A        163     163       0       0       0       0
   -------------------------------------------------------
    Total     163     163      29      29      29       0
   -------------------------------------------------------

  ==> Integral Setup <==

  Using integral reordering PK algorithm.
  Sizing the integral batches needed.
  Building batch lookup table.
   Calculation information:
      Number of atoms:                  20
      Number of AO shells:              81
      Number of primitives:            219
      Number of atomic orbitals:       170
      Number of basis functions:       163

      Integral cutoff                 1.00e-12
      Number of threads:                 1

	Batch   1 pq = [       0,    9405] index = [             0,44231715] size =     44231715
	Batch   2 pq = [    9405,   13366] index = [      44231715,89331661] size =     45099946
  Task number: 9
  Buffer size: 11059200
  Buffer per thread: 2
  We computed 5319086 shell quartets total.
  Whereas there are 5516181 unique shell quartets.

  ==> DiskJK: Disk-Based J/K Matrices <==

    J tasked:                  Yes
    K tasked:                  Yes
    wK tasked:                  No
    Memory [MiB]:              375
    Schwarz Cutoff:          1E-12

    OpenMP threads:              1

  Minimum eigenvalue in the overlap matrix is 3.0966640867E-03.
  Using Symmetric Orthogonalization.

  SCF Guess: Superposition of Atomic Densities via on-the-fly atomic UHF.

  ==> Iterations <==

                        Total Energy        Delta E     RMS |[F,P]|

   @RHF iter SAD:  -325.04961016266952   -3.25050e+02   0.00000e+00
   @RHF iter   1:  -326.00332995827421   -9.53720e-01   4.13707e-03 DIIS
   @RHF iter   2:  -326.20309860736609   -1.99769e-01   2.27696e-03 DIIS
   @RHF iter   3:  -326.25794533391240   -5.48467e-02   4.94735e-04 DIIS
   @RHF iter   4:  -326.26178259105149   -3.83726e-03   2.05440e-04 DIIS
   @RHF iter   5:  -326.26246693126984   -6.84340e-04   2.89883e-05 DIIS
   @RHF iter   6:  -326.26249860642326   -3.16752e-05   1.10369e-05 DIIS
   @RHF iter   7:  -326.26250253554275   -3.92912e-06   4.68701e-06 DIIS
   @RHF iter   8:  -326.26250331553962   -7.79997e-07   1.88107e-06 DIIS
   @RHF iter   9:  -326.26250345119496   -1.35655e-07   4.11599e-07 DIIS
   @RHF iter  10:  -326.26250345700612   -5.81116e-09   1.30304e-07 DIIS
   @RHF iter  11:  -326.26250345744063   -4.34511e-10   3.54842e-08 DIIS
   @RHF iter  12:  -326.26250345748406   -4.34284e-11   8.32800e-09 DIIS
   @RHF iter  13:  -326.26250345748679   -2.72848e-12   1.82759e-09 DIIS
   @RHF iter  14:  -326.26250345748531    1.47793e-12   8.08291e-10 DIIS
   @RHF iter  15:  -326.26250345748781   -2.50111e-12   4.13569e-10 DIIS
   @RHF iter  16:  -326.26250345748724    5.68434e-13   1.37386e-10 DIIS
   @RHF iter  17:  -326.26250345748645    7.95808e-13   4.70351e-11 DIIS
  Energy and wave function converged.

  ==> Post-Iterations <==

    Orbital Energies [Eh]
    ---------------------

    Doubly Occupied:

       1A    -20.504818     2A    -15.590750     3A    -11.343437
       4A    -11.239798     5A    -11.220921     6A    -11.214942
       7A    -11.208062     8A     -1.367657     9A     -1.219070
      10A     -1.052472    11A     -1.017328    12A     -0.889611
      13A     -0.831105    14A     -0.783749    15A     -0.723190
      16A     -0.667310    17A     -0.641532    18A     -0.596434
      19A     -0.593392    20A     -0.584962    21A     -0.552723
      22A     -0.521982    23A     -0.507385    24A     -0.497294
      25A     -0.491831    26A     -0.481749    27A     -0.477856
      28A     -0.409479    29A     -0.404323

    Virtual:

      30A      0.164361    31A      0.179186    32A      0.206620
      33A      0.210379    34A      0.224145    35A      0.240109
      36A      0.244670    37A      0.257957    38A      0.269371
      39A      0.276271    40A      0.290541    41A      0.305244
      42A      0.336292    43A      0.363178    44A      0.392892
      45A      0.404496    46A      0.422420    47A      0.491041
      48A      0.546310    49A      0.582704    50A      0.602549
      51A      0.613579    52A      0.627771    53A      0.647458
      54A      0.656242    55A      0.671221    56A      0.719181
      57A      0.737689    58A      0.768979    59A      0.769479
      60A      0.813353    61A      0.834943    62A      0.858079
      63A      0.860967    64A      0.869123    65A      0.874649
      66A      0.894456    67A      0.906288    68A      0.915317
      69A      0.919802    70A      0.932847    71A      0.936527
      72A      0.945178    73A      0.960831    74A      0.975894
      75A      1.004367    76A      1.022044    77A      1.036602
      78A      1.050414    79A      1.057426    80A      1.113789
      81A      1.123327    82A      1.132466    83A      1.143094
      84A      1.251001    85A      1.296584    86A      1.326565
      87A      1.352352    88A      1.403374    89A      1.407660
      90A      1.436978    91A      1.474102    92A      1.480173
      93A      1.491375    94A      1.505207    95A      1.585325
      96A      1.607364    97A      1.666592    98A      1.675575
      99A      1.697021   100A      1.705139   101A      1.748640
     102A      1.762500   103A      1.802226   104A      1.843608
     105A      1.870435   106A      1.878893   107A      1.885921
     108A      1.901047   109A      1.908649   110A      1.942468
     111A      1.945134   112A      1.953946   113A      1.957850
     114A      1.966034   115A      1.972423   116A      1.974938
     117A      1.995955   118A      2.000745   119A      2.006688
     120A      2.031525   121A      2.069551   122A      2.074140
     123A      2.114340   124A      2.122664   125A      2.139903
     126A      2.195395   127A      2.241589   128A      2.282081
     129A      2.301705   130A      2.334126   131A      2.336463
     132A      2.375779   133A      2.427686   134A      2.464002
     135A      2.467353   136A      2.484900   137A      2.517400
     138A      2.544210   139A      2.578664   140A      2.581656
     141A      2.592628   142A      2.617649   143A      2.634129
     144A      2.751077   145A      2.777470   146A      2.787662
     147A      2.812407   148A      2.842986   149A      2.866248
     150A      2.875038   151A      2.905107   152A      2.920328
     153A      2.957365   154A      2.966484   155A      2.992139
     156A      3.028309   157A      3.101619   158A      3.151897
     159A      3.287540   160A      3.515111   161A      3.524779
     162A      3.863939   163A      3.906347

    Final Occupation by Irrep:
              A
    DOCC [    29 ]

  @RHF Final Energy:  -326.26250345748645

   => Energetics <=

    Nuclear Repulsion Energy =            312.3137793181401776
    One-Electron Energy =               -1061.8822414470948843
    Two-Electron Energy =                 423.3059586714682609
    Total Energy =                       -326.2625034574864458

Computation Completed

Properties will be evaluated at   0.000000,   0.000000,   0.000000 [a0]

Properties computed using the SCF density matrix

  Nuclear Dipole Moment: [e a0]
     X:     0.2384      Y:     4.7233      Z:    -9.5859

  Electronic Dipole Moment: [e a0]
     X:     1.3207      Y:    -5.1309      Z:     9.4402

  Dipole Moment: [e a0]
     X:     1.5591      Y:    -0.4075      Z:    -0.1457     Total:     1.6181

  Dipole Moment: [D]
     X:     3.9629      Y:    -1.0358      Z:    -0.3702     Total:     4.1127

*** tstop() called on ds3 at Tue Apr 28 07:43:57 2020
Module time:
	user time   =      31.70 seconds =       0.53 minutes
	system time =      12.80 seconds =       0.21 minutes
	total time  =         44 seconds =       0.73 minutes
Total time:
	user time   =      31.70 seconds =       0.53 minutes
	system time =      12.80 seconds =       0.21 minutes
	total time  =         44 seconds =       0.73 minutes
                                     G D M A

                                 by Anthony Stone

                           version 2.2.06, 22 June 2011

               Distributed Multipoles from Gaussian wavefunctions

Starting at 7:43:57 on 28 Apr 2020

Using SCF density matrix from file ./SSI/SSI-064VAL-143GLN-2-dimer.test.6660.fchk

                         Distributed Multipole Analysis

Standard DMA

Positions and radii in angstrom
Multipole moments in atomic units, ea_0^k for rank k

C          x = -0.552029  y =  2.507506  z = -0.975790 angstrom
           Maximum rank =  0   Radius =  0.650 angstrom
                   Q00  =  -0.232170

C          x = -0.434029  y =  2.021506  z = -2.407790 angstrom
           Maximum rank =  0   Radius =  0.650 angstrom
                   Q00  =  -0.234455

H          x = -1.093029  y =  3.453506  z = -0.933790 angstrom
           Maximum rank =  0   Radius =  0.325 angstrom
                   Q00  =   0.080265

H          x = -1.098029  y =  1.768506  z = -0.390790 angstrom
           Maximum rank =  0   Radius =  0.325 angstrom
                   Q00  =   0.090082

H          x =  0.427971  y =  2.628506  z = -0.513790 angstrom
           Maximum rank =  0   Radius =  0.325 angstrom
                   Q00  =   0.068493

H          x =  0.105971  y =  1.084506  z = -2.411790 angstrom
           Maximum rank =  0   Radius =  0.325 angstrom
                   Q00  =   0.068608

H          x =  0.129531  y =  2.759796  z = -2.997130 angstrom
           Maximum rank =  0   Radius =  0.325 angstrom
                   Q00  =   0.073996

H          x = -1.438929  y =  1.847626  z = -2.820040 angstrom
           Maximum rank =  0   Radius =  0.325 angstrom
                   Q00  =   0.081140

C          x =  0.642971  y = -1.037494  z = -0.289790 angstrom
           Maximum rank =  0   Radius =  0.650 angstrom
                   Q00  =  -0.178561

C          x = -0.606029  y = -1.437494  z = -1.045790 angstrom
           Maximum rank =  0   Radius =  0.650 angstrom
                   Q00  =  -0.201776

C          x =  0.352971  y = -0.780494  z =  1.170210 angstrom
           Maximum rank =  0   Radius =  0.650 angstrom
                   Q00  =   0.881585

O          x = -0.766029  y = -0.442494  z =  1.560210 angstrom
           Maximum rank =  0   Radius =  0.650 angstrom
                   Q00  =  -0.821967

N          x =  1.366971  y = -0.948494  z =  1.995210 angstrom
           Maximum rank =  0   Radius =  0.650 angstrom
                   Q00  =  -0.554858

H          x =  1.372971  y = -1.844494  z = -0.347790 angstrom
           Maximum rank =  0   Radius =  0.325 angstrom
                   Q00  =   0.057251

H          x =  1.087971  y = -0.143494  z = -0.724790 angstrom
           Maximum rank =  0   Radius =  0.325 angstrom
                   Q00  =   0.107241

H          x = -1.333029  y = -0.626494  z = -0.993790 angstrom
           Maximum rank =  0   Radius =  0.325 angstrom
                   Q00  =   0.113981

H          x = -1.041029  y = -2.320494  z = -0.577790 angstrom
           Maximum rank =  0   Radius =  0.325 angstrom
                   Q00  =   0.093755

H          x =  1.232971  y = -0.788494  z =  2.981210 angstrom
           Maximum rank =  0   Radius =  0.325 angstrom
                   Q00  =   0.221229

H          x =  2.294971  y = -1.134494  z =  1.606210 angstrom
           Maximum rank =  0   Radius =  0.325 angstrom
                   Q00  =   0.207876

H          x = -0.385889  y = -1.646764  z = -2.103020 angstrom
           Maximum rank =  0   Radius =  0.325 angstrom
                   Q00  =   0.078283

Total multipoles referred to origin at
           x =   0.000000,  y =    0.000000,  z =    0.000000 angstrom
                   Q00  =  -0.000000

Finished at 7:43:57 on 28 Apr 2020

  DMA results are available in the Python driver through the
	  variable('DMA DISTRIBUTED MULTIPOLES')
  and
	  variable('DMA TOTAL MULTIPOLES')
  commands.

    Psi4 stopped on: Tuesday, 28 April 2020 07:43AM
    Psi4 wall time for execution: 0:00:44.34

*** Psi4 exiting successfully. Buy a developer a beer!
