                               Psi4 1.3.2 release

  ==> Input File <==

--------------------------------------------------------------------------
import numpy as np
set {scf_type pk
basis cc-pvdz
d_convergence 10
gdma_switch   0
gdma_limit    0
gdma_origin   [ 0.0,  0.0,  0.0 ]
}
molecule test {
    units Angstrom
    -1 1
    --
    -1 1
    C               -0.137300137685942     0.256115894207081     4.726047945330474
    C                0.444699862314058    -0.131884105792919     3.407047945330474
    O               -0.309300137685942    -0.341884105792919     2.447047945330474
    O                1.692699862314058    -0.135884105792919     3.350047945330473
    H                0.055699862314058     1.319115894207081     4.885047945330474
    H                0.346699862314058    -0.300884105792919     5.530047945330474
    H               -1.221020137685942     0.071695894207081     4.765207945330474
    C               -0.915300137685942     1.543115894207081    -4.285952054669526
    C               -0.474300137685942     0.649115894207081    -0.672952054669526
    C                0.105699862314058    -0.634884105792919    -0.776952054669526
    C               -0.802300137685942     1.341115894207081    -1.818952054669526
    C               -0.567300137685942     0.783115894207081    -3.052952054669526
    C                0.309699862314058    -1.200884105792919    -2.008952054669527
    C               -0.028300137685942    -0.481884105792919    -3.148952054669526
    O                0.428699862314058    -1.385884105792919     0.319047945330474
    H               -0.655300137685942     1.073115894207081     0.302047945330474
    H               -1.238300137685942     2.328115894207081    -1.738952054669526
    H                0.729699862314057    -2.192884105792919    -2.100952054669527
    H                0.718699862314058    -2.269884105792919     0.084047945330474
    H               -1.567300137685943     2.378115894207081    -4.024952054669527
    H               -1.461300137685942     0.890115894207081    -4.967952054669526
    H                0.136699862314058    -0.922884105792919    -4.123952054669526
    H               -0.019570137685942     1.925065894207081    -4.797595054669527

}
e, wfn = energy('scf', return_wfn=True)
gdma(wfn)
dmavals = variable('DMA DISTRIBUTED MULTIPOLES')
charges = np.array(dmavals)
print(charges)
np.save('SSI-221GLU-231TYR-1-dimer.npy', np.array(charges))--------------------------------------------------------------------------

*** tstart() called on ds3
*** at Mon Apr 27 07:43:02 2020

   => Loading Basis Set <=

    Name: CC-PVDZ
    Role: ORBITAL
    Keyword: BASIS
    atoms 1-2, 8-14  entry C          line   138 file /theoryfs2/ds/metcalf/miniconda2/envs/tf2gpu/share/psi4/basis/cc-pvdz.gbs
    atoms 3-4, 15    entry O          line   198 file /theoryfs2/ds/metcalf/miniconda2/envs/tf2gpu/share/psi4/basis/cc-pvdz.gbs
    atoms 5-7, 16-23 entry H          line    22 file /theoryfs2/ds/metcalf/miniconda2/envs/tf2gpu/share/psi4/basis/cc-pvdz.gbs

         ---------------------------------------------------------
                                   SCF
               by Justin Turney, Rob Parrish, Andy Simmonett
                          and Daniel G. A. Smith
                              RHF Reference
                        1 Threads,    500 MiB Core
         ---------------------------------------------------------

  ==> Geometry <==

    Molecular point group: c1
    Full point group: C1

    Geometry (in Angstrom), charge = -1, multiplicity = 1:

       Center              X                  Y                   Z               Mass
    ------------   -----------------  -----------------  -----------------  -----------------
         C           -0.137300137686     0.256115894207     4.726047945330    12.000000000000
         C            0.444699862314    -0.131884105793     3.407047945330    12.000000000000
         O           -0.309300137686    -0.341884105793     2.447047945330    15.994914619570
         O            1.692699862314    -0.135884105793     3.350047945330    15.994914619570
         H            0.055699862314     1.319115894207     4.885047945330     1.007825032230
         H            0.346699862314    -0.300884105793     5.530047945330     1.007825032230
         H           -1.221020137686     0.071695894207     4.765207945330     1.007825032230
         C           -0.915300137686     1.543115894207    -4.285952054670    12.000000000000
         C           -0.474300137686     0.649115894207    -0.672952054670    12.000000000000
         C            0.105699862314    -0.634884105793    -0.776952054670    12.000000000000
         C           -0.802300137686     1.341115894207    -1.818952054670    12.000000000000
         C           -0.567300137686     0.783115894207    -3.052952054670    12.000000000000
         C            0.309699862314    -1.200884105793    -2.008952054670    12.000000000000
         C           -0.028300137686    -0.481884105793    -3.148952054670    12.000000000000
         O            0.428699862314    -1.385884105793     0.319047945330    15.994914619570
         H           -0.655300137686     1.073115894207     0.302047945330     1.007825032230
         H           -1.238300137686     2.328115894207    -1.738952054670     1.007825032230
         H            0.729699862314    -2.192884105793    -2.100952054670     1.007825032230
         H            0.718699862314    -2.269884105793     0.084047945330     1.007825032230
         H           -1.567300137686     2.378115894207    -4.024952054670     1.007825032230
         H           -1.461300137686     0.890115894207    -4.967952054670     1.007825032230
         H            0.136699862314    -0.922884105793    -4.123952054670     1.007825032230
         H           -0.019570137686     1.925065894207    -4.797595054670     1.007825032230

  Running in c1 symmetry.

  Rotational constants: A =      0.08399  B =      0.01141  C =      0.01050 [cm^-1]
  Rotational constants: A =   2517.84389  B =    341.93727  C =    314.80631 [MHz]
  Nuclear repulsion =  642.033199186885440

  Charge       = -1
  Multiplicity = 1
  Electrons    = 90
  Nalpha       = 45
  Nbeta        = 45

  ==> Algorithm <==

  SCF Algorithm Type is PK.
  DIIS enabled.
  MOM disabled.
  Fractional occupation disabled.
  Guess Type is SAD.
  Energy threshold   = 1.00e-06
  Density threshold  = 1.00e-10
  Integral threshold = 0.00e+00

  ==> Primary Basis <==

  Basis Set: CC-PVDZ
    Blend: CC-PVDZ
    Number of shells: 105
    Number of basis function: 223
    Number of Cartesian functions: 235
    Spherical Harmonics?: true
    Max angular momentum: 2

  ==> Pre-Iterations <==

   -------------------------------------------------------
    Irrep   Nso     Nmo     Nalpha   Nbeta   Ndocc  Nsocc
   -------------------------------------------------------
     A        223     223       0       0       0       0
   -------------------------------------------------------
    Total     223     223      45      45      45       0
   -------------------------------------------------------

  ==> Integral Setup <==

  Using integral reordering PK algorithm.
  Sizing the integral batches needed.
  Building batch lookup table.
   Calculation information:
      Number of atoms:                  23
      Number of AO shells:             105
      Number of primitives:            319
      Number of atomic orbitals:       235
      Number of basis functions:       223

      Integral cutoff                 1.00e-12
      Number of threads:                 1

	Batch   1 pq = [       0,    9405] index = [             0,44231715] size =     44231715
	Batch   2 pq = [    9405,   13301] index = [      44231715,88464951] size =     44233236
	Batch   3 pq = [   13301,   16290] index = [      88464951,132690195] size =     44225244
	Batch   4 pq = [   16290,   18810] index = [     132690195,176917455] size =     44227260
	Batch   5 pq = [   18810,   21030] index = [     176917455,221140965] size =     44223510
	Batch   6 pq = [   21030,   23037] index = [     221140965,265363203] size =     44222238
	Batch   7 pq = [   23037,   24976] index = [     265363203,311912776] size =     46549573
  Task number: 29
  Buffer size: 11059200
  Buffer per thread: 2
  We computed 11799305 shell quartets total.
  Whereas there are 15487395 unique shell quartets.

  ==> DiskJK: Disk-Based J/K Matrices <==

    J tasked:                  Yes
    K tasked:                  Yes
    wK tasked:                  No
    Memory [MiB]:              375
    Schwarz Cutoff:          1E-12

    OpenMP threads:              1

  Minimum eigenvalue in the overlap matrix is 3.0724111500E-04.
  Using Symmetric Orthogonalization.

  SCF Guess: Superposition of Atomic Densities via on-the-fly atomic UHF.

  ==> Iterations <==

                        Total Energy        Delta E     RMS |[F,P]|

   @RHF iter SAD:  -570.39840748433755   -5.70398e+02   0.00000e+00
   @RHF iter   1:  -571.46497771787358   -1.06657e+00   3.78919e-03 DIIS
   @RHF iter   2:  -571.76451273458474   -2.99535e-01   2.00368e-03 DIIS
   @RHF iter   3:  -571.83923305357052   -7.47203e-02   3.45499e-04 DIIS
   @RHF iter   4:  -571.84311605174287   -3.88300e-03   1.26511e-04 DIIS
   @RHF iter   5:  -571.84365133921665   -5.35287e-04   2.14694e-05 DIIS
   @RHF iter   6:  -571.84367445614157   -2.31169e-05   7.96973e-06 DIIS
   @RHF iter   7:  -571.84367740932464   -2.95318e-06   3.49026e-06 DIIS
   @RHF iter   8:  -571.84367806113050   -6.51806e-07   1.17690e-06 DIIS
   @RHF iter   9:  -571.84367820079001   -1.39660e-07   4.96516e-07 DIIS
   @RHF iter  10:  -571.84367822879062   -2.80006e-08   2.14162e-07 DIIS
   @RHF iter  11:  -571.84367823632249   -7.53187e-09   9.84073e-08 DIIS
   @RHF iter  12:  -571.84367823749017   -1.16768e-09   4.13398e-08 DIIS
   @RHF iter  13:  -571.84367823768162   -1.91449e-10   1.07472e-08 DIIS
   @RHF iter  14:  -571.84367823769981   -1.81899e-11   3.42557e-09 DIIS
   @RHF iter  15:  -571.84367823770151   -1.70530e-12   1.29054e-09 DIIS
   @RHF iter  16:  -571.84367823769128    1.02318e-11   5.90112e-10 DIIS
   @RHF iter  17:  -571.84367823770026   -8.98126e-12   2.64400e-10 DIIS
   @RHF iter  18:  -571.84367823770219   -1.93268e-12   1.17457e-10 DIIS
   @RHF iter  19:  -571.84367823769867    3.52429e-12   5.18849e-11 DIIS
  Energy and wave function converged.

  ==> Post-Iterations <==

    Orbital Energies [Eh]
    ---------------------

    Doubly Occupied:

       1A    -20.430670     2A    -20.250146     3A    -20.243651
       4A    -11.177365     5A    -11.138987     6A    -11.129443
       7A    -11.123823     8A    -11.120788     9A    -11.117490
      10A    -11.108720    11A    -11.102158    12A    -11.040459
      13A     -1.251774    14A     -1.143784    15A     -1.047793
      16A     -1.031281    17A     -0.935215    18A     -0.908587
      19A     -0.822412    20A     -0.792520    21A     -0.730323
      22A     -0.689250    23A     -0.605745    24A     -0.555573
      25A     -0.529804    26A     -0.499274    27A     -0.494213
      28A     -0.488554    29A     -0.475752    30A     -0.451669
      31A     -0.440387    32A     -0.413574    33A     -0.407803
      34A     -0.401163    35A     -0.396528    36A     -0.391874
      37A     -0.363662    38A     -0.352820    39A     -0.328721
      40A     -0.294577    41A     -0.231526    42A     -0.183676
      43A     -0.168847    44A     -0.163065    45A     -0.152393

    Virtual:

      46A      0.241563    47A      0.268464    48A      0.272736
      49A      0.292610    50A      0.315387    51A      0.324238
      52A      0.355318    53A      0.357688    54A      0.369178
      55A      0.377557    56A      0.399842    57A      0.421018
      58A      0.432557    59A      0.466129    60A      0.487971
      61A      0.499579    62A      0.551647    63A      0.572180
      64A      0.585538    65A      0.594499    66A      0.601676
      67A      0.629142    68A      0.710339    69A      0.715069
      70A      0.726610    71A      0.736737    72A      0.772830
      73A      0.774757    74A      0.798779    75A      0.808893
      76A      0.820238    77A      0.828328    78A      0.842276
      79A      0.846104    80A      0.851777    81A      0.868268
      82A      0.881563    83A      0.891017    84A      0.892498
      85A      0.901652    86A      0.932245    87A      0.949285
      88A      0.960592    89A      0.965446    90A      0.971234
      91A      0.986645    92A      0.996466    93A      1.009569
      94A      1.018186    95A      1.024833    96A      1.036496
      97A      1.042170    98A      1.045685    99A      1.051392
     100A      1.056791   101A      1.063357   102A      1.084739
     103A      1.131719   104A      1.141159   105A      1.159595
     106A      1.166819   107A      1.229728   108A      1.243664
     109A      1.260042   110A      1.277362   111A      1.279693
     112A      1.318138   113A      1.337897   114A      1.354250
     115A      1.361346   116A      1.362342   117A      1.385550
     118A      1.403299   119A      1.413808   120A      1.424290
     121A      1.447665   122A      1.475964   123A      1.478352
     124A      1.497797   125A      1.513040   126A      1.559100
     127A      1.568247   128A      1.577170   129A      1.601257
     130A      1.617166   131A      1.624618   132A      1.664178
     133A      1.668920   134A      1.684440   135A      1.738072
     136A      1.766243   137A      1.778466   138A      1.790485
     139A      1.795056   140A      1.845006   141A      1.846705
     142A      1.856490   143A      1.875727   144A      1.887264
     145A      1.914319   146A      1.921778   147A      1.960270
     148A      1.988158   149A      1.998676   150A      2.011292
     151A      2.023736   152A      2.035289   153A      2.044126
     154A      2.053132   155A      2.069471   156A      2.080211
     157A      2.086383   158A      2.096134   159A      2.115122
     160A      2.124283   161A      2.152613   162A      2.153281
     163A      2.164582   164A      2.187520   165A      2.191197
     166A      2.209014   167A      2.230044   168A      2.246740
     169A      2.283987   170A      2.291298   171A      2.309396
     172A      2.322220   173A      2.335932   174A      2.361808
     175A      2.366244   176A      2.388037   177A      2.409192
     178A      2.442862   179A      2.454446   180A      2.463056
     181A      2.511105   182A      2.514313   183A      2.587321
     184A      2.600584   185A      2.616647   186A      2.627745
     187A      2.643898   188A      2.678269   189A      2.685995
     190A      2.718692   191A      2.742869   192A      2.787343
     193A      2.797992   194A      2.852004   195A      2.866553
     196A      2.912144   197A      2.921651   198A      2.923029
     199A      2.939136   200A      2.973548   201A      3.006196
     202A      3.017597   203A      3.085086   204A      3.120250
     205A      3.220610   206A      3.251188   207A      3.256639
     208A      3.289021   209A      3.315348   210A      3.378764
     211A      3.403542   212A      3.411830   213A      3.497947
     214A      3.643208   215A      3.748977   216A      3.811052
     217A      3.832238   218A      3.883176   219A      4.086817
     220A      4.119591   221A      4.153128   222A      4.238235
     223A      4.353415

    Final Occupation by Irrep:
              A
    DOCC [    45 ]

  @RHF Final Energy:  -571.84367823769867

   => Energetics <=

    Nuclear Repulsion Energy =            642.0331991868854402
    One-Electron Energy =               -2069.4980740496234830
    Two-Electron Energy =                 855.6211966250393743
    Total Energy =                       -571.8436782376986685

Computation Completed

Properties will be evaluated at   0.000000,   0.000000,   0.000000 [a0]

Properties computed using the SCF density matrix

  Nuclear Dipole Moment: [e a0]
     X:    -3.9055      Y:     4.0210      Z:    -5.7716

  Electronic Dipole Moment: [e a0]
     X:     2.6925      Y:    -4.0000      Z:     1.0702

  Dipole Moment: [e a0]
     X:    -1.2130      Y:     0.0211      Z:    -4.7014     Total:     4.8555

  Dipole Moment: [D]
     X:    -3.0832      Y:     0.0536      Z:   -11.9499     Total:    12.3413

*** tstop() called on ds3 at Mon Apr 27 07:47:28 2020
Module time:
	user time   =     104.99 seconds =       1.75 minutes
	system time =      48.98 seconds =       0.82 minutes
	total time  =        266 seconds =       4.43 minutes
Total time:
	user time   =     104.99 seconds =       1.75 minutes
	system time =      48.98 seconds =       0.82 minutes
	total time  =        266 seconds =       4.43 minutes
                                     G D M A

                                 by Anthony Stone

                           version 2.2.06, 22 June 2011

               Distributed Multipoles from Gaussian wavefunctions

Starting at 7:47:28 on 27 Apr 2020

Using SCF density matrix from file ./SSI/SSI-221GLU-231TYR-1-dimer.test.32533.fchk

                         Distributed Multipole Analysis

Standard DMA

Positions and radii in angstrom
Multipole moments in atomic units, ea_0^k for rank k

C          x = -0.137300  y =  0.256116  z =  4.726048 angstrom
           Maximum rank =  0   Radius =  0.650 angstrom
                   Q00  =  -0.264246

C          x =  0.444700  y = -0.131884  z =  3.407048 angstrom
           Maximum rank =  0   Radius =  0.650 angstrom
                   Q00  =   0.970650

O          x = -0.309300  y = -0.341884  z =  2.447048 angstrom
           Maximum rank =  0   Radius =  0.650 angstrom
                   Q00  =  -0.913049

O          x =  1.692700  y = -0.135884  z =  3.350048 angstrom
           Maximum rank =  0   Radius =  0.650 angstrom
                   Q00  =  -0.944573

H          x =  0.055700  y =  1.319116  z =  4.885048 angstrom
           Maximum rank =  0   Radius =  0.325 angstrom
                   Q00  =   0.073139

H          x =  0.346700  y = -0.300884  z =  5.530048 angstrom
           Maximum rank =  0   Radius =  0.325 angstrom
                   Q00  =   0.053366

H          x = -1.221020  y =  0.071696  z =  4.765208 angstrom
           Maximum rank =  0   Radius =  0.325 angstrom
                   Q00  =   0.034452

C          x = -0.915300  y =  1.543116  z = -4.285952 angstrom
           Maximum rank =  0   Radius =  0.650 angstrom
                   Q00  =  -0.187916

C          x = -0.474300  y =  0.649116  z = -0.672952 angstrom
           Maximum rank =  0   Radius =  0.650 angstrom
                   Q00  =  -0.091575

C          x =  0.105700  y = -0.634884  z = -0.776952 angstrom
           Maximum rank =  0   Radius =  0.650 angstrom
                   Q00  =   0.348206

C          x = -0.802300  y =  1.341116  z = -1.818952 angstrom
           Maximum rank =  0   Radius =  0.650 angstrom
                   Q00  =  -0.060956

C          x = -0.567300  y =  0.783116  z = -3.052952 angstrom
           Maximum rank =  0   Radius =  0.650 angstrom
                   Q00  =  -0.101759

C          x =  0.309700  y = -1.200884  z = -2.008952 angstrom
           Maximum rank =  0   Radius =  0.650 angstrom
                   Q00  =  -0.184119

C          x = -0.028300  y = -0.481884  z = -3.148952 angstrom
           Maximum rank =  0   Radius =  0.650 angstrom
                   Q00  =   0.020660

O          x =  0.428700  y = -1.385884  z =  0.319048 angstrom
           Maximum rank =  0   Radius =  0.650 angstrom
                   Q00  =  -0.574872

H          x = -0.655300  y =  1.073116  z =  0.302048 angstrom
           Maximum rank =  0   Radius =  0.325 angstrom
                   Q00  =   0.099907

H          x = -1.238300  y =  2.328116  z = -1.738952 angstrom
           Maximum rank =  0   Radius =  0.325 angstrom
                   Q00  =   0.038110

H          x =  0.729700  y = -2.192884  z = -2.100952 angstrom
           Maximum rank =  0   Radius =  0.325 angstrom
                   Q00  =   0.047731

H          x =  0.718700  y = -2.269884  z =  0.084048 angstrom
           Maximum rank =  0   Radius =  0.325 angstrom
                   Q00  =   0.362469

H          x = -1.567300  y =  2.378116  z = -4.024952 angstrom
           Maximum rank =  0   Radius =  0.325 angstrom
                   Q00  =   0.083409

H          x = -1.461300  y =  0.890116  z = -4.967952 angstrom
           Maximum rank =  0   Radius =  0.325 angstrom
                   Q00  =   0.077558

H          x =  0.136700  y = -0.922884  z = -4.123952 angstrom
           Maximum rank =  0   Radius =  0.325 angstrom
                   Q00  =   0.034082

H          x = -0.019570  y =  1.925066  z = -4.797595 angstrom
           Maximum rank =  0   Radius =  0.325 angstrom
                   Q00  =   0.079328

Total multipoles referred to origin at
           x =   0.000000,  y =    0.000000,  z =    0.000000 angstrom
                   Q00  =  -1.000000

Finished at 7:47:28 on 27 Apr 2020

  DMA results are available in the Python driver through the
	  variable('DMA DISTRIBUTED MULTIPOLES')
  and
	  variable('DMA TOTAL MULTIPOLES')
  commands.

    Psi4 stopped on: Monday, 27 April 2020 07:47AM
    Psi4 wall time for execution: 0:04:26.36

*** Psi4 exiting successfully. Buy a developer a beer!
