                               Psi4 1.3.2 release

  ==> Input File <==

--------------------------------------------------------------------------
import numpy as np
set {scf_type pk
basis cc-pvdz
d_convergence 10
gdma_switch   0
gdma_limit    0
gdma_origin   [ 0.0,  0.0,  0.0 ]
}
molecule test {
    units Angstrom
    0 1
    --
    0 1
    C               -0.603891787259883     1.242436285263399     1.091435086658662
    C               -0.862891787259883     2.165436285263399     2.257435086658662
    C               -0.658891787259883     2.040436285263399    -0.207564913341338
    C                0.771108212740117     0.582436285263399     1.264435086658662
    H               -1.354891787259883     0.455436285263399     1.050435086658662
    H               -0.388891787259883     3.129436285263399     2.085435086658662
    H               -0.391891787259883     1.728436285263399     3.138435086658662
    H                0.040108212740117     2.875436285263399    -0.171564913341338
    H               -0.375891787259883     1.394436285263399    -1.036564913341338
    H               -1.647891787259883     2.414436285263399    -0.439564913341338
    H                0.680108212740117    -0.313563714736601     1.880435086658662
    H                1.224108212740117     0.349436285263399     0.314435086658662
    H                1.456108212740117     1.275436285263399     1.757435086658662
    H               -1.926611787259883     2.290452285263399     2.508189086658662
    C                0.260108212740117    -1.795563714736601    -0.892564913341338
    C                0.092108212740117    -3.174563714736601    -1.395564913341338
    C                0.922108212740117    -1.010563714736601    -2.026564913341338
    H                0.936108212740117    -1.840563714736601    -0.038564913341338
    H               -0.695891787259883    -1.358563714736601    -0.600564913341338
    H                0.201108212740117    -3.892563714736601    -0.581564913341338
    H               -0.888891787259883    -3.261563714736601    -1.854564913341338
    H                1.527108212740117    -0.171563714736601    -1.687564913341338
    H                0.143108212740117    -0.641563714736601    -2.696564913341338
    H                0.891671212740117    -3.275632114736601    -2.144214913341338
    H                1.526751212740117    -1.753348814736601    -2.567564913341338

}
e, wfn = energy('scf', return_wfn=True)
gdma(wfn)
dmavals = variable('DMA DISTRIBUTED MULTIPOLES')
charges = np.array(dmavals)
print(charges)
np.save('SSI-016LEU-072PRO-1-dimer.npy', np.array(charges))--------------------------------------------------------------------------

*** tstart() called on ds3
*** at Tue Apr 28 12:47:59 2020

   => Loading Basis Set <=

    Name: CC-PVDZ
    Role: ORBITAL
    Keyword: BASIS
    atoms 1-4, 15-17  entry C          line   138 file /theoryfs2/ds/metcalf/miniconda2/envs/tf2gpu/share/psi4/basis/cc-pvdz.gbs
    atoms 5-14, 18-25 entry H          line    22 file /theoryfs2/ds/metcalf/miniconda2/envs/tf2gpu/share/psi4/basis/cc-pvdz.gbs

         ---------------------------------------------------------
                                   SCF
               by Justin Turney, Rob Parrish, Andy Simmonett
                          and Daniel G. A. Smith
                              RHF Reference
                        1 Threads,    500 MiB Core
         ---------------------------------------------------------

  ==> Geometry <==

    Molecular point group: c1
    Full point group: C1

    Geometry (in Angstrom), charge = 0, multiplicity = 1:

       Center              X                  Y                   Z               Mass
    ------------   -----------------  -----------------  -----------------  -----------------
         C           -0.603891787260     1.242436285263     1.091435086659    12.000000000000
         C           -0.862891787260     2.165436285263     2.257435086659    12.000000000000
         C           -0.658891787260     2.040436285263    -0.207564913341    12.000000000000
         C            0.771108212740     0.582436285263     1.264435086659    12.000000000000
         H           -1.354891787260     0.455436285263     1.050435086659     1.007825032230
         H           -0.388891787260     3.129436285263     2.085435086659     1.007825032230
         H           -0.391891787260     1.728436285263     3.138435086659     1.007825032230
         H            0.040108212740     2.875436285263    -0.171564913341     1.007825032230
         H           -0.375891787260     1.394436285263    -1.036564913341     1.007825032230
         H           -1.647891787260     2.414436285263    -0.439564913341     1.007825032230
         H            0.680108212740    -0.313563714737     1.880435086659     1.007825032230
         H            1.224108212740     0.349436285263     0.314435086659     1.007825032230
         H            1.456108212740     1.275436285263     1.757435086659     1.007825032230
         H           -1.926611787260     2.290452285263     2.508189086659     1.007825032230
         C            0.260108212740    -1.795563714737    -0.892564913341    12.000000000000
         C            0.092108212740    -3.174563714737    -1.395564913341    12.000000000000
         C            0.922108212740    -1.010563714737    -2.026564913341    12.000000000000
         H            0.936108212740    -1.840563714737    -0.038564913341     1.007825032230
         H           -0.695891787260    -1.358563714737    -0.600564913341     1.007825032230
         H            0.201108212740    -3.892563714737    -0.581564913341     1.007825032230
         H           -0.888891787260    -3.261563714737    -1.854564913341     1.007825032230
         H            1.527108212740    -0.171563714737    -1.687564913341     1.007825032230
         H            0.143108212740    -0.641563714737    -2.696564913341     1.007825032230
         H            0.891671212740    -3.275632114737    -2.144214913341     1.007825032230
         H            1.526751212740    -1.753348814737    -2.567564913341     1.007825032230

  Running in c1 symmetry.

  Rotational constants: A =      0.14152  B =      0.02840  C =      0.02662 [cm^-1]
  Rotational constants: A =   4242.71301  B =    851.54149  C =    797.92728 [MHz]
  Nuclear repulsion =  324.772924383279985

  Charge       = 0
  Multiplicity = 1
  Electrons    = 60
  Nalpha       = 30
  Nbeta        = 30

  ==> Algorithm <==

  SCF Algorithm Type is PK.
  DIIS enabled.
  MOM disabled.
  Fractional occupation disabled.
  Guess Type is SAD.
  Energy threshold   = 1.00e-06
  Density threshold  = 1.00e-10
  Integral threshold = 0.00e+00

  ==> Primary Basis <==

  Basis Set: CC-PVDZ
    Blend: CC-PVDZ
    Number of shells: 96
    Number of basis function: 188
    Number of Cartesian functions: 195
    Spherical Harmonics?: true
    Max angular momentum: 2

  ==> Pre-Iterations <==

   -------------------------------------------------------
    Irrep   Nso     Nmo     Nalpha   Nbeta   Ndocc  Nsocc
   -------------------------------------------------------
     A        188     188       0       0       0       0
   -------------------------------------------------------
    Total     188     188      30      30      30       0
   -------------------------------------------------------

  ==> Integral Setup <==

  Using integral reordering PK algorithm.
  Sizing the integral batches needed.
  Building batch lookup table.
   Calculation information:
      Number of atoms:                  25
      Number of AO shells:              96
      Number of primitives:            244
      Number of atomic orbitals:       195
      Number of basis functions:       188

      Integral cutoff                 1.00e-12
      Number of threads:                 1

	Batch   1 pq = [       0,    9405] index = [             0,44231715] size =     44231715
	Batch   2 pq = [    9405,   13301] index = [      44231715,88464951] size =     44233236
	Batch   3 pq = [   13301,   16290] index = [      88464951,132690195] size =     44225244
	Batch   4 pq = [   16290,   17766] index = [     132690195,157824261] size =     25134066
  Task number: 15
  Buffer size: 11059200
  Buffer per thread: 2
  We computed 10462158 shell quartets total.
  Whereas there are 10841496 unique shell quartets.

  ==> DiskJK: Disk-Based J/K Matrices <==

    J tasked:                  Yes
    K tasked:                  Yes
    wK tasked:                  No
    Memory [MiB]:              375
    Schwarz Cutoff:          1E-12

    OpenMP threads:              1

  Minimum eigenvalue in the overlap matrix is 3.8823506596E-03.
  Using Symmetric Orthogonalization.

  SCF Guess: Superposition of Atomic Densities via on-the-fly atomic UHF.

  ==> Iterations <==

                        Total Energy        Delta E     RMS |[F,P]|

   @RHF iter SAD:  -274.77539921229487   -2.74775e+02   0.00000e+00
   @RHF iter   1:  -275.27761452443104   -5.02215e-01   3.35518e-03 DIIS
   @RHF iter   2:  -275.50128920985799   -2.23675e-01   1.47849e-03 DIIS
   @RHF iter   3:  -275.54252477900985   -4.12356e-02   3.03064e-04 DIIS
   @RHF iter   4:  -275.54565882184107   -3.13404e-03   6.53125e-05 DIIS
   @RHF iter   5:  -275.54576027461445   -1.01453e-04   1.45278e-05 DIIS
   @RHF iter   6:  -275.54576676352150   -6.48891e-06   2.66705e-06 DIIS
   @RHF iter   7:  -275.54576698773661   -2.24215e-07   6.89887e-07 DIIS
   @RHF iter   8:  -275.54576700486047   -1.71239e-08   1.91701e-07 DIIS
   @RHF iter   9:  -275.54576700610744   -1.24697e-09   5.08358e-08 DIIS
   @RHF iter  10:  -275.54576700622613   -1.18689e-10   9.95462e-09 DIIS
   @RHF iter  11:  -275.54576700622988   -3.75167e-12   2.28574e-09 DIIS
   @RHF iter  12:  -275.54576700623170   -1.81899e-12   6.40257e-10 DIIS
   @RHF iter  13:  -275.54576700623250   -7.95808e-13   1.46522e-10 DIIS
   @RHF iter  14:  -275.54576700623227    2.27374e-13   4.16318e-11 DIIS
  Energy and wave function converged.

  ==> Post-Iterations <==

    Orbital Energies [Eh]
    ---------------------

    Doubly Occupied:

       1A    -11.220626     2A    -11.214879     3A    -11.211681
       4A    -11.210828     5A    -11.209682     6A    -11.208799
       7A    -11.208596     8A     -1.085145     9A     -1.071715
      10A     -0.927742    11A     -0.925828    12A     -0.917827
      13A     -0.796910    14A     -0.767212    15A     -0.640756
      16A     -0.633760    17A     -0.619811    18A     -0.590455
      19A     -0.581964    20A     -0.542383    21A     -0.541249
      22A     -0.532584    23A     -0.517248    24A     -0.499094
      25A     -0.482715    26A     -0.468379    27A     -0.465063
      28A     -0.456734    29A     -0.453399    30A     -0.451132

    Virtual:

      31A      0.174771    32A      0.198484    33A      0.208619
      34A      0.210949    35A      0.235112    36A      0.238950
      37A      0.245786    38A      0.250536    39A      0.265406
      40A      0.272673    41A      0.277829    42A      0.281729
      43A      0.301085    44A      0.307918    45A      0.321081
      46A      0.328458    47A      0.352613    48A      0.369392
      49A      0.386214    50A      0.391596    51A      0.414573
      52A      0.446673    53A      0.459402    54A      0.550431
      55A      0.581240    56A      0.588957    57A      0.607500
      58A      0.615360    59A      0.624448    60A      0.641760
      61A      0.667107    62A      0.704902    63A      0.731999
      64A      0.774323    65A      0.781423    66A      0.802553
      67A      0.814775    68A      0.820332    69A      0.834111
      70A      0.848782    71A      0.863148    72A      0.872116
      73A      0.883454    74A      0.887369    75A      0.894968
      76A      0.897634    77A      0.902437    78A      0.908457
      79A      0.913902    80A      0.919385    81A      0.924919
      82A      0.931470    83A      0.939250    84A      0.947610
      85A      0.956143    86A      0.963426    87A      0.971502
      88A      0.983113    89A      1.001304    90A      1.036140
      91A      1.040269    92A      1.066603    93A      1.094904
      94A      1.119825    95A      1.148267    96A      1.160012
      97A      1.209692    98A      1.241618    99A      1.373391
     100A      1.395094   101A      1.407767   102A      1.457585
     103A      1.478902   104A      1.503986   105A      1.543703
     106A      1.580813   107A      1.614184   108A      1.620805
     109A      1.636665   110A      1.644378   111A      1.673664
     112A      1.687368   113A      1.694354   114A      1.707783
     115A      1.719751   116A      1.727187   117A      1.755760
     118A      1.793403   119A      1.814476   120A      1.842436
     121A      1.856941   122A      1.860677   123A      1.888049
     124A      1.910861   125A      1.921151   126A      1.928511
     127A      1.935101   128A      1.943874   129A      1.953898
     130A      1.960843   131A      1.976440   132A      1.981104
     133A      1.988274   134A      2.004181   135A      2.019398
     136A      2.021173   137A      2.047498   138A      2.065104
     139A      2.075033   140A      2.085448   141A      2.092453
     142A      2.112708   143A      2.117837   144A      2.149845
     145A      2.153497   146A      2.170956   147A      2.201588
     148A      2.220240   149A      2.251313   150A      2.255312
     151A      2.275533   152A      2.297982   153A      2.324870
     154A      2.360967   155A      2.366427   156A      2.387347
     157A      2.401197   158A      2.412150   159A      2.464663
     160A      2.473359   161A      2.497303   162A      2.505524
     163A      2.555569   164A      2.564478   165A      2.585927
     166A      2.639362   167A      2.659376   168A      2.691970
     169A      2.714155   170A      2.735383   171A      2.766390
     172A      2.784791   173A      2.789507   174A      2.799425
     175A      2.809202   176A      2.822648   177A      2.844684
     178A      2.852300   179A      2.858451   180A      2.868853
     181A      2.891010   182A      2.908578   183A      2.932930
     184A      2.960824   185A      3.003079   186A      3.036885
     187A      3.084800   188A      3.123343

    Final Occupation by Irrep:
              A
    DOCC [    30 ]

  @RHF Final Energy:  -275.54576700623227

   => Energetics <=

    Nuclear Repulsion Energy =            324.7729243832799852
    One-Electron Energy =               -1013.7289878433346075
    Two-Electron Energy =                 413.4102964538222977
    Total Energy =                       -275.5457670062322677

Computation Completed

Properties will be evaluated at   0.000000,   0.000000,   0.000000 [a0]

Properties computed using the SCF density matrix

  Nuclear Dipole Moment: [e a0]
     X:     0.8957      Y:    -0.5587      Z:    -1.0163

  Electronic Dipole Moment: [e a0]
     X:    -0.9168      Y:     0.5143      Z:     1.0307

  Dipole Moment: [e a0]
     X:    -0.0211      Y:    -0.0445      Z:     0.0145     Total:     0.0513

  Dipole Moment: [D]
     X:    -0.0538      Y:    -0.1130      Z:     0.0368     Total:     0.1304

*** tstop() called on ds3 at Tue Apr 28 12:50:19 2020
Module time:
	user time   =      57.67 seconds =       0.96 minutes
	system time =      19.32 seconds =       0.32 minutes
	total time  =        140 seconds =       2.33 minutes
Total time:
	user time   =      57.67 seconds =       0.96 minutes
	system time =      19.32 seconds =       0.32 minutes
	total time  =        140 seconds =       2.33 minutes
                                     G D M A

                                 by Anthony Stone

                           version 2.2.06, 22 June 2011

               Distributed Multipoles from Gaussian wavefunctions

Starting at 12:50:19 on 28 Apr 2020

Using SCF density matrix from file ./SSI/SSI-016LEU-072PRO-1-dimer.test.15412.fchk

                         Distributed Multipole Analysis

Standard DMA

Positions and radii in angstrom
Multipole moments in atomic units, ea_0^k for rank k

C          x = -0.603892  y =  1.242436  z =  1.091435 angstrom
           Maximum rank =  0   Radius =  0.650 angstrom
                   Q00  =  -0.010265

C          x = -0.862892  y =  2.165436  z =  2.257435 angstrom
           Maximum rank =  0   Radius =  0.650 angstrom
                   Q00  =  -0.220098

C          x = -0.658892  y =  2.040436  z = -0.207565 angstrom
           Maximum rank =  0   Radius =  0.650 angstrom
                   Q00  =  -0.248097

C          x =  0.771108  y =  0.582436  z =  1.264435 angstrom
           Maximum rank =  0   Radius =  0.650 angstrom
                   Q00  =  -0.248739

H          x = -1.354892  y =  0.455436  z =  1.050435 angstrom
           Maximum rank =  0   Radius =  0.325 angstrom
                   Q00  =   0.020566

H          x = -0.388892  y =  3.129436  z =  2.085435 angstrom
           Maximum rank =  0   Radius =  0.325 angstrom
                   Q00  =   0.077735

H          x = -0.391892  y =  1.728436  z =  3.138435 angstrom
           Maximum rank =  0   Radius =  0.325 angstrom
                   Q00  =   0.068958

H          x =  0.040108  y =  2.875436  z = -0.171565 angstrom
           Maximum rank =  0   Radius =  0.325 angstrom
                   Q00  =   0.074324

H          x = -0.375892  y =  1.394436  z = -1.036565 angstrom
           Maximum rank =  0   Radius =  0.325 angstrom
                   Q00  =   0.078444

H          x = -1.647892  y =  2.414436  z = -0.439565 angstrom
           Maximum rank =  0   Radius =  0.325 angstrom
                   Q00  =   0.082814

H          x =  0.680108  y = -0.313564  z =  1.880435 angstrom
           Maximum rank =  0   Radius =  0.325 angstrom
                   Q00  =   0.083510

H          x =  1.224108  y =  0.349436  z =  0.314435 angstrom
           Maximum rank =  0   Radius =  0.325 angstrom
                   Q00  =   0.083913

H          x =  1.456108  y =  1.275436  z =  1.757435 angstrom
           Maximum rank =  0   Radius =  0.325 angstrom
                   Q00  =   0.069626

H          x = -1.926612  y =  2.290452  z =  2.508189 angstrom
           Maximum rank =  0   Radius =  0.325 angstrom
                   Q00  =   0.080699

C          x =  0.260108  y = -1.795564  z = -0.892565 angstrom
           Maximum rank =  0   Radius =  0.650 angstrom
                   Q00  =  -0.111345

C          x =  0.092108  y = -3.174564  z = -1.395565 angstrom
           Maximum rank =  0   Radius =  0.650 angstrom
                   Q00  =  -0.208004

C          x =  0.922108  y = -1.010564  z = -2.026565 angstrom
           Maximum rank =  0   Radius =  0.650 angstrom
                   Q00  =  -0.223145

H          x =  0.936108  y = -1.840564  z = -0.038565 angstrom
           Maximum rank =  0   Radius =  0.325 angstrom
                   Q00  =   0.050848

H          x = -0.695892  y = -1.358564  z = -0.600565 angstrom
           Maximum rank =  0   Radius =  0.325 angstrom
                   Q00  =   0.056494

H          x =  0.201108  y = -3.892564  z = -0.581565 angstrom
           Maximum rank =  0   Radius =  0.325 angstrom
                   Q00  =   0.083919

H          x = -0.888892  y = -3.261564  z = -1.854565 angstrom
           Maximum rank =  0   Radius =  0.325 angstrom
                   Q00  =   0.080733

H          x =  1.527108  y = -0.171564  z = -1.687565 angstrom
           Maximum rank =  0   Radius =  0.325 angstrom
                   Q00  =   0.083832

H          x =  0.143108  y = -0.641564  z = -2.696565 angstrom
           Maximum rank =  0   Radius =  0.325 angstrom
                   Q00  =   0.076581

H          x =  0.891671  y = -3.275632  z = -2.144215 angstrom
           Maximum rank =  0   Radius =  0.325 angstrom
                   Q00  =   0.059965

H          x =  1.526751  y = -1.753349  z = -2.567565 angstrom
           Maximum rank =  0   Radius =  0.325 angstrom
                   Q00  =   0.056732

Total multipoles referred to origin at
           x =   0.000000,  y =    0.000000,  z =    0.000000 angstrom
                   Q00  =  -0.000000

Finished at 12:50:19 on 28 Apr 2020

  DMA results are available in the Python driver through the
	  variable('DMA DISTRIBUTED MULTIPOLES')
  and
	  variable('DMA TOTAL MULTIPOLES')
  commands.

    Psi4 stopped on: Tuesday, 28 April 2020 12:50PM
    Psi4 wall time for execution: 0:02:19.81

*** Psi4 exiting successfully. Buy a developer a beer!
