                               Psi4 1.3.2 release

  ==> Input File <==

--------------------------------------------------------------------------
import numpy as np
set {scf_type pk
basis cc-pvdz
d_convergence 10
gdma_switch   0
gdma_limit    0
gdma_origin   [ 0.0,  0.0,  0.0 ]
}
molecule test {
    units Angstrom
    0 1
    --
    0 1
    C               -0.650796995299942    -1.112528345271999    -1.329415891800752
    C               -2.008796995299942    -0.427528345271999    -1.534415891800752
    C               -0.525796995299942    -1.792528345271999     0.044584108199248
    H               -0.471796995299942    -1.847528345271999    -2.111415891800752
    H                0.138203004700058    -0.364528345271999    -1.390415891800752
    H               -2.194796995299941     0.254471654728001    -0.701415891800752
    H               -1.068796995299942    -2.736528345271999     0.062584108199248
    H                0.523203004700058    -2.009528345271999     0.243584108199248
    H               -0.898796995299942    -1.133528345272000     0.829584108199248
    H               -2.025156995299942     0.138563564728001    -2.477425891800752
    H               -2.783716995299942    -1.208218345271999    -1.539465891800752
    C                1.188203004700058     1.553471654728001     0.710584108199248
    C                1.950203004700058     1.710471654728001     2.017584108199248
    H                1.733203004700058     0.897471654728001     0.030584108199248
    H                0.209203004700058     1.119471654728001     0.915584108199248
    H                1.028203004700058     2.510471654728001     0.223584108199248
    H                1.369203004700058     2.316471654728000     2.711584108199249
    H                2.931273004700058     2.175490654728001     1.840774108199248
    H                2.070013004700058     0.704752854728001     2.446744108199249

}
e, wfn = energy('scf', return_wfn=True)
gdma(wfn)
dmavals = variable('DMA DISTRIBUTED MULTIPOLES')
charges = np.array(dmavals)
print(charges)
np.save('SSI-039ILE-054LEU-1-dimer.npy', np.array(charges))--------------------------------------------------------------------------

*** tstart() called on ds3
*** at Sun Apr 26 17:51:27 2020

   => Loading Basis Set <=

    Name: CC-PVDZ
    Role: ORBITAL
    Keyword: BASIS
    atoms 1-3, 12-13  entry C          line   138 file /theoryfs2/ds/metcalf/miniconda2/envs/tf2gpu/share/psi4/basis/cc-pvdz.gbs
    atoms 4-11, 14-19 entry H          line    22 file /theoryfs2/ds/metcalf/miniconda2/envs/tf2gpu/share/psi4/basis/cc-pvdz.gbs

         ---------------------------------------------------------
                                   SCF
               by Justin Turney, Rob Parrish, Andy Simmonett
                          and Daniel G. A. Smith
                              RHF Reference
                        1 Threads,    500 MiB Core
         ---------------------------------------------------------

  ==> Geometry <==

    Molecular point group: c1
    Full point group: C1

    Geometry (in Angstrom), charge = 0, multiplicity = 1:

       Center              X                  Y                   Z               Mass
    ------------   -----------------  -----------------  -----------------  -----------------
         C           -0.650796995300    -1.112528345272    -1.329415891801    12.000000000000
         C           -2.008796995300    -0.427528345272    -1.534415891801    12.000000000000
         C           -0.525796995300    -1.792528345272     0.044584108199    12.000000000000
         H           -0.471796995300    -1.847528345272    -2.111415891801     1.007825032230
         H            0.138203004700    -0.364528345272    -1.390415891801     1.007825032230
         H           -2.194796995300     0.254471654728    -0.701415891801     1.007825032230
         H           -1.068796995300    -2.736528345272     0.062584108199     1.007825032230
         H            0.523203004700    -2.009528345272     0.243584108199     1.007825032230
         H           -0.898796995300    -1.133528345272     0.829584108199     1.007825032230
         H           -2.025156995300     0.138563564728    -2.477425891801     1.007825032230
         H           -2.783716995300    -1.208218345272    -1.539465891801     1.007825032230
         C            1.188203004700     1.553471654728     0.710584108199    12.000000000000
         C            1.950203004700     1.710471654728     2.017584108199    12.000000000000
         H            1.733203004700     0.897471654728     0.030584108199     1.007825032230
         H            0.209203004700     1.119471654728     0.915584108199     1.007825032230
         H            1.028203004700     2.510471654728     0.223584108199     1.007825032230
         H            1.369203004700     2.316471654728     2.711584108199     1.007825032230
         H            2.931273004700     2.175490654728     1.840774108199     1.007825032230
         H            2.070013004700     0.704752854728     2.446744108199     1.007825032230

  Running in c1 symmetry.

  Rotational constants: A =      0.22982  B =      0.04254  C =      0.03864 [cm^-1]
  Rotational constants: A =   6889.76268  B =   1275.42472  C =   1158.44599 [MHz]
  Nuclear repulsion =  179.771659718821184

  Charge       = 0
  Multiplicity = 1
  Electrons    = 44
  Nalpha       = 22
  Nbeta        = 22

  ==> Algorithm <==

  SCF Algorithm Type is PK.
  DIIS enabled.
  MOM disabled.
  Fractional occupation disabled.
  Guess Type is SAD.
  Energy threshold   = 1.00e-06
  Density threshold  = 1.00e-10
  Integral threshold = 0.00e+00

  ==> Primary Basis <==

  Basis Set: CC-PVDZ
    Blend: CC-PVDZ
    Number of shells: 72
    Number of basis function: 140
    Number of Cartesian functions: 145
    Spherical Harmonics?: true
    Max angular momentum: 2

  ==> Pre-Iterations <==

   -------------------------------------------------------
    Irrep   Nso     Nmo     Nalpha   Nbeta   Ndocc  Nsocc
   -------------------------------------------------------
     A        140     140       0       0       0       0
   -------------------------------------------------------
    Total     140     140      22      22      22       0
   -------------------------------------------------------

  ==> Integral Setup <==

  Using integral reordering PK algorithm.
  Sizing the integral batches needed.
  Building batch lookup table.
   Calculation information:
      Number of atoms:                  19
      Number of AO shells:              72
      Number of primitives:            180
      Number of atomic orbitals:       145
      Number of basis functions:       140

      Integral cutoff                 1.00e-12
      Number of threads:                 1

	Batch   1 pq = [       0,    9405] index = [             0,44231715] size =     44231715
	Batch   2 pq = [    9405,    9870] index = [      44231715,48713385] size =      4481670
  Task number: 5
  Buffer size: 11059200
  Buffer per thread: 2
  We computed 2948923 shell quartets total.
  Whereas there are 3454506 unique shell quartets.

  ==> DiskJK: Disk-Based J/K Matrices <==

    J tasked:                  Yes
    K tasked:                  Yes
    wK tasked:                  No
    Memory [MiB]:              375
    Schwarz Cutoff:          1E-12

    OpenMP threads:              1

  Minimum eigenvalue in the overlap matrix is 5.6295807111E-03.
  Using Symmetric Orthogonalization.

  SCF Guess: Superposition of Atomic Densities via on-the-fly atomic UHF.

  ==> Iterations <==

                        Total Energy        Delta E     RMS |[F,P]|

   @RHF iter SAD:  -196.35969149826622   -1.96360e+02   0.00000e+00
   @RHF iter   1:  -197.31193287634233   -9.52241e-01   3.79901e-03 DIIS
   @RHF iter   2:  -197.47193741662110   -1.60005e-01   1.63275e-03 DIIS
   @RHF iter   3:  -197.50011413114319   -2.81767e-02   3.24807e-04 DIIS
   @RHF iter   4:  -197.50232372175543   -2.20959e-03   4.78706e-05 DIIS
   @RHF iter   5:  -197.50236152640539   -3.78046e-05   1.47696e-05 DIIS
   @RHF iter   6:  -197.50236482944143   -3.30304e-06   2.41643e-06 DIIS
   @RHF iter   7:  -197.50236493605379   -1.06612e-07   4.64054e-07 DIIS
   @RHF iter   8:  -197.50236494062028   -4.56649e-09   1.21917e-07 DIIS
   @RHF iter   9:  -197.50236494092383   -3.03544e-10   3.93772e-08 DIIS
   @RHF iter  10:  -197.50236494096089   -3.70619e-11   8.44427e-09 DIIS
   @RHF iter  11:  -197.50236494096265   -1.76215e-12   1.53505e-09 DIIS
   @RHF iter  12:  -197.50236494096166    9.94760e-13   2.76539e-10 DIIS
   @RHF iter  13:  -197.50236494096333   -1.67688e-12   4.81487e-11 DIIS
  Energy and wave function converged.

  ==> Post-Iterations <==

    Orbital Energies [Eh]
    ---------------------

    Doubly Occupied:

       1A    -11.219447     2A    -11.218680     3A    -11.217749
       4A    -11.216094     5A    -11.214913     6A     -1.050383
       7A     -1.021114     8A     -0.923226     9A     -0.836723
      10A     -0.796395    11A     -0.626086    12A     -0.601303
      13A     -0.598671    14A     -0.593556    15A     -0.546091
      16A     -0.533016    17A     -0.501844    18A     -0.488033
      19A     -0.484822    20A     -0.473052    21A     -0.468687
      22A     -0.462720

    Virtual:

      23A      0.168631    24A      0.196293    25A      0.214276
      26A      0.223776    27A      0.231669    28A      0.246953
      29A      0.261928    30A      0.268702    31A      0.274765
      32A      0.284537    33A      0.297680    34A      0.305908
      35A      0.326001    36A      0.350203    37A      0.370886
      38A      0.411540    39A      0.426285    40A      0.561124
      41A      0.585844    42A      0.594980    43A      0.601307
      44A      0.617849    45A      0.624050    46A      0.638819
      47A      0.650318    48A      0.688215    49A      0.767911
      50A      0.795382    51A      0.809625    52A      0.837499
      53A      0.866871    54A      0.870648    55A      0.883108
      56A      0.891465    57A      0.896891    58A      0.901449
      59A      0.906089    60A      0.910600    61A      0.915622
      62A      0.921200    63A      0.922610    64A      0.945772
      65A      0.958730    66A      0.979741    67A      0.991103
      68A      1.013261    69A      1.119019    70A      1.126678
      71A      1.128226    72A      1.155320    73A      1.208571
      74A      1.249505    75A      1.377111    76A      1.471207
      77A      1.473539    78A      1.480799    79A      1.489118
      80A      1.517170    81A      1.587547    82A      1.636230
      83A      1.674395    84A      1.678346    85A      1.684413
      86A      1.699381    87A      1.711406    88A      1.840601
      89A      1.854630    90A      1.863355    91A      1.867625
      92A      1.882050    93A      1.914974    94A      1.921414
      95A      1.937525    96A      1.938737    97A      1.944279
      98A      1.955122    99A      1.957296   100A      1.963243
     101A      1.971349   102A      1.984434   103A      1.991795
     104A      2.003482   105A      2.004557   106A      2.028973
     107A      2.061146   108A      2.103260   109A      2.114401
     110A      2.125972   111A      2.175054   112A      2.279960
     113A      2.292847   114A      2.308134   115A      2.317935
     116A      2.323369   117A      2.354081   118A      2.462693
     119A      2.468762   120A      2.485147   121A      2.536066
     122A      2.562264   123A      2.565729   124A      2.574064
     125A      2.618371   126A      2.637700   127A      2.757576
     128A      2.762907   129A      2.772243   130A      2.792080
     131A      2.799542   132A      2.821747   133A      2.845314
     134A      2.864902   135A      2.914961   136A      2.951944
     137A      2.956230   138A      2.975006   139A      2.988313
     140A      3.056599

    Final Occupation by Irrep:
              A
    DOCC [    22 ]

  @RHF Final Energy:  -197.50236494096333

   => Energetics <=

    Nuclear Repulsion Energy =            179.7716597188211836
    One-Electron Energy =                -620.3628379964757187
    Two-Electron Energy =                 243.0888133366912029
    Total Energy =                       -197.5023649409633322

Computation Completed

Properties will be evaluated at   0.000000,   0.000000,   0.000000 [a0]

Properties computed using the SCF density matrix

  Nuclear Dipole Moment: [e a0]
     X:     0.5245      Y:     0.7662      Z:     1.0167

  Electronic Dipole Moment: [e a0]
     X:    -0.4935      Y:    -0.7589      Z:    -1.0316

  Dipole Moment: [e a0]
     X:     0.0310      Y:     0.0073      Z:    -0.0149     Total:     0.0352

  Dipole Moment: [D]
     X:     0.0788      Y:     0.0186      Z:    -0.0379     Total:     0.0894

*** tstop() called on ds3 at Sun Apr 26 17:51:49 2020
Module time:
	user time   =      16.29 seconds =       0.27 minutes
	system time =       6.25 seconds =       0.10 minutes
	total time  =         22 seconds =       0.37 minutes
Total time:
	user time   =      16.29 seconds =       0.27 minutes
	system time =       6.25 seconds =       0.10 minutes
	total time  =         22 seconds =       0.37 minutes
                                     G D M A

                                 by Anthony Stone

                           version 2.2.06, 22 June 2011

               Distributed Multipoles from Gaussian wavefunctions

Starting at 17:51:49 on 26 Apr 2020

Using SCF density matrix from file ./SSI/SSI-039ILE-054LEU-1-dimer.test.6716.fchk

                         Distributed Multipole Analysis

Standard DMA

Positions and radii in angstrom
Multipole moments in atomic units, ea_0^k for rank k

C          x = -0.650797  y = -1.112528  z = -1.329416 angstrom
           Maximum rank =  0   Radius =  0.650 angstrom
                   Q00  =  -0.102083

C          x = -2.008797  y = -0.427528  z = -1.534416 angstrom
           Maximum rank =  0   Radius =  0.650 angstrom
                   Q00  =  -0.225929

C          x = -0.525797  y = -1.792528  z =  0.044584 angstrom
           Maximum rank =  0   Radius =  0.650 angstrom
                   Q00  =  -0.247961

H          x = -0.471797  y = -1.847528  z = -2.111416 angstrom
           Maximum rank =  0   Radius =  0.325 angstrom
                   Q00  =   0.051198

H          x =  0.138203  y = -0.364528  z = -1.390416 angstrom
           Maximum rank =  0   Radius =  0.325 angstrom
                   Q00  =   0.048842

H          x = -2.194797  y =  0.254472  z = -0.701416 angstrom
           Maximum rank =  0   Radius =  0.325 angstrom
                   Q00  =   0.077152

H          x = -1.068797  y = -2.736528  z =  0.062584 angstrom
           Maximum rank =  0   Radius =  0.325 angstrom
                   Q00  =   0.079589

H          x =  0.523203  y = -2.009528  z =  0.243584 angstrom
           Maximum rank =  0   Radius =  0.325 angstrom
                   Q00  =   0.082185

H          x = -0.898797  y = -1.133528  z =  0.829584 angstrom
           Maximum rank =  0   Radius =  0.325 angstrom
                   Q00  =   0.076276

H          x = -2.025157  y =  0.138564  z = -2.477426 angstrom
           Maximum rank =  0   Radius =  0.325 angstrom
                   Q00  =   0.085850

H          x = -2.783717  y = -1.208218  z = -1.539466 angstrom
           Maximum rank =  0   Radius =  0.325 angstrom
                   Q00  =   0.074134

C          x =  1.188203  y =  1.553472  z =  0.710584 angstrom
           Maximum rank =  0   Radius =  0.650 angstrom
                   Q00  =  -0.239428

C          x =  1.950203  y =  1.710472  z =  2.017584 angstrom
           Maximum rank =  0   Radius =  0.650 angstrom
                   Q00  =  -0.229829

H          x =  1.733203  y =  0.897472  z =  0.030584 angstrom
           Maximum rank =  0   Radius =  0.325 angstrom
                   Q00  =   0.077512

H          x =  0.209203  y =  1.119472  z =  0.915584 angstrom
           Maximum rank =  0   Radius =  0.325 angstrom
                   Q00  =   0.076728

H          x =  1.028203  y =  2.510472  z =  0.223584 angstrom
           Maximum rank =  0   Radius =  0.325 angstrom
                   Q00  =   0.079252

H          x =  1.369203  y =  2.316472  z =  2.711584 angstrom
           Maximum rank =  0   Radius =  0.325 angstrom
                   Q00  =   0.080197

H          x =  2.931273  y =  2.175491  z =  1.840774 angstrom
           Maximum rank =  0   Radius =  0.325 angstrom
                   Q00  =   0.080324

H          x =  2.070013  y =  0.704753  z =  2.446744 angstrom
           Maximum rank =  0   Radius =  0.325 angstrom
                   Q00  =   0.075992

Total multipoles referred to origin at
           x =   0.000000,  y =    0.000000,  z =    0.000000 angstrom
                   Q00  =  -0.000000

Finished at 17:51:49 on 26 Apr 2020

  DMA results are available in the Python driver through the
	  variable('DMA DISTRIBUTED MULTIPOLES')
  and
	  variable('DMA TOTAL MULTIPOLES')
  commands.

    Psi4 stopped on: Sunday, 26 April 2020 05:51PM
    Psi4 wall time for execution: 0:00:22.24

*** Psi4 exiting successfully. Buy a developer a beer!
