                               Psi4 1.3.2 release

  ==> Input File <==

--------------------------------------------------------------------------
import numpy as np
set {scf_type pk
basis cc-pvdz
d_convergence 10
gdma_switch   0
gdma_limit    0
gdma_origin   [ 0.0,  0.0,  0.0 ]
}
molecule test {
    units Angstrom
    0 1
    --
    0 1
    C                1.135187031719915     1.504222568656310    -0.193697666835917
    C                1.015187031719915     2.815222568656309    -0.977697666835917
    H                1.968187031719915     1.520222568656310     0.509302333164082
    H                0.220187031719915     1.324222568656310     0.370302333164083
    H                1.239187031719915     0.656222568656310    -0.869697666835917
    H                0.167187031719915     2.740222568656310    -1.658697666835917
    H                1.915697031719915     3.004465568656309    -1.580417666835918
    H                0.836807031719915     3.655561568656310    -0.290667666835917
    C               -0.708812968280085    -1.495777431343690     0.469302333164083
    C               -1.433812968280085    -2.821777431343691     0.699302333164083
    H               -0.363812968280085    -1.430777431343690    -0.563697666835917
    H               -1.388812968280085    -0.666777431343690     0.671302333164083
    H                0.147187031719915    -1.417777431343690     1.141302333164083
    H               -1.772812968280085    -2.841777431343691     1.734302333164083
    H               -0.748702968280085    -3.665046431343690     0.527482333164083
    H               -2.312552968280085    -2.901268431343690     0.042412333164083

}
e, wfn = energy('scf', return_wfn=True)
gdma(wfn)
dmavals = variable('DMA DISTRIBUTED MULTIPOLES')
charges = np.array(dmavals)
print(charges)
np.save('SSI-192ILE-242LEU-1-dimer.npy', np.array(charges))--------------------------------------------------------------------------

*** tstart() called on ds3
*** at Sun Apr 26 17:41:27 2020

   => Loading Basis Set <=

    Name: CC-PVDZ
    Role: ORBITAL
    Keyword: BASIS
    atoms 1-2, 9-10  entry C          line   138 file /theoryfs2/ds/metcalf/miniconda2/envs/tf2gpu/share/psi4/basis/cc-pvdz.gbs
    atoms 3-8, 11-16 entry H          line    22 file /theoryfs2/ds/metcalf/miniconda2/envs/tf2gpu/share/psi4/basis/cc-pvdz.gbs

         ---------------------------------------------------------
                                   SCF
               by Justin Turney, Rob Parrish, Andy Simmonett
                          and Daniel G. A. Smith
                              RHF Reference
                        1 Threads,    500 MiB Core
         ---------------------------------------------------------

  ==> Geometry <==

    Molecular point group: c1
    Full point group: C1

    Geometry (in Angstrom), charge = 0, multiplicity = 1:

       Center              X                  Y                   Z               Mass
    ------------   -----------------  -----------------  -----------------  -----------------
         C            1.135187031720     1.504222568656    -0.193697666836    12.000000000000
         C            1.015187031720     2.815222568656    -0.977697666836    12.000000000000
         H            1.968187031720     1.520222568656     0.509302333164     1.007825032230
         H            0.220187031720     1.324222568656     0.370302333164     1.007825032230
         H            1.239187031720     0.656222568656    -0.869697666836     1.007825032230
         H            0.167187031720     2.740222568656    -1.658697666836     1.007825032230
         H            1.915697031720     3.004465568656    -1.580417666836     1.007825032230
         H            0.836807031720     3.655561568656    -0.290667666836     1.007825032230
         C           -0.708812968280    -1.495777431344     0.469302333164    12.000000000000
         C           -1.433812968280    -2.821777431344     0.699302333164    12.000000000000
         H           -0.363812968280    -1.430777431344    -0.563697666836     1.007825032230
         H           -1.388812968280    -0.666777431344     0.671302333164     1.007825032230
         H            0.147187031720    -1.417777431344     1.141302333164     1.007825032230
         H           -1.772812968280    -2.841777431344     1.734302333164     1.007825032230
         H           -0.748702968280    -3.665046431344     0.527482333164     1.007825032230
         H           -2.312552968280    -2.901268431344     0.042412333164     1.007825032230

  Running in c1 symmetry.

  Rotational constants: A =      0.90728  B =      0.04073  C =      0.04017 [cm^-1]
  Rotational constants: A =  27199.44837  B =   1221.05532  C =   1204.22526 [MHz]
  Nuclear repulsion =  120.498358902465469

  Charge       = 0
  Multiplicity = 1
  Electrons    = 36
  Nalpha       = 18
  Nbeta        = 18

  ==> Algorithm <==

  SCF Algorithm Type is PK.
  DIIS enabled.
  MOM disabled.
  Fractional occupation disabled.
  Guess Type is SAD.
  Energy threshold   = 1.00e-06
  Density threshold  = 1.00e-10
  Integral threshold = 0.00e+00

  ==> Primary Basis <==

  Basis Set: CC-PVDZ
    Blend: CC-PVDZ
    Number of shells: 60
    Number of basis function: 116
    Number of Cartesian functions: 120
    Spherical Harmonics?: true
    Max angular momentum: 2

  ==> Pre-Iterations <==

   -------------------------------------------------------
    Irrep   Nso     Nmo     Nalpha   Nbeta   Ndocc  Nsocc
   -------------------------------------------------------
     A        116     116       0       0       0       0
   -------------------------------------------------------
    Total     116     116      18      18      18       0
   -------------------------------------------------------

  ==> Integral Setup <==

  Using integral reordering PK algorithm.
  Sizing the integral batches needed.
  Building batch lookup table.
   Calculation information:
      Number of atoms:                  16
      Number of AO shells:              60
      Number of primitives:            148
      Number of atomic orbitals:       120
      Number of basis functions:       116

      Integral cutoff                 1.00e-12
      Number of threads:                 1

	Batch   1 pq = [       0,    6786] index = [             0,23028291] size =     23028291
  Task number: 3
  Buffer size: 11059200
  Buffer per thread: 2
  We computed 1356272 shell quartets total.
  Whereas there are 1675365 unique shell quartets.

  ==> DiskJK: Disk-Based J/K Matrices <==

    J tasked:                  Yes
    K tasked:                  Yes
    wK tasked:                  No
    Memory [MiB]:              375
    Schwarz Cutoff:          1E-12

    OpenMP threads:              1

  Minimum eigenvalue in the overlap matrix is 6.1318511868E-03.
  Using Symmetric Orthogonalization.

  SCF Guess: Superposition of Atomic Densities via on-the-fly atomic UHF.

  ==> Iterations <==

                        Total Energy        Delta E     RMS |[F,P]|

   @RHF iter SAD:  -157.33978426859903   -1.57340e+02   0.00000e+00
   @RHF iter   1:  -158.30843805509849   -9.68654e-01   4.20384e-03 DIIS
   @RHF iter   2:  -158.44168739057790   -1.33249e-01   1.79067e-03 DIIS
   @RHF iter   3:  -158.46497477481390   -2.32874e-02   3.50324e-04 DIIS
   @RHF iter   4:  -158.46681302647673   -1.83825e-03   3.90622e-05 DIIS
   @RHF iter   5:  -158.46683675285132   -2.37264e-05   6.81842e-06 DIIS
   @RHF iter   6:  -158.46683741940313   -6.66552e-07   1.20319e-06 DIIS
   @RHF iter   7:  -158.46683743300360   -1.36005e-08   3.23172e-07 DIIS
   @RHF iter   8:  -158.46683743397455   -9.70942e-10   4.07708e-08 DIIS
   @RHF iter   9:  -158.46683743400246   -2.79101e-11   7.83659e-09 DIIS
   @RHF iter  10:  -158.46683743400359   -1.13687e-12   2.01715e-09 DIIS
   @RHF iter  11:  -158.46683743400382   -2.27374e-13   4.09031e-10 DIIS
   @RHF iter  12:  -158.46683743400385   -2.84217e-14   1.18502e-10 DIIS
   @RHF iter  13:  -158.46683743400376    8.52651e-14   2.45684e-11 DIIS
  Energy and wave function converged.

  ==> Post-Iterations <==

    Orbital Energies [Eh]
    ---------------------

    Doubly Occupied:

       1A    -11.219233     2A    -11.218886     3A    -11.216861
       4A    -11.215242     5A     -1.018619     6A     -1.014887
       7A     -0.840740     8A     -0.832690     9A     -0.599574
      10A     -0.598159    11A     -0.595600    12A     -0.592083
      13A     -0.507134    14A     -0.495260    15A     -0.489109
      16A     -0.486862    17A     -0.482118    18A     -0.479510

    Virtual:

      19A      0.176764    20A      0.194137    21A      0.222552
      22A      0.233361    23A      0.241578    24A      0.261965
      25A      0.267511    26A      0.277937    27A      0.281882
      28A      0.285530    29A      0.309621    30A      0.333089
      31A      0.384273    32A      0.416318    33A      0.570469
      34A      0.591262    35A      0.593193    36A      0.602222
      37A      0.603661    38A      0.643778    39A      0.673699
      40A      0.698713    41A      0.703991    42A      0.755376
      43A      0.836021    44A      0.890466    45A      0.892680
      46A      0.892749    47A      0.894248    48A      0.899926
      49A      0.900365    50A      0.908136    51A      0.915542
      52A      0.918328    53A      0.936562    54A      0.946720
      55A      0.957957    56A      0.998682    57A      1.127066
      58A      1.127922    59A      1.134328    60A      1.151057
      61A      1.216783    62A      1.271105    63A      1.466919
      64A      1.472202    65A      1.474418    66A      1.483403
      67A      1.571437    68A      1.586092    69A      1.678737
      70A      1.684683    71A      1.692292    72A      1.702870
      73A      1.848521    74A      1.858733    75A      1.878628
      76A      1.885195    77A      1.891588    78A      1.918605
      79A      1.934871    80A      1.940980    81A      1.944197
      82A      1.949348    83A      1.950972    84A      1.956398
      85A      1.959665    86A      1.971247    87A      1.988440
      88A      2.059959    89A      2.094732    90A      2.096201
      91A      2.105355    92A      2.115163    93A      2.296923
      94A      2.305032    95A      2.328181    96A      2.345559
      97A      2.449962    98A      2.458573    99A      2.466525
     100A      2.480434   101A      2.554161   102A      2.557739
     103A      2.569715   104A      2.574003   105A      2.756194
     106A      2.762631   107A      2.784658   108A      2.790318
     109A      2.845391   110A      2.849835   111A      2.862577
     112A      2.870539   113A      2.942612   114A      2.949015
     115A      2.955498   116A      2.969985

    Final Occupation by Irrep:
              A
    DOCC [    18 ]

  @RHF Final Energy:  -158.46683743400376

   => Energetics <=

    Nuclear Repulsion Energy =            120.4983589024654691
    One-Electron Energy =                -450.1252589937098492
    Two-Electron Energy =                 171.1600626572405872
    Total Energy =                       -158.4668374340037644

Computation Completed

Properties will be evaluated at   0.000000,   0.000000,   0.000000 [a0]

Properties computed using the SCF density matrix

  Nuclear Dipole Moment: [e a0]
     X:    -0.0865      Y:    -0.0211      Z:     0.0312

  Electronic Dipole Moment: [e a0]
     X:     0.0710      Y:     0.0102      Z:    -0.0209

  Dipole Moment: [e a0]
     X:    -0.0155      Y:    -0.0109      Z:     0.0102     Total:     0.0216

  Dipole Moment: [D]
     X:    -0.0395      Y:    -0.0277      Z:     0.0260     Total:     0.0548

*** tstop() called on ds3 at Sun Apr 26 17:41:38 2020
Module time:
	user time   =       7.23 seconds =       0.12 minutes
	system time =       2.72 seconds =       0.05 minutes
	total time  =         11 seconds =       0.18 minutes
Total time:
	user time   =       7.23 seconds =       0.12 minutes
	system time =       2.72 seconds =       0.05 minutes
	total time  =         11 seconds =       0.18 minutes
                                     G D M A

                                 by Anthony Stone

                           version 2.2.06, 22 June 2011

               Distributed Multipoles from Gaussian wavefunctions

Starting at 17:41:38 on 26 Apr 2020

Using SCF density matrix from file ./SSI/SSI-192ILE-242LEU-1-dimer.test.2978.fchk

                         Distributed Multipole Analysis

Standard DMA

Positions and radii in angstrom
Multipole moments in atomic units, ea_0^k for rank k

C          x =  1.135187  y =  1.504223  z = -0.193698 angstrom
           Maximum rank =  0   Radius =  0.650 angstrom
                   Q00  =  -0.240815

C          x =  1.015187  y =  2.815223  z = -0.977698 angstrom
           Maximum rank =  0   Radius =  0.650 angstrom
                   Q00  =  -0.236622

H          x =  1.968187  y =  1.520223  z =  0.509302 angstrom
           Maximum rank =  0   Radius =  0.325 angstrom
                   Q00  =   0.080670

H          x =  0.220187  y =  1.324223  z =  0.370302 angstrom
           Maximum rank =  0   Radius =  0.325 angstrom
                   Q00  =   0.079283

H          x =  1.239187  y =  0.656223  z = -0.869698 angstrom
           Maximum rank =  0   Radius =  0.325 angstrom
                   Q00  =   0.079212

H          x =  0.167187  y =  2.740223  z = -1.658698 angstrom
           Maximum rank =  0   Radius =  0.325 angstrom
                   Q00  =   0.078798

H          x =  1.915697  y =  3.004466  z = -1.580418 angstrom
           Maximum rank =  0   Radius =  0.325 angstrom
                   Q00  =   0.079678

H          x =  0.836807  y =  3.655562  z = -0.290668 angstrom
           Maximum rank =  0   Radius =  0.325 angstrom
                   Q00  =   0.079560

C          x = -0.708813  y = -1.495777  z =  0.469302 angstrom
           Maximum rank =  0   Radius =  0.650 angstrom
                   Q00  =  -0.239462

C          x = -1.433813  y = -2.821777  z =  0.699302 angstrom
           Maximum rank =  0   Radius =  0.650 angstrom
                   Q00  =  -0.233435

H          x = -0.363813  y = -1.430777  z = -0.563698 angstrom
           Maximum rank =  0   Radius =  0.325 angstrom
                   Q00  =   0.078438

H          x = -1.388813  y = -0.666777  z =  0.671302 angstrom
           Maximum rank =  0   Radius =  0.325 angstrom
                   Q00  =   0.077248

H          x =  0.147187  y = -1.417777  z =  1.141302 angstrom
           Maximum rank =  0   Radius =  0.325 angstrom
                   Q00  =   0.079377

H          x = -1.772813  y = -2.841777  z =  1.734302 angstrom
           Maximum rank =  0   Radius =  0.325 angstrom
                   Q00  =   0.078256

H          x = -0.748703  y = -3.665046  z =  0.527482 angstrom
           Maximum rank =  0   Radius =  0.325 angstrom
                   Q00  =   0.079981

H          x = -2.312553  y = -2.901268  z =  0.042412 angstrom
           Maximum rank =  0   Radius =  0.325 angstrom
                   Q00  =   0.079833

Total multipoles referred to origin at
           x =   0.000000,  y =    0.000000,  z =    0.000000 angstrom
                   Q00  =  -0.000000

Finished at 17:41:38 on 26 Apr 2020

  DMA results are available in the Python driver through the
	  variable('DMA DISTRIBUTED MULTIPOLES')
  and
	  variable('DMA TOTAL MULTIPOLES')
  commands.

    Psi4 stopped on: Sunday, 26 April 2020 05:41PM
    Psi4 wall time for execution: 0:00:11.24

*** Psi4 exiting successfully. Buy a developer a beer!
