                               Psi4 1.3.2 release

  ==> Input File <==

--------------------------------------------------------------------------
import numpy as np
set {scf_type pk
basis cc-pvdz
d_convergence 10
gdma_switch   0
gdma_limit    0
gdma_origin   [ 0.0,  0.0,  0.0 ]
}
molecule test {
    units Angstrom
    0 1
    --
    0 1
    C                1.528659887050066     0.810202612724432     1.056574954180075
    C                2.996659887050066     0.805202612724432     0.617574954180075
    C                0.551659887050066     0.077202612724432     0.175574954180075
    C                0.070659887050066    -1.179797387275568     0.369574954180075
    C               -0.172340112949934     0.607202612724432    -0.956425045819925
    C               -1.091340112949934    -0.394797387275568    -1.382425045819925
    C               -0.151340112949934     1.832202612724432    -1.646425045819925
    C               -1.965340112949934    -0.207797387275568    -2.457425045819925
    C               -1.030340112949934     2.023202612724432    -2.727425045819925
    C               -1.926340112949934     1.009202612724432    -3.124425045819925
    N               -0.910340112949934    -1.468797387275568    -0.550425045819925
    H                1.492659887050066     0.382202612724432     2.043574954180075
    H                1.193659887050066     1.844202612724432     1.156574954180075
    H                3.575659887050066     1.225202612724432     1.428574954180075
    H                0.348659887050066    -1.809797387275568     1.201574954180075
    H               -1.457340112949934    -2.328797387275568    -0.539425045819925
    H                0.535659887050066     2.609202612724431    -1.350425045819925
    H               -2.651340112949934    -0.987797387275568    -2.752425045819925
    H               -1.020340112949934     2.961202612724432    -3.262425045819925
    H               -2.594340112949934     1.183202612724432    -3.960425045819925
    H                3.129149887050066     1.424492612724432    -0.281835045819925
    H                3.382989887050067    -0.213827387275568     0.468144954180075
    C                1.176659887050066    -1.270797387275568     4.046574954180074
    C                0.228659887050066    -2.084797387275568     4.905574954180074
    H                1.497659887050066    -1.831797387275568     3.170574954180075
    H                0.618659887050066    -0.391797387275568     3.740574954180075
    H                2.042659887050066    -0.962797387275568     4.632574954180074
    H               -0.191340112949934    -1.419797387275568     5.660574954180075
    H                0.756879887050066    -2.920907387275568     5.387144954180075
    H               -0.581920112949934    -2.482777387275569     4.277434954180075

}
e, wfn = energy('scf', return_wfn=True)
gdma(wfn)
dmavals = variable('DMA DISTRIBUTED MULTIPOLES')
charges = np.array(dmavals)
print(charges)
np.save('SSI-030TRP-033THR-1-dimer.npy', np.array(charges))--------------------------------------------------------------------------

*** tstart() called on ds3
*** at Sun Apr 26 22:06:24 2020

   => Loading Basis Set <=

    Name: CC-PVDZ
    Role: ORBITAL
    Keyword: BASIS
    atoms 1-10, 23-24  entry C          line   138 file /theoryfs2/ds/metcalf/miniconda2/envs/tf2gpu/share/psi4/basis/cc-pvdz.gbs
    atoms 11           entry N          line   168 file /theoryfs2/ds/metcalf/miniconda2/envs/tf2gpu/share/psi4/basis/cc-pvdz.gbs
    atoms 12-22, 25-30 entry H          line    22 file /theoryfs2/ds/metcalf/miniconda2/envs/tf2gpu/share/psi4/basis/cc-pvdz.gbs

         ---------------------------------------------------------
                                   SCF
               by Justin Turney, Rob Parrish, Andy Simmonett
                          and Daniel G. A. Smith
                              RHF Reference
                        1 Threads,    500 MiB Core
         ---------------------------------------------------------

  ==> Geometry <==

    Molecular point group: c1
    Full point group: C1

    Geometry (in Angstrom), charge = 0, multiplicity = 1:

       Center              X                  Y                   Z               Mass
    ------------   -----------------  -----------------  -----------------  -----------------
         C            1.528659887050     0.810202612724     1.056574954180    12.000000000000
         C            2.996659887050     0.805202612724     0.617574954180    12.000000000000
         C            0.551659887050     0.077202612724     0.175574954180    12.000000000000
         C            0.070659887050    -1.179797387276     0.369574954180    12.000000000000
         C           -0.172340112950     0.607202612724    -0.956425045820    12.000000000000
         C           -1.091340112950    -0.394797387276    -1.382425045820    12.000000000000
         C           -0.151340112950     1.832202612724    -1.646425045820    12.000000000000
         C           -1.965340112950    -0.207797387276    -2.457425045820    12.000000000000
         C           -1.030340112950     2.023202612724    -2.727425045820    12.000000000000
         C           -1.926340112950     1.009202612724    -3.124425045820    12.000000000000
         N           -0.910340112950    -1.468797387276    -0.550425045820    14.003074004430
         H            1.492659887050     0.382202612724     2.043574954180     1.007825032230
         H            1.193659887050     1.844202612724     1.156574954180     1.007825032230
         H            3.575659887050     1.225202612724     1.428574954180     1.007825032230
         H            0.348659887050    -1.809797387276     1.201574954180     1.007825032230
         H           -1.457340112950    -2.328797387276    -0.539425045820     1.007825032230
         H            0.535659887050     2.609202612724    -1.350425045820     1.007825032230
         H           -2.651340112950    -0.987797387276    -2.752425045820     1.007825032230
         H           -1.020340112950     2.961202612724    -3.262425045820     1.007825032230
         H           -2.594340112950     1.183202612724    -3.960425045820     1.007825032230
         H            3.129149887050     1.424492612724    -0.281835045820     1.007825032230
         H            3.382989887050    -0.213827387276     0.468144954180     1.007825032230
         C            1.176659887050    -1.270797387276     4.046574954180    12.000000000000
         C            0.228659887050    -2.084797387276     4.905574954180    12.000000000000
         H            1.497659887050    -1.831797387276     3.170574954180     1.007825032230
         H            0.618659887050    -0.391797387276     3.740574954180     1.007825032230
         H            2.042659887050    -0.962797387276     4.632574954180     1.007825032230
         H           -0.191340112950    -1.419797387276     5.660574954180     1.007825032230
         H            0.756879887050    -2.920907387276     5.387144954180     1.007825032230
         H           -0.581920112950    -2.482777387276     4.277434954180     1.007825032230

  Running in c1 symmetry.

  Rotational constants: A =      0.04369  B =      0.01252  C =      0.01043 [cm^-1]
  Rotational constants: A =   1309.89808  B =    375.20296  C =    312.71120 [MHz]
  Nuclear repulsion =  741.463686490633677

  Charge       = 0
  Multiplicity = 1
  Electrons    = 96
  Nalpha       = 48
  Nbeta        = 48

  ==> Algorithm <==

  SCF Algorithm Type is PK.
  DIIS enabled.
  MOM disabled.
  Fractional occupation disabled.
  Guess Type is SAD.
  Energy threshold   = 1.00e-06
  Density threshold  = 1.00e-10
  Integral threshold = 0.00e+00

  ==> Primary Basis <==

  Basis Set: CC-PVDZ
    Blend: CC-PVDZ
    Number of shells: 129
    Number of basis function: 267
    Number of Cartesian functions: 280
    Spherical Harmonics?: true
    Max angular momentum: 2

  ==> Pre-Iterations <==

   -------------------------------------------------------
    Irrep   Nso     Nmo     Nalpha   Nbeta   Ndocc  Nsocc
   -------------------------------------------------------
     A        267     267       0       0       0       0
   -------------------------------------------------------
    Total     267     267      48      48      48       0
   -------------------------------------------------------

  ==> Integral Setup <==

  Using integral reordering PK algorithm.
  Sizing the integral batches needed.
  Building batch lookup table.
   Calculation information:
      Number of atoms:                  30
      Number of AO shells:             129
      Number of primitives:            371
      Number of atomic orbitals:       280
      Number of basis functions:       267

      Integral cutoff                 1.00e-12
      Number of threads:                 1

	Batch   1 pq = [       0,    9405] index = [             0,44231715] size =     44231715
	Batch   2 pq = [    9405,   13301] index = [      44231715,88464951] size =     44233236
	Batch   3 pq = [   13301,   16290] index = [      88464951,132690195] size =     44225244
	Batch   4 pq = [   16290,   18810] index = [     132690195,176917455] size =     44227260
	Batch   5 pq = [   18810,   21030] index = [     176917455,221140965] size =     44223510
	Batch   6 pq = [   21030,   23037] index = [     221140965,265363203] size =     44222238
	Batch   7 pq = [   23037,   24883] index = [     265363203,309594286] size =     44231083
	Batch   8 pq = [   24883,   26601] index = [     309594286,353819901] size =     44225615
	Batch   9 pq = [   26601,   28214] index = [     353819901,398029005] size =     44209104
	Batch  10 pq = [   28214,   29740] index = [     398029005,442248670] size =     44219665
	Batch  11 pq = [   29740,   31191] index = [     442248670,486454836] size =     44206166
	Batch  12 pq = [   31191,   32578] index = [     486454836,530679331] size =     44224495
	Batch  13 pq = [   32578,   33908] index = [     530679331,574893186] size =     44213855
	Batch  14 pq = [   33908,   35188] index = [     574893186,619115266] size =     44222080
	Batch  15 pq = [   35188,   35778] index = [     619115266,640050531] size =     20935265
  Task number: 58
  Buffer size: 11059200
  Buffer per thread: 2
  We computed 32287888 shell quartets total.
  Whereas there are 35158305 unique shell quartets.

  ==> DiskJK: Disk-Based J/K Matrices <==

    J tasked:                  Yes
    K tasked:                  Yes
    wK tasked:                  No
    Memory [MiB]:              375
    Schwarz Cutoff:          1E-12

    OpenMP threads:              1

  Minimum eigenvalue in the overlap matrix is 2.4254020953E-04.
  Using Symmetric Orthogonalization.

  SCF Guess: Superposition of Atomic Densities via on-the-fly atomic UHF.

  ==> Iterations <==

                        Total Energy        Delta E     RMS |[F,P]|

   @RHF iter SAD:  -517.99235914900976   -5.17992e+02   0.00000e+00
   @RHF iter   1:  -518.49246236099270   -5.00103e-01   2.48053e-03 DIIS
   @RHF iter   2:  -518.74798701898555   -2.55525e-01   1.09821e-03 DIIS
   @RHF iter   3:  -518.79352719354654   -4.55402e-02   2.92347e-04 DIIS
   @RHF iter   4:  -518.79779870373272   -4.27151e-03   1.36792e-04 DIIS
   @RHF iter   5:  -518.79854820253854   -7.49499e-04   1.88915e-05 DIIS
   @RHF iter   6:  -518.79857990906032   -3.17065e-05   8.45498e-06 DIIS
   @RHF iter   7:  -518.79858584914200   -5.94008e-06   3.57978e-06 DIIS
   @RHF iter   8:  -518.79858755518740   -1.70605e-06   1.41849e-06 DIIS
   @RHF iter   9:  -518.79858792857601   -3.73389e-07   6.36504e-07 DIIS
   @RHF iter  10:  -518.79858800398756   -7.54115e-08   2.94732e-07 DIIS
   @RHF iter  11:  -518.79858802143781   -1.74502e-08   1.11923e-07 DIIS
   @RHF iter  12:  -518.79858802406807   -2.63026e-09   4.30456e-08 DIIS
   @RHF iter  13:  -518.79858802429862   -2.30557e-10   1.35118e-08 DIIS
   @RHF iter  14:  -518.79858802432022   -2.16005e-11   4.85731e-09 DIIS
   @RHF iter  15:  -518.79858802432625   -6.02540e-12   2.03920e-09 DIIS
   @RHF iter  16:  -518.79858802432420    2.04636e-12   9.26849e-10 DIIS
   @RHF iter  17:  -518.79858802432000    4.20641e-12   4.24052e-10 DIIS
   @RHF iter  18:  -518.79858802432489   -4.88853e-12   1.66676e-10 DIIS
   @RHF iter  19:  -518.79858802432750   -2.61480e-12   6.28161e-11 DIIS
  Energy and wave function converged.

  ==> Post-Iterations <==

    Orbital Energies [Eh]
    ---------------------

    Doubly Occupied:

       1A    -15.601359     2A    -11.264988     3A    -11.262208
       4A    -11.232191     5A    -11.231282     6A    -11.230070
       7A    -11.223581     8A    -11.222773     9A    -11.222767
      10A    -11.221722    11A    -11.221546    12A    -11.215825
      13A    -11.214934    14A     -1.293039    15A     -1.122696
      16A     -1.078874    17A     -1.029547    18A     -1.012383
      19A     -0.988769    20A     -0.966988    21A     -0.855715
      22A     -0.840931    23A     -0.837083    24A     -0.800947
      25A     -0.745486    26A     -0.716417    27A     -0.664061
      28A     -0.641140    29A     -0.617292    30A     -0.610087
      31A     -0.605460    32A     -0.592481    33A     -0.586703
      34A     -0.580204    35A     -0.572742    36A     -0.544096
      37A     -0.514795    38A     -0.511670    39A     -0.504169
      40A     -0.498209    41A     -0.492985    42A     -0.489314
      43A     -0.475404    44A     -0.458890    45A     -0.456995
      46A     -0.370332    47A     -0.292345    48A     -0.274577

    Virtual:

      49A      0.125090    50A      0.168360    51A      0.168791
      52A      0.178827    53A      0.189072    54A      0.206062
      55A      0.218837    56A      0.222982    57A      0.232785
      58A      0.239953    59A      0.243781    60A      0.254712
      61A      0.263959    62A      0.270341    63A      0.274636
      64A      0.286586    65A      0.295460    66A      0.314948
      67A      0.322591    68A      0.346211    69A      0.378581
      70A      0.382990    71A      0.393273    72A      0.421449
      73A      0.423159    74A      0.433869    75A      0.447565
      76A      0.472571    77A      0.488265    78A      0.502828
      79A      0.512135    80A      0.596944    81A      0.599481
      82A      0.605864    83A      0.613382    84A      0.619455
      85A      0.624912    86A      0.642253    87A      0.655880
      88A      0.668069    89A      0.679271    90A      0.694542
      91A      0.696143    92A      0.708826    93A      0.719243
      94A      0.735797    95A      0.740023    96A      0.744463
      97A      0.754375    98A      0.757296    99A      0.760984
     100A      0.778924   101A      0.786876   102A      0.803006
     103A      0.820617   104A      0.833719   105A      0.847845
     106A      0.852849   107A      0.873436   108A      0.875531
     109A      0.880960   110A      0.889938   111A      0.890530
     112A      0.893721   113A      0.901726   114A      0.905036
     115A      0.913666   116A      0.914780   117A      0.924717
     118A      0.935936   119A      0.940095   120A      0.954419
     121A      0.962615   122A      0.970248   123A      0.977688
     124A      0.984179   125A      0.989825   126A      1.015427
     127A      1.029460   128A      1.061317   129A      1.075253
     130A      1.077480   131A      1.096331   132A      1.115375
     133A      1.125457   134A      1.129019   135A      1.149664
     136A      1.159197   137A      1.168131   138A      1.187960
     139A      1.208518   140A      1.219595   141A      1.228914
     142A      1.234727   143A      1.259951   144A      1.268379
     145A      1.278397   146A      1.281255   147A      1.306177
     148A      1.320408   149A      1.339637   150A      1.363470
     151A      1.375047   152A      1.385766   153A      1.428370
     154A      1.441234   155A      1.464928   156A      1.478401
     157A      1.493991   158A      1.510877   159A      1.547597
     160A      1.584133   161A      1.597319   162A      1.599776
     163A      1.635658   164A      1.648678   165A      1.656654
     166A      1.674878   167A      1.690386   168A      1.701396
     169A      1.718302   170A      1.730452   171A      1.750583
     172A      1.763531   173A      1.779420   174A      1.787499
     175A      1.810711   176A      1.840450   177A      1.855917
     178A      1.867564   179A      1.879108   180A      1.879697
     181A      1.890955   182A      1.899503   183A      1.904338
     184A      1.916227   185A      1.918750   186A      1.925464
     187A      1.927657   188A      1.944152   189A      1.944654
     190A      1.945666   191A      1.954296   192A      1.959350
     193A      1.973288   194A      1.985076   195A      1.987268
     196A      1.995335   197A      1.998492   198A      2.013749
     199A      2.025236   200A      2.030568   201A      2.060431
     202A      2.063145   203A      2.082018   204A      2.092601
     205A      2.096700   206A      2.102131   207A      2.112040
     208A      2.117738   209A      2.136809   210A      2.153477
     211A      2.159068   212A      2.164826   213A      2.166311
     214A      2.180920   215A      2.232237   216A      2.263107
     217A      2.278867   218A      2.288255   219A      2.293465
     220A      2.309541   221A      2.318583   222A      2.333338
     223A      2.349017   224A      2.355973   225A      2.368575
     226A      2.403767   227A      2.450574   228A      2.455219
     229A      2.472469   230A      2.475217   231A      2.534399
     232A      2.538175   233A      2.553777   234A      2.571969
     235A      2.580431   236A      2.589569   237A      2.605135
     238A      2.641658   239A      2.665357   240A      2.702772
     241A      2.723077   242A      2.757835   243A      2.767654
     244A      2.778871   245A      2.785273   246A      2.795111
     247A      2.802631   248A      2.811507   249A      2.833308
     250A      2.839125   251A      2.848807   252A      2.908569
     253A      2.912652   254A      2.943994   255A      2.954660
     256A      2.963065   257A      2.978737   258A      3.006003
     259A      3.043780   260A      3.048923   261A      3.097754
     262A      3.134145   263A      3.210744   264A      3.298319
     265A      3.374281   266A      3.735498   267A      3.927115

    Final Occupation by Irrep:
              A
    DOCC [    48 ]

  @RHF Final Energy:  -518.79858802432750

   => Energetics <=

    Nuclear Repulsion Energy =            741.4636864906336768
    One-Electron Energy =               -2172.5083984696443622
    Two-Electron Energy =                 912.2461239546830711
    Total Energy =                       -518.7985880243275005

Computation Completed

Properties will be evaluated at   0.000000,   0.000000,   0.000000 [a0]

Properties computed using the SCF density matrix

  Nuclear Dipole Moment: [e a0]
     X:     9.4502      Y:    -3.4835      Z:    19.7075

  Electronic Dipole Moment: [e a0]
     X:    -9.6390      Y:     2.7952      Z:   -19.2375

  Dipole Moment: [e a0]
     X:    -0.1888      Y:    -0.6882      Z:     0.4700     Total:     0.8545

  Dipole Moment: [D]
     X:    -0.4800      Y:    -1.7493      Z:     1.1947     Total:     2.1720

*** tstop() called on ds3 at Sun Apr 26 22:12:28 2020
Module time:
	user time   =     257.87 seconds =       4.30 minutes
	system time =     101.20 seconds =       1.69 minutes
	total time  =        364 seconds =       6.07 minutes
Total time:
	user time   =     257.87 seconds =       4.30 minutes
	system time =     101.20 seconds =       1.69 minutes
	total time  =        364 seconds =       6.07 minutes
                                     G D M A

                                 by Anthony Stone

                           version 2.2.06, 22 June 2011

               Distributed Multipoles from Gaussian wavefunctions

Starting at 22:12:28 on 26 Apr 2020

Using SCF density matrix from file ./SSI/SSI-030TRP-033THR-1-dimer.test.25476.fchk

                         Distributed Multipole Analysis

Standard DMA

Positions and radii in angstrom
Multipole moments in atomic units, ea_0^k for rank k

C          x =  1.528660  y =  0.810203  z =  1.056575 angstrom
           Maximum rank =  0   Radius =  0.650 angstrom
                   Q00  =  -0.042138

C          x =  2.996660  y =  0.805203  z =  0.617575 angstrom
           Maximum rank =  0   Radius =  0.650 angstrom
                   Q00  =  -0.249131

C          x =  0.551660  y =  0.077203  z =  0.175575 angstrom
           Maximum rank =  0   Radius =  0.650 angstrom
                   Q00  =  -0.123939

C          x =  0.070660  y = -1.179797  z =  0.369575 angstrom
           Maximum rank =  0   Radius =  0.650 angstrom
                   Q00  =   0.068453

C          x = -0.172340  y =  0.607203  z = -0.956425 angstrom
           Maximum rank =  0   Radius =  0.650 angstrom
                   Q00  =  -0.054513

C          x = -1.091340  y = -0.394797  z = -1.382425 angstrom
           Maximum rank =  0   Radius =  0.650 angstrom
                   Q00  =   0.286488

C          x = -0.151340  y =  1.832203  z = -1.646425 angstrom
           Maximum rank =  0   Radius =  0.650 angstrom
                   Q00  =  -0.100453

C          x = -1.965340  y = -0.207797  z = -2.457425 angstrom
           Maximum rank =  0   Radius =  0.650 angstrom
                   Q00  =  -0.119141

C          x = -1.030340  y =  2.023203  z = -2.727425 angstrom
           Maximum rank =  0   Radius =  0.650 angstrom
                   Q00  =  -0.091347

C          x = -1.926340  y =  1.009203  z = -3.124425 angstrom
           Maximum rank =  0   Radius =  0.650 angstrom
                   Q00  =  -0.067446

N          x = -0.910340  y = -1.468797  z = -0.550425 angstrom
           Maximum rank =  0   Radius =  0.650 angstrom
                   Q00  =  -0.494638

H          x =  1.492660  y =  0.382203  z =  2.043575 angstrom
           Maximum rank =  0   Radius =  0.325 angstrom
                   Q00  =   0.079062

H          x =  1.193660  y =  1.844203  z =  1.156575 angstrom
           Maximum rank =  0   Radius =  0.325 angstrom
                   Q00  =   0.069720

H          x =  3.575660  y =  1.225203  z =  1.428575 angstrom
           Maximum rank =  0   Radius =  0.325 angstrom
                   Q00  =   0.077045

H          x =  0.348660  y = -1.809797  z =  1.201575 angstrom
           Maximum rank =  0   Radius =  0.325 angstrom
                   Q00  =   0.102953

H          x = -1.457340  y = -2.328797  z = -0.539425 angstrom
           Maximum rank =  0   Radius =  0.325 angstrom
                   Q00  =   0.217199

H          x =  0.535660  y =  2.609203  z = -1.350425 angstrom
           Maximum rank =  0   Radius =  0.325 angstrom
                   Q00  =   0.071219

H          x = -2.651340  y = -0.987797  z = -2.752425 angstrom
           Maximum rank =  0   Radius =  0.325 angstrom
                   Q00  =   0.073415

H          x = -1.020340  y =  2.961203  z = -3.262425 angstrom
           Maximum rank =  0   Radius =  0.325 angstrom
                   Q00  =   0.062078

H          x = -2.594340  y =  1.183203  z = -3.960425 angstrom
           Maximum rank =  0   Radius =  0.325 angstrom
                   Q00  =   0.066316

H          x =  3.129150  y =  1.424493  z = -0.281835 angstrom
           Maximum rank =  0   Radius =  0.325 angstrom
                   Q00  =   0.083335

H          x =  3.382990  y = -0.213827  z =  0.468145 angstrom
           Maximum rank =  0   Radius =  0.325 angstrom
                   Q00  =   0.081747

C          x =  1.176660  y = -1.270797  z =  4.046575 angstrom
           Maximum rank =  0   Radius =  0.650 angstrom
                   Q00  =  -0.245048

C          x =  0.228660  y = -2.084797  z =  4.905575 angstrom
           Maximum rank =  0   Radius =  0.650 angstrom
                   Q00  =  -0.217464

H          x =  1.497660  y = -1.831797  z =  3.170575 angstrom
           Maximum rank =  0   Radius =  0.325 angstrom
                   Q00  =   0.071196

H          x =  0.618660  y = -0.391797  z =  3.740575 angstrom
           Maximum rank =  0   Radius =  0.325 angstrom
                   Q00  =   0.076244

H          x =  2.042660  y = -0.962797  z =  4.632575 angstrom
           Maximum rank =  0   Radius =  0.325 angstrom
                   Q00  =   0.084343

H          x = -0.191340  y = -1.419797  z =  5.660575 angstrom
           Maximum rank =  0   Radius =  0.325 angstrom
                   Q00  =   0.082658

H          x =  0.756880  y = -2.920907  z =  5.387145 angstrom
           Maximum rank =  0   Radius =  0.325 angstrom
                   Q00  =   0.078354

H          x = -0.581920  y = -2.482777  z =  4.277435 angstrom
           Maximum rank =  0   Radius =  0.325 angstrom
                   Q00  =   0.073433

Total multipoles referred to origin at
           x =   0.000000,  y =    0.000000,  z =    0.000000 angstrom
                   Q00  =  -0.000000

Finished at 22:12:28 on 26 Apr 2020

  DMA results are available in the Python driver through the
	  variable('DMA DISTRIBUTED MULTIPOLES')
  and
	  variable('DMA TOTAL MULTIPOLES')
  commands.

    Psi4 stopped on: Sunday, 26 April 2020 10:12PM
    Psi4 wall time for execution: 0:06:04.43

*** Psi4 exiting successfully. Buy a developer a beer!
