                               Psi4 1.3.2 release

  ==> Input File <==

--------------------------------------------------------------------------
import numpy as np
set {scf_type pk
basis cc-pvdz
d_convergence 10
gdma_switch   0
gdma_limit    0
gdma_origin   [ 0.0,  0.0,  0.0 ]
}
molecule test {
    units Angstrom
    1 1
    --
    1 1
    C                3.373430211486389     0.021699307885092     0.484512384515141
    C                1.262430211486389     0.380699307885092     1.734512384515141
    N                2.197430211486389     0.792699307885092     0.889512384515141
    N                1.323430211486389    -0.813300692114908     2.293512384515141
    N                0.250430211486389     1.177699307885092     2.013512384515141
    H                2.055430211486389     1.704699307885092     0.466512384515141
    H                2.113430211486389    -1.409300692114908     2.115512384515141
    H                0.623430211486389    -1.103300692114908     2.957512384515141
    H                0.180430211486389     2.057699307885092     1.516512384515141
    H               -0.455569788513611     0.906699307885092     2.680512384515141
    H                3.524430211486389    -0.854300692114908     1.116512384515141
    H                4.266430211486390     0.640699307885092     0.590512384515141
    H                3.280370211486389    -0.312010692114908    -0.559507615484859
    C               -0.831569788513611    -0.447300692114908    -0.862487615484859
    C               -3.409569788513611    -0.883300692114908    -1.761487615484859
    S               -1.880569788513611    -0.061300692114908    -2.257487615484859
    H               -0.675569788513611    -1.524300692114908    -0.807487615484859
    H                0.126430211486389     0.058699307885092    -0.987487615484859
    H               -1.308569788513611    -0.102300692114908     0.055512384515141
    H               -3.879569788513611    -0.281300692114908    -0.982487615484859
    H               -3.170569788513611    -1.856300692114908    -1.335487615484859
    H               -4.121160788513611    -1.005860692114908    -2.591316615484859

}
e, wfn = energy('scf', return_wfn=True)
gdma(wfn)
dmavals = variable('DMA DISTRIBUTED MULTIPOLES')
charges = np.array(dmavals)
print(charges)
np.save('SSI-059ARG-065MET-1-dimer.npy', np.array(charges))--------------------------------------------------------------------------

*** tstart() called on ds3
*** at Mon Apr 27 23:59:48 2020

   => Loading Basis Set <=

    Name: CC-PVDZ
    Role: ORBITAL
    Keyword: BASIS
    atoms 1-2, 14-15  entry C          line   138 file /theoryfs2/ds/metcalf/miniconda2/envs/tf2gpu/share/psi4/basis/cc-pvdz.gbs
    atoms 3-5         entry N          line   168 file /theoryfs2/ds/metcalf/miniconda2/envs/tf2gpu/share/psi4/basis/cc-pvdz.gbs
    atoms 6-13, 17-22 entry H          line    22 file /theoryfs2/ds/metcalf/miniconda2/envs/tf2gpu/share/psi4/basis/cc-pvdz.gbs
    atoms 16          entry S          line   598 file /theoryfs2/ds/metcalf/miniconda2/envs/tf2gpu/share/psi4/basis/cc-pvdz.gbs

         ---------------------------------------------------------
                                   SCF
               by Justin Turney, Rob Parrish, Andy Simmonett
                          and Daniel G. A. Smith
                              RHF Reference
                        1 Threads,    500 MiB Core
         ---------------------------------------------------------

  ==> Geometry <==

    Molecular point group: c1
    Full point group: C1

    Geometry (in Angstrom), charge = 1, multiplicity = 1:

       Center              X                  Y                   Z               Mass
    ------------   -----------------  -----------------  -----------------  -----------------
         C            3.373430211486     0.021699307885     0.484512384515    12.000000000000
         C            1.262430211486     0.380699307885     1.734512384515    12.000000000000
         N            2.197430211486     0.792699307885     0.889512384515    14.003074004430
         N            1.323430211486    -0.813300692115     2.293512384515    14.003074004430
         N            0.250430211486     1.177699307885     2.013512384515    14.003074004430
         H            2.055430211486     1.704699307885     0.466512384515     1.007825032230
         H            2.113430211486    -1.409300692115     2.115512384515     1.007825032230
         H            0.623430211486    -1.103300692115     2.957512384515     1.007825032230
         H            0.180430211486     2.057699307885     1.516512384515     1.007825032230
         H           -0.455569788514     0.906699307885     2.680512384515     1.007825032230
         H            3.524430211486    -0.854300692115     1.116512384515     1.007825032230
         H            4.266430211486     0.640699307885     0.590512384515     1.007825032230
         H            3.280370211486    -0.312010692115    -0.559507615485     1.007825032230
         C           -0.831569788514    -0.447300692115    -0.862487615485    12.000000000000
         C           -3.409569788514    -0.883300692115    -1.761487615485    12.000000000000
         S           -1.880569788514    -0.061300692115    -2.257487615485    31.972071174400
         H           -0.675569788514    -1.524300692115    -0.807487615485     1.007825032230
         H            0.126430211486     0.058699307885    -0.987487615485     1.007825032230
         H           -1.308569788514    -0.102300692115     0.055512384515     1.007825032230
         H           -3.879569788514    -0.281300692115    -0.982487615485     1.007825032230
         H           -3.170569788514    -1.856300692115    -1.335487615485     1.007825032230
         H           -4.121160788514    -1.005860692115    -2.591316615485     1.007825032230

  Running in c1 symmetry.

  Rotational constants: A =      0.08650  B =      0.01745  C =      0.01618 [cm^-1]
  Rotational constants: A =   2593.30899  B =    523.00554  C =    485.02161 [MHz]
  Nuclear repulsion =  452.762728775961079

  Charge       = 1
  Multiplicity = 1
  Electrons    = 74
  Nalpha       = 37
  Nbeta        = 37

  ==> Algorithm <==

  SCF Algorithm Type is PK.
  DIIS enabled.
  MOM disabled.
  Fractional occupation disabled.
  Guess Type is SAD.
  Energy threshold   = 1.00e-06
  Density threshold  = 1.00e-10
  Integral threshold = 0.00e+00

  ==> Primary Basis <==

  Basis Set: CC-PVDZ
    Blend: CC-PVDZ
    Number of shells: 92
    Number of basis function: 186
    Number of Cartesian functions: 194
    Spherical Harmonics?: true
    Max angular momentum: 2

  ==> Pre-Iterations <==

   -------------------------------------------------------
    Irrep   Nso     Nmo     Nalpha   Nbeta   Ndocc  Nsocc
   -------------------------------------------------------
     A        186     186       0       0       0       0
   -------------------------------------------------------
    Total     186     186      37      37      37       0
   -------------------------------------------------------

  ==> Integral Setup <==

  Using integral reordering PK algorithm.
  Sizing the integral batches needed.
  Building batch lookup table.
   Calculation information:
      Number of atoms:                  22
      Number of AO shells:              92
      Number of primitives:            274
      Number of atomic orbitals:       194
      Number of basis functions:       186

      Integral cutoff                 1.00e-12
      Number of threads:                 1

	Batch   1 pq = [       0,    9405] index = [             0,44231715] size =     44231715
	Batch   2 pq = [    9405,   13301] index = [      44231715,88464951] size =     44233236
	Batch   3 pq = [   13301,   16290] index = [      88464951,132690195] size =     44225244
	Batch   4 pq = [   16290,   17391] index = [     132690195,151232136] size =     18541941
  Task number: 14
  Buffer size: 11059200
  Buffer per thread: 2
  We computed 7266013 shell quartets total.
  Whereas there are 9152781 unique shell quartets.

  ==> DiskJK: Disk-Based J/K Matrices <==

    J tasked:                  Yes
    K tasked:                  Yes
    wK tasked:                  No
    Memory [MiB]:              375
    Schwarz Cutoff:          1E-12

    OpenMP threads:              1

  Minimum eigenvalue in the overlap matrix is 3.4010933377E-03.
  Using Symmetric Orthogonalization.

  SCF Guess: Superposition of Atomic Densities via on-the-fly atomic UHF.

  ==> Iterations <==

                        Total Energy        Delta E     RMS |[F,P]|

   @RHF iter SAD:  -719.70582589277581   -7.19706e+02   0.00000e+00
   @RHF iter   1:  -720.14782346730158   -4.41998e-01   2.92588e-03 DIIS
   @RHF iter   2:  -720.31129873331088   -1.63475e-01   1.06775e-03 DIIS
   @RHF iter   3:  -720.33107400223787   -1.97753e-02   3.03725e-04 DIIS
   @RHF iter   4:  -720.33350139086133   -2.42739e-03   5.02278e-05 DIIS
   @RHF iter   5:  -720.33357855559450   -7.71647e-05   1.69761e-05 DIIS
   @RHF iter   6:  -720.33358697532526   -8.41973e-06   4.57350e-06 DIIS
   @RHF iter   7:  -720.33358772966028   -7.54335e-07   1.56048e-06 DIIS
   @RHF iter   8:  -720.33358781207880   -8.24185e-08   4.51521e-07 DIIS
   @RHF iter   9:  -720.33358781839900   -6.32019e-09   1.13039e-07 DIIS
   @RHF iter  10:  -720.33358781887671   -4.77712e-10   3.27625e-08 DIIS
   @RHF iter  11:  -720.33358781892446   -4.77485e-11   1.12713e-08 DIIS
   @RHF iter  12:  -720.33358781892787   -3.41061e-12   3.69364e-09 DIIS
   @RHF iter  13:  -720.33358781893060   -2.72848e-12   1.29659e-09 DIIS
   @RHF iter  14:  -720.33358781893025    3.41061e-13   4.67819e-10 DIIS
   @RHF iter  15:  -720.33358781893105   -7.95808e-13   1.39640e-10 DIIS
   @RHF iter  16:  -720.33358781893287   -1.81899e-12   5.14468e-11 DIIS
  Energy and wave function converged.

  ==> Post-Iterations <==

    Orbital Energies [Eh]
    ---------------------

    Doubly Occupied:

       1A    -92.030694     2A    -15.791983     3A    -15.791835
       4A    -15.790635     5A    -11.593426     6A    -11.446162
       7A    -11.367441     8A    -11.345029     9A     -9.034715
      10A     -6.716750    11A     -6.715186    12A     -6.712838
      13A     -1.550172    14A     -1.406511    15A     -1.396098
      16A     -1.164542    17A     -1.146308    18A     -1.052172
      19A     -1.042035    20A     -0.982297    21A     -0.946284
      22A     -0.904416    23A     -0.865133    24A     -0.860428
      25A     -0.827340    26A     -0.800222    27A     -0.749029
      28A     -0.728227    29A     -0.710991    30A     -0.706874
      31A     -0.668534    32A     -0.658169    33A     -0.620940
      34A     -0.602242    35A     -0.587511    36A     -0.520858
      37A     -0.425549

    Virtual:

      38A     -0.016696    39A      0.018492    40A      0.024462
      41A      0.026879    42A      0.059953    43A      0.068959
      44A      0.088512    45A      0.098087    46A      0.109886
      47A      0.114666    48A      0.139882    49A      0.142065
      50A      0.155189    51A      0.164935    52A      0.188311
      53A      0.189242    54A      0.204057    55A      0.209353
      56A      0.273422    57A      0.324797    58A      0.338438
      59A      0.398426    60A      0.422197    61A      0.424480
      62A      0.462775    63A      0.480155    64A      0.514545
      65A      0.523088    66A      0.526531    67A      0.536411
      68A      0.544227    69A      0.561992    70A      0.568055
      71A      0.605741    72A      0.630499    73A      0.633928
      74A      0.652397    75A      0.676039    76A      0.685715
      77A      0.690856    78A      0.704244    79A      0.713230
      80A      0.730013    81A      0.742248    82A      0.752860
      83A      0.760281    84A      0.764729    85A      0.776937
      86A      0.782075    87A      0.789049    88A      0.796484
      89A      0.799698    90A      0.812583    91A      0.828499
      92A      0.845195    93A      0.855330    94A      0.893773
      95A      0.899190    96A      0.927982    97A      0.941147
      98A      0.954341    99A      1.007074   100A      1.053332
     101A      1.081388   102A      1.122777   103A      1.139498
     104A      1.147326   105A      1.171487   106A      1.193700
     107A      1.202534   108A      1.212180   109A      1.215037
     110A      1.223955   111A      1.272870   112A      1.279070
     113A      1.290812   114A      1.358188   115A      1.373221
     116A      1.403258   117A      1.477324   118A      1.500752
     119A      1.522257   120A      1.531431   121A      1.546109
     122A      1.583994   123A      1.605594   124A      1.616449
     125A      1.649245   126A      1.689820   127A      1.715921
     128A      1.718495   129A      1.732898   130A      1.740035
     131A      1.780210   132A      1.790031   133A      1.797692
     134A      1.805130   135A      1.808396   136A      1.815962
     137A      1.829831   138A      1.834159   139A      1.871603
     140A      1.878233   141A      1.894093   142A      1.908236
     143A      1.923521   144A      1.957813   145A      1.986223
     146A      1.988644   147A      2.015191   148A      2.038808
     149A      2.096879   150A      2.124635   151A      2.141705
     152A      2.161212   153A      2.178794   154A      2.251779
     155A      2.272831   156A      2.290995   157A      2.298428
     158A      2.323684   159A      2.333554   160A      2.336784
     161A      2.349230   162A      2.358103   163A      2.371461
     164A      2.426536   165A      2.453369   166A      2.542673
     167A      2.575001   168A      2.579112   169A      2.625319
     170A      2.637600   171A      2.666853   172A      2.667973
     173A      2.692671   174A      2.701703   175A      2.722427
     176A      2.743549   177A      2.752305   178A      2.784229
     179A      2.809835   180A      2.842294   181A      2.902885
     182A      3.058892   183A      3.109656   184A      3.120908
     185A      3.562366   186A      3.647862

    Final Occupation by Irrep:
              A
    DOCC [    37 ]

  @RHF Final Energy:  -720.33358781893287

   => Energetics <=

    Nuclear Repulsion Energy =            452.7627287759610795
    One-Electron Energy =               -1873.6734798546599450
    Two-Electron Energy =                 700.5771632597660528
    Total Energy =                       -720.3335878189328696

Computation Completed

Properties will be evaluated at   0.000000,   0.000000,   0.000000 [a0]

Properties computed using the SCF density matrix

  Nuclear Dipole Moment: [e a0]
     X:     2.3388      Y:    -2.8928      Z:     3.8958

  Electronic Dipole Moment: [e a0]
     X:    -0.0352      Y:     3.1409      Z:    -0.4496

  Dipole Moment: [e a0]
     X:     2.3035      Y:     0.2481      Z:     3.4462     Total:     4.1526

  Dipole Moment: [D]
     X:     5.8550      Y:     0.6305      Z:     8.7593     Total:    10.5548

*** tstop() called on ds3 at Tue Apr 28 00:02:17 2020
Module time:
	user time   =      55.79 seconds =       0.93 minutes
	system time =      21.47 seconds =       0.36 minutes
	total time  =        149 seconds =       2.48 minutes
Total time:
	user time   =      55.79 seconds =       0.93 minutes
	system time =      21.47 seconds =       0.36 minutes
	total time  =        149 seconds =       2.48 minutes
                                     G D M A

                                 by Anthony Stone

                           version 2.2.06, 22 June 2011

               Distributed Multipoles from Gaussian wavefunctions

Starting at 0:2:17 on 28 Apr 2020

Using SCF density matrix from file ./SSI/SSI-059ARG-065MET-1-dimer.test.4630.fchk

                         Distributed Multipole Analysis

Standard DMA

Positions and radii in angstrom
Multipole moments in atomic units, ea_0^k for rank k

C          x =  3.373430  y =  0.021699  z =  0.484512 angstrom
           Maximum rank =  0   Radius =  0.650 angstrom
                   Q00  =  -0.122795

C          x =  1.262430  y =  0.380699  z =  1.734512 angstrom
           Maximum rank =  0   Radius =  0.650 angstrom
                   Q00  =   1.070888

N          x =  2.197430  y =  0.792699  z =  0.889512 angstrom
           Maximum rank =  0   Radius =  0.650 angstrom
                   Q00  =  -0.488153

N          x =  1.323430  y = -0.813301  z =  2.293512 angstrom
           Maximum rank =  0   Radius =  0.650 angstrom
                   Q00  =  -0.584382

N          x =  0.250430  y =  1.177699  z =  2.013512 angstrom
           Maximum rank =  0   Radius =  0.650 angstrom
                   Q00  =  -0.585757

H          x =  2.055430  y =  1.704699  z =  0.466512 angstrom
           Maximum rank =  0   Radius =  0.325 angstrom
                   Q00  =   0.237521

H          x =  2.113430  y = -1.409301  z =  2.115512 angstrom
           Maximum rank =  0   Radius =  0.325 angstrom
                   Q00  =   0.268357

H          x =  0.623430  y = -1.103301  z =  2.957512 angstrom
           Maximum rank =  0   Radius =  0.325 angstrom
                   Q00  =   0.268336

H          x =  0.180430  y =  2.057699  z =  1.516512 angstrom
           Maximum rank =  0   Radius =  0.325 angstrom
                   Q00  =   0.267382

H          x = -0.455570  y =  0.906699  z =  2.680512 angstrom
           Maximum rank =  0   Radius =  0.325 angstrom
                   Q00  =   0.271815

H          x =  3.524430  y = -0.854301  z =  1.116512 angstrom
           Maximum rank =  0   Radius =  0.325 angstrom
                   Q00  =   0.111971

H          x =  4.266430  y =  0.640699  z =  0.590512 angstrom
           Maximum rank =  0   Radius =  0.325 angstrom
                   Q00  =   0.151097

H          x =  3.280370  y = -0.312011  z = -0.559508 angstrom
           Maximum rank =  0   Radius =  0.325 angstrom
                   Q00  =   0.138688

C          x = -0.831570  y = -0.447301  z = -0.862488 angstrom
           Maximum rank =  0   Radius =  0.650 angstrom
                   Q00  =  -0.373955

C          x = -3.409570  y = -0.883301  z = -1.761488 angstrom
           Maximum rank =  0   Radius =  0.650 angstrom
                   Q00  =  -0.353075

S          x = -1.880570  y = -0.061301  z = -2.257488 angstrom
           Maximum rank =  0   Radius =  0.650 angstrom
                   Q00  =   0.154828

H          x = -0.675570  y = -1.524301  z = -0.807488 angstrom
           Maximum rank =  0   Radius =  0.325 angstrom
                   Q00  =   0.092239

H          x =  0.126430  y =  0.058699  z = -0.987488 angstrom
           Maximum rank =  0   Radius =  0.325 angstrom
                   Q00  =   0.094086

H          x = -1.308570  y = -0.102301  z =  0.055512 angstrom
           Maximum rank =  0   Radius =  0.325 angstrom
                   Q00  =   0.058922

H          x = -3.879570  y = -0.281301  z = -0.982488 angstrom
           Maximum rank =  0   Radius =  0.325 angstrom
                   Q00  =   0.087440

H          x = -3.170570  y = -1.856301  z = -1.335488 angstrom
           Maximum rank =  0   Radius =  0.325 angstrom
                   Q00  =   0.091462

H          x = -4.121161  y = -1.005861  z = -2.591317 angstrom
           Maximum rank =  0   Radius =  0.325 angstrom
                   Q00  =   0.143084

Total multipoles referred to origin at
           x =   0.000000,  y =    0.000000,  z =    0.000000 angstrom
                   Q00  =   1.000000

Finished at 0:2:17 on 28 Apr 2020

  DMA results are available in the Python driver through the
	  variable('DMA DISTRIBUTED MULTIPOLES')
  and
	  variable('DMA TOTAL MULTIPOLES')
  commands.

    Psi4 stopped on: Tuesday, 28 April 2020 12:02AM
    Psi4 wall time for execution: 0:02:29.15

*** Psi4 exiting successfully. Buy a developer a beer!
