                               Psi4 1.3.2 release

  ==> Input File <==

--------------------------------------------------------------------------
import numpy as np
set {scf_type pk
basis cc-pvdz
d_convergence 10
gdma_switch   0
gdma_limit    0
gdma_origin   [ 0.0,  0.0,  0.0 ]
}
molecule test {
    units Angstrom
    0 1
    --
    0 1
    C                2.617860873311260    -1.099495210243702    -2.821353334380439
    C                1.071860873311260    -1.737495210243702    -0.941353334380439
    C                1.369860873311260    -1.750495210243702    -2.306353334380439
    C               -0.090139126688740    -2.355495210243701    -0.463353334380439
    C               -0.954139126688740    -2.987495210243702    -1.352353334380439
    C                0.505860873311260    -2.403495210243701    -3.183353334380439
    C               -0.657139126688740    -3.014495210243702    -2.709353334380439
    H                1.744860873311260    -1.254495210243702    -0.247353334380439
    H               -0.316139126688740    -2.338495210243702     0.593646665619561
    H                2.925860873311260    -0.311495210243702    -2.136353334380440
    H                2.379860873311260    -0.629495210243702    -3.775353334380439
    H               -1.854139126688740    -3.461495210243702    -0.985353334380439
    H                0.730860873311260    -2.431495210243702    -4.240353334380439
    H               -1.324139126688740    -3.513495210243702    -3.398353334380439
    H                3.454133873311260    -1.797826210243702    -2.972943334380439
    C               -2.989139126688740     1.840504789756298     2.245646665619561
    C                0.543860873311260     1.591504789756298     0.909646665619561
    C               -0.825139126688740     1.390504789756298     1.078646665619561
    C                1.233860873311260     2.435504789756298     1.764646665619561
    C               -1.512139126688740     2.033504789756298     2.102646665619561
    C                0.551860873311260     3.077504789756298     2.793646665619561
    C               -0.819139126688740     2.886504789756299     2.955646665619561
    H                1.067860873311260     1.086504789756298     0.109646665619561
    H               -1.349139126688740     0.724504789756298     0.408646665619561
    H                2.293860873311260     2.581504789756298     1.646646665619561
    H                1.084860873311260     3.721504789756299     3.477646665619560
    H               -3.336139126688740     2.313504789756298     3.163646665619561
    H               -3.184139126688740     0.775504789756298     2.334646665619561
    H               -1.336139126688740     3.390504789756299     3.755646665619561
    H               -3.554335726688740     2.251295789756298     1.396056665619561

}
e, wfn = energy('scf', return_wfn=True)
gdma(wfn)
dmavals = variable('DMA DISTRIBUTED MULTIPOLES')
charges = np.array(dmavals)
print(charges)
np.save('SSI-108PHE-127PHE-1-dimer.npy', np.array(charges))--------------------------------------------------------------------------

*** tstart() called on ds3
*** at Mon Apr 27 20:51:32 2020

   => Loading Basis Set <=

    Name: CC-PVDZ
    Role: ORBITAL
    Keyword: BASIS
    atoms 1-7, 16-22  entry C          line   138 file /theoryfs2/ds/metcalf/miniconda2/envs/tf2gpu/share/psi4/basis/cc-pvdz.gbs
    atoms 8-15, 23-30 entry H          line    22 file /theoryfs2/ds/metcalf/miniconda2/envs/tf2gpu/share/psi4/basis/cc-pvdz.gbs

         ---------------------------------------------------------
                                   SCF
               by Justin Turney, Rob Parrish, Andy Simmonett
                          and Daniel G. A. Smith
                              RHF Reference
                        1 Threads,    500 MiB Core
         ---------------------------------------------------------

  ==> Geometry <==

    Molecular point group: c1
    Full point group: C1

    Geometry (in Angstrom), charge = 0, multiplicity = 1:

       Center              X                  Y                   Z               Mass
    ------------   -----------------  -----------------  -----------------  -----------------
         C            2.617860873311    -1.099495210244    -2.821353334380    12.000000000000
         C            1.071860873311    -1.737495210244    -0.941353334380    12.000000000000
         C            1.369860873311    -1.750495210244    -2.306353334380    12.000000000000
         C           -0.090139126689    -2.355495210244    -0.463353334380    12.000000000000
         C           -0.954139126689    -2.987495210244    -1.352353334380    12.000000000000
         C            0.505860873311    -2.403495210244    -3.183353334380    12.000000000000
         C           -0.657139126689    -3.014495210244    -2.709353334380    12.000000000000
         H            1.744860873311    -1.254495210244    -0.247353334380     1.007825032230
         H           -0.316139126689    -2.338495210244     0.593646665620     1.007825032230
         H            2.925860873311    -0.311495210244    -2.136353334380     1.007825032230
         H            2.379860873311    -0.629495210244    -3.775353334380     1.007825032230
         H           -1.854139126689    -3.461495210244    -0.985353334380     1.007825032230
         H            0.730860873311    -2.431495210244    -4.240353334380     1.007825032230
         H           -1.324139126689    -3.513495210244    -3.398353334380     1.007825032230
         H            3.454133873311    -1.797826210244    -2.972943334380     1.007825032230
         C           -2.989139126689     1.840504789756     2.245646665620    12.000000000000
         C            0.543860873311     1.591504789756     0.909646665620    12.000000000000
         C           -0.825139126689     1.390504789756     1.078646665620    12.000000000000
         C            1.233860873311     2.435504789756     1.764646665620    12.000000000000
         C           -1.512139126689     2.033504789756     2.102646665620    12.000000000000
         C            0.551860873311     3.077504789756     2.793646665620    12.000000000000
         C           -0.819139126689     2.886504789756     2.955646665620    12.000000000000
         H            1.067860873311     1.086504789756     0.109646665620     1.007825032230
         H           -1.349139126689     0.724504789756     0.408646665620     1.007825032230
         H            2.293860873311     2.581504789756     1.646646665620     1.007825032230
         H            1.084860873311     3.721504789756     3.477646665620     1.007825032230
         H           -3.336139126689     2.313504789756     3.163646665620     1.007825032230
         H           -3.184139126689     0.775504789756     2.334646665620     1.007825032230
         H           -1.336139126689     3.390504789756     3.755646665620     1.007825032230
         H           -3.554335726689     2.251295789756     1.396056665620     1.007825032230

  Running in c1 symmetry.

  Rotational constants: A =      0.03924  B =      0.00908  C =      0.00774 [cm^-1]
  Rotational constants: A =   1176.44930  B =    272.12775  C =    231.90983 [MHz]
  Nuclear repulsion =  756.166331747772119

  Charge       = 0
  Multiplicity = 1
  Electrons    = 100
  Nalpha       = 50
  Nbeta        = 50

  ==> Algorithm <==

  SCF Algorithm Type is PK.
  DIIS enabled.
  MOM disabled.
  Fractional occupation disabled.
  Guess Type is SAD.
  Energy threshold   = 1.00e-06
  Density threshold  = 1.00e-10
  Integral threshold = 0.00e+00

  ==> Primary Basis <==

  Basis Set: CC-PVDZ
    Blend: CC-PVDZ
    Number of shells: 132
    Number of basis function: 276
    Number of Cartesian functions: 290
    Spherical Harmonics?: true
    Max angular momentum: 2

  ==> Pre-Iterations <==

   -------------------------------------------------------
    Irrep   Nso     Nmo     Nalpha   Nbeta   Ndocc  Nsocc
   -------------------------------------------------------
     A        276     276       0       0       0       0
   -------------------------------------------------------
    Total     276     276      50      50      50       0
   -------------------------------------------------------

  ==> Integral Setup <==

  Using integral reordering PK algorithm.
  Sizing the integral batches needed.
  Building batch lookup table.
   Calculation information:
      Number of atoms:                  30
      Number of AO shells:             132
      Number of primitives:            388
      Number of atomic orbitals:       290
      Number of basis functions:       276

      Integral cutoff                 1.00e-12
      Number of threads:                 1

	Batch   1 pq = [       0,    9405] index = [             0,44231715] size =     44231715
	Batch   2 pq = [    9405,   13301] index = [      44231715,88464951] size =     44233236
	Batch   3 pq = [   13301,   16290] index = [      88464951,132690195] size =     44225244
	Batch   4 pq = [   16290,   18810] index = [     132690195,176917455] size =     44227260
	Batch   5 pq = [   18810,   21030] index = [     176917455,221140965] size =     44223510
	Batch   6 pq = [   21030,   23037] index = [     221140965,265363203] size =     44222238
	Batch   7 pq = [   23037,   24883] index = [     265363203,309594286] size =     44231083
	Batch   8 pq = [   24883,   26601] index = [     309594286,353819901] size =     44225615
	Batch   9 pq = [   26601,   28214] index = [     353819901,398029005] size =     44209104
	Batch  10 pq = [   28214,   29740] index = [     398029005,442248670] size =     44219665
	Batch  11 pq = [   29740,   31191] index = [     442248670,486454836] size =     44206166
	Batch  12 pq = [   31191,   32578] index = [     486454836,530679331] size =     44224495
	Batch  13 pq = [   32578,   33908] index = [     530679331,574893186] size =     44213855
	Batch  14 pq = [   33908,   35188] index = [     574893186,619115266] size =     44222080
	Batch  15 pq = [   35188,   36423] index = [     619115266,663335676] size =     44220410
	Batch  16 pq = [   36423,   37617] index = [     663335676,707538153] size =     44202477
	Batch  17 pq = [   37617,   38226] index = [     707538153,730632651] size =     23094498
  Task number: 67
  Buffer size: 11059200
  Buffer per thread: 2
  We computed 32667000 shell quartets total.
  Whereas there are 38531031 unique shell quartets.

  ==> DiskJK: Disk-Based J/K Matrices <==

    J tasked:                  Yes
    K tasked:                  Yes
    wK tasked:                  No
    Memory [MiB]:              375
    Schwarz Cutoff:          1E-12

    OpenMP threads:              1

  Minimum eigenvalue in the overlap matrix is 2.9861353281E-04.
  Using Symmetric Orthogonalization.

  SCF Guess: Superposition of Atomic Densities via on-the-fly atomic UHF.

  ==> Iterations <==

                        Total Energy        Delta E     RMS |[F,P]|

   @RHF iter SAD:  -538.40696554321607   -5.38407e+02   0.00000e+00
   @RHF iter   1:  -539.22807559255602   -8.21110e-01   2.30797e-03 DIIS
   @RHF iter   2:  -539.48058530966705   -2.52510e-01   9.40225e-04 DIIS
   @RHF iter   3:  -539.51752864759908   -3.69433e-02   2.15424e-04 DIIS
   @RHF iter   4:  -539.52067449812694   -3.14585e-03   5.00170e-05 DIIS
   @RHF iter   5:  -539.52079789348784   -1.23395e-04   1.52236e-05 DIIS
   @RHF iter   6:  -539.52080883866847   -1.09452e-05   4.19344e-06 DIIS
   @RHF iter   7:  -539.52080984364864   -1.00498e-06   1.04064e-06 DIIS
   @RHF iter   8:  -539.52080992115134   -7.75027e-08   2.67164e-07 DIIS
   @RHF iter   9:  -539.52080993047093   -9.31959e-09   1.00196e-07 DIIS
   @RHF iter  10:  -539.52080993199058   -1.51965e-09   4.84550e-08 DIIS
   @RHF iter  11:  -539.52080993250547   -5.14888e-10   1.97774e-08 DIIS
   @RHF iter  12:  -539.52080993260279   -9.73159e-11   9.31271e-09 DIIS
   @RHF iter  13:  -539.52080993261575   -1.29603e-11   3.72433e-09 DIIS
   @RHF iter  14:  -539.52080993261688   -1.13687e-12   8.78471e-10 DIIS
   @RHF iter  15:  -539.52080993261620    6.82121e-13   3.49332e-10 DIIS
   @RHF iter  16:  -539.52080993261427    1.93268e-12   1.18370e-10 DIIS
   @RHF iter  17:  -539.52080993262052   -6.25278e-12   6.59315e-11 DIIS
  Energy and wave function converged.

  ==> Post-Iterations <==

    Orbital Energies [Eh]
    ---------------------

    Doubly Occupied:

       1A    -11.241911     2A    -11.237576     3A    -11.237269
       4A    -11.236672     5A    -11.233038     6A    -11.232855
       7A    -11.232448     8A    -11.232108     9A    -11.232042
      10A    -11.229939    11A    -11.227862    12A    -11.227719
      13A    -11.226076    14A    -11.226015    15A     -1.153021
      16A     -1.151524    17A     -1.046880    18A     -1.044623
      19A     -1.011464    20A     -1.008534    21A     -0.932609
      22A     -0.930085    23A     -0.827094    24A     -0.823094
      25A     -0.795732    26A     -0.792579    27A     -0.692382
      28A     -0.688929    29A     -0.633545    30A     -0.632051
      31A     -0.629777    32A     -0.626461    33A     -0.584628
      34A     -0.579657    35A     -0.577256    36A     -0.576850
      37A     -0.564072    38A     -0.562317    39A     -0.536906
      40A     -0.533196    41A     -0.487825    42A     -0.487569
      43A     -0.485160    44A     -0.483114    45A     -0.480700
      46A     -0.478999    47A     -0.333230    48A     -0.328358
      49A     -0.323737    50A     -0.320326

    Virtual:

      51A      0.130433    52A      0.136341    53A      0.138449
      54A      0.145637    55A      0.172816    56A      0.191345
      57A      0.195977    58A      0.210475    59A      0.212638
      60A      0.238284    61A      0.244705    62A      0.247345
      63A      0.257028    64A      0.262106    65A      0.262960
      66A      0.270560    67A      0.282549    68A      0.290608
      69A      0.297041    70A      0.330261    71A      0.362909
      72A      0.372612    73A      0.379414    74A      0.381892
      75A      0.448109    76A      0.454384    77A      0.460019
      78A      0.467166    79A      0.473427    80A      0.477972
      81A      0.491907    82A      0.509386    83A      0.561499
      84A      0.566728    85A      0.589866    86A      0.599252
      87A      0.629727    88A      0.647875    89A      0.677138
      90A      0.681360    91A      0.685624    92A      0.692142
      93A      0.695712    94A      0.702611    95A      0.714207
      96A      0.722528    97A      0.724453    98A      0.738156
      99A      0.739106   100A      0.743802   101A      0.745241
     102A      0.748049   103A      0.751223   104A      0.760139
     105A      0.762329   106A      0.772019   107A      0.779869
     108A      0.785133   109A      0.797157   110A      0.809089
     111A      0.822955   112A      0.839513   113A      0.846331
     114A      0.859243   115A      0.864587   116A      0.871089
     117A      0.878060   118A      0.882274   119A      0.887543
     120A      0.894857   121A      0.901991   122A      0.904527
     123A      0.907319   124A      0.924332   125A      0.928176
     126A      0.929807   127A      0.934592   128A      0.945071
     129A      0.954546   130A      0.978988   131A      0.988314
     132A      1.003676   133A      1.008504   134A      1.034507
     135A      1.057085   136A      1.070959   137A      1.110177
     138A      1.125364   139A      1.131165   140A      1.137163
     141A      1.153120   142A      1.158356   143A      1.166539
     144A      1.173288   145A      1.186586   146A      1.204744
     147A      1.227638   148A      1.234540   149A      1.243935
     150A      1.245340   151A      1.248634   152A      1.255525
     153A      1.261774   154A      1.277324   155A      1.300511
     156A      1.303701   157A      1.307974   158A      1.311071
     159A      1.320115   160A      1.324995   161A      1.332846
     162A      1.350391   163A      1.412986   164A      1.422108
     165A      1.505835   166A      1.516720   167A      1.525255
     168A      1.533811   169A      1.559334   170A      1.564350
     171A      1.602536   172A      1.614116   173A      1.678401
     174A      1.679712   175A      1.687444   176A      1.699735
     177A      1.733172   178A      1.739511   179A      1.741180
     180A      1.749843   181A      1.761777   182A      1.763291
     183A      1.790770   184A      1.799021   185A      1.806401
     186A      1.821494   187A      1.855452   188A      1.863464
     189A      1.873940   190A      1.891383   191A      1.901652
     192A      1.904034   193A      1.907124   194A      1.909695
     195A      1.915019   196A      1.918935   197A      1.923117
     198A      1.924939   199A      1.944638   200A      1.947622
     201A      1.952900   202A      1.960305   203A      1.970959
     204A      1.979281   205A      1.982109   206A      1.993054
     207A      1.998467   208A      2.023263   209A      2.034169
     210A      2.045687   211A      2.055724   212A      2.065133
     213A      2.071123   214A      2.080876   215A      2.106120
     216A      2.112920   217A      2.131765   218A      2.141873
     219A      2.152558   220A      2.159915   221A      2.160502
     222A      2.170029   223A      2.171913   224A      2.177874
     225A      2.191655   226A      2.208723   227A      2.247118
     228A      2.259096   229A      2.275394   230A      2.276233
     231A      2.289144   232A      2.296421   233A      2.299947
     234A      2.312307   235A      2.317730   236A      2.334882
     237A      2.345237   238A      2.360839   239A      2.457123
     240A      2.466265   241A      2.474881   242A      2.483667
     243A      2.496301   244A      2.528336   245A      2.538009
     246A      2.542656   247A      2.620877   248A      2.642533
     249A      2.735309   250A      2.739273   251A      2.753907
     252A      2.758291   253A      2.776009   254A      2.777528
     255A      2.783137   256A      2.796403   257A      2.809912
     258A      2.831704   259A      2.849182   260A      2.850501
     261A      2.871813   262A      2.880898   263A      2.975943
     264A      2.985707   265A      3.009067   266A      3.016436
     267A      3.025787   268A      3.038299   269A      3.151844
     270A      3.166696   271A      3.195662   272A      3.214829
     273A      3.292322   274A      3.312043   275A      3.962350
     276A      3.983421

    Final Occupation by Irrep:
              A
    DOCC [    50 ]

  @RHF Final Energy:  -539.52080993262052

   => Energetics <=

    Nuclear Repulsion Energy =            756.1663317477721193
    One-Electron Energy =               -2228.5786548525979924
    Two-Electron Energy =                 932.8915131722053502
    Total Energy =                       -539.5208099326205229

Computation Completed

Properties will be evaluated at   0.000000,   0.000000,   0.000000 [a0]

Properties computed using the SCF density matrix

  Nuclear Dipole Moment: [e a0]
     X:    -0.5364      Y:     1.0373      Z:    -0.8154

  Electronic Dipole Moment: [e a0]
     X:     0.5049      Y:    -1.0783      Z:     0.7332

  Dipole Moment: [e a0]
     X:    -0.0315      Y:    -0.0410      Z:    -0.0822     Total:     0.0971

  Dipole Moment: [D]
     X:    -0.0801      Y:    -0.1042      Z:    -0.2090     Total:     0.2469

*** tstop() called on ds3 at Mon Apr 27 21:01:10 2020
Module time:
	user time   =     263.25 seconds =       4.39 minutes
	system time =     113.50 seconds =       1.89 minutes
	total time  =        578 seconds =       9.63 minutes
Total time:
	user time   =     263.25 seconds =       4.39 minutes
	system time =     113.50 seconds =       1.89 minutes
	total time  =        578 seconds =       9.63 minutes
                                     G D M A

                                 by Anthony Stone

                           version 2.2.06, 22 June 2011

               Distributed Multipoles from Gaussian wavefunctions

Starting at 21:1:10 on 27 Apr 2020

Using SCF density matrix from file ./SSI/SSI-108PHE-127PHE-1-dimer.test.19390.fchk

                         Distributed Multipole Analysis

Standard DMA

Positions and radii in angstrom
Multipole moments in atomic units, ea_0^k for rank k

C          x =  2.617861  y = -1.099495  z = -2.821353 angstrom
           Maximum rank =  0   Radius =  0.650 angstrom
                   Q00  =  -0.196770

C          x =  1.071861  y = -1.737495  z = -0.941353 angstrom
           Maximum rank =  0   Radius =  0.650 angstrom
                   Q00  =  -0.092876

C          x =  1.369861  y = -1.750495  z = -2.306353 angstrom
           Maximum rank =  0   Radius =  0.650 angstrom
                   Q00  =  -0.100375

C          x = -0.090139  y = -2.355495  z = -0.463353 angstrom
           Maximum rank =  0   Radius =  0.650 angstrom
                   Q00  =  -0.074027

C          x = -0.954139  y = -2.987495  z = -1.352353 angstrom
           Maximum rank =  0   Radius =  0.650 angstrom
                   Q00  =  -0.087887

C          x =  0.505861  y = -2.403495  z = -3.183353 angstrom
           Maximum rank =  0   Radius =  0.650 angstrom
                   Q00  =  -0.019773

C          x = -0.657139  y = -3.014495  z = -2.709353 angstrom
           Maximum rank =  0   Radius =  0.650 angstrom
                   Q00  =  -0.040501

H          x =  1.744861  y = -1.254495  z = -0.247353 angstrom
           Maximum rank =  0   Radius =  0.325 angstrom
                   Q00  =   0.059062

H          x = -0.316139  y = -2.338495  z =  0.593647 angstrom
           Maximum rank =  0   Radius =  0.325 angstrom
                   Q00  =   0.069680

H          x =  2.925861  y = -0.311495  z = -2.136353 angstrom
           Maximum rank =  0   Radius =  0.325 angstrom
                   Q00  =   0.096331

H          x =  2.379861  y = -0.629495  z = -3.775353 angstrom
           Maximum rank =  0   Radius =  0.325 angstrom
                   Q00  =   0.098207

H          x = -1.854139  y = -3.461495  z = -0.985353 angstrom
           Maximum rank =  0   Radius =  0.325 angstrom
                   Q00  =   0.061124

H          x =  0.730861  y = -2.431495  z = -4.240353 angstrom
           Maximum rank =  0   Radius =  0.325 angstrom
                   Q00  =   0.056805

H          x = -1.324139  y = -3.513495  z = -3.398353 angstrom
           Maximum rank =  0   Radius =  0.325 angstrom
                   Q00  =   0.065610

H          x =  3.454134  y = -1.797826  z = -2.972943 angstrom
           Maximum rank =  0   Radius =  0.325 angstrom
                   Q00  =   0.105671

C          x = -2.989139  y =  1.840505  z =  2.245647 angstrom
           Maximum rank =  0   Radius =  0.650 angstrom
                   Q00  =  -0.205592

C          x =  0.543861  y =  1.591505  z =  0.909647 angstrom
           Maximum rank =  0   Radius =  0.650 angstrom
                   Q00  =  -0.075237

C          x = -0.825139  y =  1.390505  z =  1.078647 angstrom
           Maximum rank =  0   Radius =  0.650 angstrom
                   Q00  =  -0.032187

C          x =  1.233861  y =  2.435505  z =  1.764647 angstrom
           Maximum rank =  0   Radius =  0.650 angstrom
                   Q00  =  -0.087819

C          x = -1.512139  y =  2.033505  z =  2.102647 angstrom
           Maximum rank =  0   Radius =  0.650 angstrom
                   Q00  =  -0.095436

C          x =  0.551861  y =  3.077505  z =  2.793647 angstrom
           Maximum rank =  0   Radius =  0.650 angstrom
                   Q00  =  -0.016045

C          x = -0.819139  y =  2.886505  z =  2.955647 angstrom
           Maximum rank =  0   Radius =  0.650 angstrom
                   Q00  =  -0.087294

H          x =  1.067861  y =  1.086505  z =  0.109647 angstrom
           Maximum rank =  0   Radius =  0.325 angstrom
                   Q00  =   0.062963

H          x = -1.349139  y =  0.724505  z =  0.408647 angstrom
           Maximum rank =  0   Radius =  0.325 angstrom
                   Q00  =   0.058369

H          x =  2.293861  y =  2.581505  z =  1.646647 angstrom
           Maximum rank =  0   Radius =  0.325 angstrom
                   Q00  =   0.057211

H          x =  1.084861  y =  3.721505  z =  3.477647 angstrom
           Maximum rank =  0   Radius =  0.325 angstrom
                   Q00  =   0.063558

H          x = -3.336139  y =  2.313505  z =  3.163647 angstrom
           Maximum rank =  0   Radius =  0.325 angstrom
                   Q00  =   0.095461

H          x = -3.184139  y =  0.775505  z =  2.334647 angstrom
           Maximum rank =  0   Radius =  0.325 angstrom
                   Q00  =   0.100505

H          x = -1.336139  y =  3.390505  z =  3.755647 angstrom
           Maximum rank =  0   Radius =  0.325 angstrom
                   Q00  =   0.057511

H          x = -3.554336  y =  2.251296  z =  1.396057 angstrom
           Maximum rank =  0   Radius =  0.325 angstrom
                   Q00  =   0.103752

Total multipoles referred to origin at
           x =   0.000000,  y =    0.000000,  z =    0.000000 angstrom
                   Q00  =  -0.000000

Finished at 21:1:10 on 27 Apr 2020

  DMA results are available in the Python driver through the
	  variable('DMA DISTRIBUTED MULTIPOLES')
  and
	  variable('DMA TOTAL MULTIPOLES')
  commands.

    Psi4 stopped on: Monday, 27 April 2020 09:01PM
    Psi4 wall time for execution: 0:09:37.90

*** Psi4 exiting successfully. Buy a developer a beer!
