                               Psi4 1.3.2 release

  ==> Input File <==

--------------------------------------------------------------------------
import numpy as np
set {scf_type pk
basis cc-pvdz
d_convergence 10
gdma_switch   0
gdma_limit    0
gdma_origin   [ 0.0,  0.0,  0.0 ]
}
molecule test {
    units Angstrom
    0 1
    --
    0 1
    C                0.541115657441022    -1.259266153189584    -1.392513858457993
    C               -0.755884342558978    -1.960266153189584    -0.987513858457993
    H                0.354115657441022    -0.197266153189584    -1.542513858457993
    H                1.283115657441023    -1.384266153189584    -0.604513858457993
    H                0.917115657441022    -1.695266153189584    -2.317513858457993
    H               -1.124884342558978    -1.526266153189584    -0.058513858457993
    H               -0.550884342558978    -3.018266153188584    -0.830513858457993
    H               -1.554692342558978    -1.874786153189584    -1.738913858457993
    C                0.070115657441022     2.015733846810416     0.523486141542007
    C                0.147115657441022     1.202733846810416     1.854486141542007
    H                0.165115657441022     3.083733846810416     0.735486141542007
    H                0.875115657441022     1.713733846810416    -0.146513858457993
    H               -0.883884342558978     1.836733846810416     0.025486141542007
    H                0.053115657441022     0.133733846810416     1.641486141542007
    H               -0.670926342558978     1.515833846810416     2.519906141542007
    H                1.108255657441022     1.425023846810416     2.341106141542007

}
e, wfn = energy('scf', return_wfn=True)
gdma(wfn)
dmavals = variable('DMA DISTRIBUTED MULTIPOLES')
charges = np.array(dmavals)
print(charges)
np.save('SSI-048ILE-279ILE-1-dimer.npy', np.array(charges))--------------------------------------------------------------------------

*** tstart() called on ds3
*** at Tue Apr 28 14:14:22 2020

   => Loading Basis Set <=

    Name: CC-PVDZ
    Role: ORBITAL
    Keyword: BASIS
    atoms 1-2, 9-10  entry C          line   138 file /theoryfs2/ds/metcalf/miniconda2/envs/tf2gpu/share/psi4/basis/cc-pvdz.gbs
    atoms 3-8, 11-16 entry H          line    22 file /theoryfs2/ds/metcalf/miniconda2/envs/tf2gpu/share/psi4/basis/cc-pvdz.gbs

         ---------------------------------------------------------
                                   SCF
               by Justin Turney, Rob Parrish, Andy Simmonett
                          and Daniel G. A. Smith
                              RHF Reference
                        1 Threads,    500 MiB Core
         ---------------------------------------------------------

  ==> Geometry <==

    Molecular point group: c1
    Full point group: C1

    Geometry (in Angstrom), charge = 0, multiplicity = 1:

       Center              X                  Y                   Z               Mass
    ------------   -----------------  -----------------  -----------------  -----------------
         C            0.541115657441    -1.259266153190    -1.392513858458    12.000000000000
         C           -0.755884342559    -1.960266153190    -0.987513858458    12.000000000000
         H            0.354115657441    -0.197266153190    -1.542513858458     1.007825032230
         H            1.283115657441    -1.384266153190    -0.604513858458     1.007825032230
         H            0.917115657441    -1.695266153190    -2.317513858458     1.007825032230
         H           -1.124884342559    -1.526266153190    -0.058513858458     1.007825032230
         H           -0.550884342559    -3.018266153189    -0.830513858458     1.007825032230
         H           -1.554692342559    -1.874786153190    -1.738913858458     1.007825032230
         C            0.070115657441     2.015733846810     0.523486141542    12.000000000000
         C            0.147115657441     1.202733846810     1.854486141542    12.000000000000
         H            0.165115657441     3.083733846810     0.735486141542     1.007825032230
         H            0.875115657441     1.713733846810    -0.146513858458     1.007825032230
         H           -0.883884342559     1.836733846810     0.025486141542     1.007825032230
         H            0.053115657441     0.133733846810     1.641486141542     1.007825032230
         H           -0.670926342559     1.515833846810     2.519906141542     1.007825032230
         H            1.108255657441     1.425023846810     2.341106141542     1.007825032230

  Running in c1 symmetry.

  Rotational constants: A =      0.34151  B =      0.06347  C =      0.05964 [cm^-1]
  Rotational constants: A =  10238.15590  B =   1902.83234  C =   1788.02673 [MHz]
  Nuclear repulsion =  125.372824718754032

  Charge       = 0
  Multiplicity = 1
  Electrons    = 36
  Nalpha       = 18
  Nbeta        = 18

  ==> Algorithm <==

  SCF Algorithm Type is PK.
  DIIS enabled.
  MOM disabled.
  Fractional occupation disabled.
  Guess Type is SAD.
  Energy threshold   = 1.00e-06
  Density threshold  = 1.00e-10
  Integral threshold = 0.00e+00

  ==> Primary Basis <==

  Basis Set: CC-PVDZ
    Blend: CC-PVDZ
    Number of shells: 60
    Number of basis function: 116
    Number of Cartesian functions: 120
    Spherical Harmonics?: true
    Max angular momentum: 2

  ==> Pre-Iterations <==

   -------------------------------------------------------
    Irrep   Nso     Nmo     Nalpha   Nbeta   Ndocc  Nsocc
   -------------------------------------------------------
     A        116     116       0       0       0       0
   -------------------------------------------------------
    Total     116     116      18      18      18       0
   -------------------------------------------------------

  ==> Integral Setup <==

  Using integral reordering PK algorithm.
  Sizing the integral batches needed.
  Building batch lookup table.
   Calculation information:
      Number of atoms:                  16
      Number of AO shells:              60
      Number of primitives:            148
      Number of atomic orbitals:       120
      Number of basis functions:       116

      Integral cutoff                 1.00e-12
      Number of threads:                 1

	Batch   1 pq = [       0,    6786] index = [             0,23028291] size =     23028291
  Task number: 3
  Buffer size: 11059200
  Buffer per thread: 2
  We computed 1585153 shell quartets total.
  Whereas there are 1675365 unique shell quartets.

  ==> DiskJK: Disk-Based J/K Matrices <==

    J tasked:                  Yes
    K tasked:                  Yes
    wK tasked:                  No
    Memory [MiB]:              375
    Schwarz Cutoff:          1E-12

    OpenMP threads:              1

  Minimum eigenvalue in the overlap matrix is 7.7612584405E-03.
  Using Symmetric Orthogonalization.

  SCF Guess: Superposition of Atomic Densities via on-the-fly atomic UHF.

  ==> Iterations <==

                        Total Energy        Delta E     RMS |[F,P]|

   @RHF iter SAD:  -157.30110661809215   -1.57301e+02   0.00000e+00
   @RHF iter   1:  -158.31083023662066   -1.00972e+00   4.16137e-03 DIIS
   @RHF iter   2:  -158.44177529587341   -1.30945e-01   1.76768e-03 DIIS
   @RHF iter   3:  -158.46452316946852   -2.27479e-02   3.47468e-04 DIIS
   @RHF iter   4:  -158.46632778948151   -1.80462e-03   3.86886e-05 DIIS
   @RHF iter   5:  -158.46635126278130   -2.34733e-05   6.62758e-06 DIIS
   @RHF iter   6:  -158.46635191397777   -6.51196e-07   1.06688e-06 DIIS
   @RHF iter   7:  -158.46635192571264   -1.17349e-08   3.19378e-07 DIIS
   @RHF iter   8:  -158.46635192661441   -9.01764e-10   4.21277e-08 DIIS
   @RHF iter   9:  -158.46635192663706   -2.26521e-11   9.31249e-09 DIIS
   @RHF iter  10:  -158.46635192663882   -1.76215e-12   1.91826e-09 DIIS
   @RHF iter  11:  -158.46635192663979   -9.66338e-13   5.27989e-10 DIIS
   @RHF iter  12:  -158.46635192663888    9.09495e-13   1.75519e-10 DIIS
   @RHF iter  13:  -158.46635192663939   -5.11591e-13   2.40530e-11 DIIS
  Energy and wave function converged.

  ==> Post-Iterations <==

    Orbital Energies [Eh]
    ---------------------

    Doubly Occupied:

       1A    -11.223099     2A    -11.219883     3A    -11.218121
       4A    -11.216999     5A     -1.019236     6A     -1.010414
       7A     -0.840116     8A     -0.837086     9A     -0.607204
      10A     -0.596931    11A     -0.594430    12A     -0.588997
      13A     -0.502457    14A     -0.495571    15A     -0.492048
      16A     -0.488653    17A     -0.484880    18A     -0.481458

    Virtual:

      19A      0.165074    20A      0.208396    21A      0.223124
      22A      0.229194    23A      0.248312    24A      0.260407
      25A      0.263597    26A      0.274559    27A      0.279058
      28A      0.302364    29A      0.313076    30A      0.353092
      31A      0.389421    32A      0.395097    33A      0.563943
      34A      0.589591    35A      0.604534    36A      0.609762
      37A      0.613190    38A      0.654647    39A      0.679940
      40A      0.686971    41A      0.691985    42A      0.790181
      43A      0.825961    44A      0.843906    45A      0.873466
      46A      0.882614    47A      0.886452    48A      0.901968
      49A      0.906169    50A      0.917962    51A      0.920880
      52A      0.924225    53A      0.954507    54A      0.968374
      55A      0.980134    56A      1.002910    57A      1.122542
      58A      1.124661    59A      1.129525    60A      1.153229
      61A      1.237539    62A      1.259620    63A      1.466041
      64A      1.468675    65A      1.470758    66A      1.485652
      67A      1.541892    68A      1.589971    69A      1.677224
      70A      1.684347    71A      1.693247    72A      1.703041
      73A      1.859275    74A      1.863298    75A      1.866915
      76A      1.884288    77A      1.886295    78A      1.898328
      79A      1.932717    80A      1.937943    81A      1.942098
      82A      1.947565    83A      1.951535    84A      1.953692
      85A      1.957175    86A      1.965518    87A      1.969318
      88A      2.029539    89A      2.093296    90A      2.099954
      91A      2.120862    92A      2.126150    93A      2.274950
      94A      2.296898    95A      2.313535    96A      2.323500
      97A      2.444929    98A      2.446207    99A      2.466517
     100A      2.470351   101A      2.556097   102A      2.561726
     103A      2.564796   104A      2.584538   105A      2.762418
     106A      2.771867   107A      2.789560   108A      2.802087
     109A      2.829125   110A      2.839289   111A      2.863635
     112A      2.867129   113A      2.939463   114A      2.943640
     115A      2.963491   116A      2.973995

    Final Occupation by Irrep:
              A
    DOCC [    18 ]

  @RHF Final Energy:  -158.46635192663939

   => Energetics <=

    Nuclear Repulsion Energy =            125.3728247187540319
    One-Electron Energy =                -459.8431894401102795
    Two-Electron Energy =                 176.0040127947168571
    Total Energy =                       -158.4663519266393905

Computation Completed

Properties will be evaluated at   0.000000,   0.000000,   0.000000 [a0]

Properties computed using the SCF density matrix

  Nuclear Dipole Moment: [e a0]
     X:    -0.0275      Y:     0.0119      Z:     0.0229

  Electronic Dipole Moment: [e a0]
     X:     0.0337      Y:    -0.0035      Z:    -0.0256

  Dipole Moment: [e a0]
     X:     0.0062      Y:     0.0084      Z:    -0.0026     Total:     0.0108

  Dipole Moment: [D]
     X:     0.0157      Y:     0.0214      Z:    -0.0067     Total:     0.0274

*** tstop() called on ds3 at Tue Apr 28 14:14:41 2020
Module time:
	user time   =       8.39 seconds =       0.14 minutes
	system time =       2.70 seconds =       0.05 minutes
	total time  =         19 seconds =       0.32 minutes
Total time:
	user time   =       8.39 seconds =       0.14 minutes
	system time =       2.70 seconds =       0.05 minutes
	total time  =         19 seconds =       0.32 minutes
                                     G D M A

                                 by Anthony Stone

                           version 2.2.06, 22 June 2011

               Distributed Multipoles from Gaussian wavefunctions

Starting at 14:14:41 on 28 Apr 2020

Using SCF density matrix from file ./SSI/SSI-048ILE-279ILE-1-dimer.test.10061.fchk

                         Distributed Multipole Analysis

Standard DMA

Positions and radii in angstrom
Multipole moments in atomic units, ea_0^k for rank k

C          x =  0.541116  y = -1.259266  z = -1.392514 angstrom
           Maximum rank =  0   Radius =  0.650 angstrom
                   Q00  =  -0.233839

C          x = -0.755884  y = -1.960266  z = -0.987514 angstrom
           Maximum rank =  0   Radius =  0.650 angstrom
                   Q00  =  -0.243818

H          x =  0.354116  y = -0.197266  z = -1.542514 angstrom
           Maximum rank =  0   Radius =  0.325 angstrom
                   Q00  =   0.082814

H          x =  1.283116  y = -1.384266  z = -0.604514 angstrom
           Maximum rank =  0   Radius =  0.325 angstrom
                   Q00  =   0.079648

H          x =  0.917116  y = -1.695266  z = -2.317514 angstrom
           Maximum rank =  0   Radius =  0.325 angstrom
                   Q00  =   0.079711

H          x = -1.124884  y = -1.526266  z = -0.058514 angstrom
           Maximum rank =  0   Radius =  0.325 angstrom
                   Q00  =   0.077231

H          x = -0.550884  y = -3.018266  z = -0.830514 angstrom
           Maximum rank =  0   Radius =  0.325 angstrom
                   Q00  =   0.078143

H          x = -1.554692  y = -1.874786  z = -1.738914 angstrom
           Maximum rank =  0   Radius =  0.325 angstrom
                   Q00  =   0.080151

C          x =  0.070116  y =  2.015734  z =  0.523486 angstrom
           Maximum rank =  0   Radius =  0.650 angstrom
                   Q00  =  -0.248827

C          x =  0.147116  y =  1.202734  z =  1.854486 angstrom
           Maximum rank =  0   Radius =  0.650 angstrom
                   Q00  =  -0.244581

H          x =  0.165116  y =  3.083734  z =  0.735486 angstrom
           Maximum rank =  0   Radius =  0.325 angstrom
                   Q00  =   0.081983

H          x =  0.875116  y =  1.713734  z = -0.146514 angstrom
           Maximum rank =  0   Radius =  0.325 angstrom
                   Q00  =   0.083487

H          x = -0.883884  y =  1.836734  z =  0.025486 angstrom
           Maximum rank =  0   Radius =  0.325 angstrom
                   Q00  =   0.080571

H          x =  0.053116  y =  0.133734  z =  1.641486 angstrom
           Maximum rank =  0   Radius =  0.325 angstrom
                   Q00  =   0.084954

H          x = -0.670926  y =  1.515834  z =  2.519906 angstrom
           Maximum rank =  0   Radius =  0.325 angstrom
                   Q00  =   0.081116

H          x =  1.108256  y =  1.425024  z =  2.341106 angstrom
           Maximum rank =  0   Radius =  0.325 angstrom
                   Q00  =   0.081255

Total multipoles referred to origin at
           x =   0.000000,  y =    0.000000,  z =    0.000000 angstrom
                   Q00  =  -0.000000

Finished at 14:14:41 on 28 Apr 2020

  DMA results are available in the Python driver through the
	  variable('DMA DISTRIBUTED MULTIPOLES')
  and
	  variable('DMA TOTAL MULTIPOLES')
  commands.

    Psi4 stopped on: Tuesday, 28 April 2020 02:14PM
    Psi4 wall time for execution: 0:00:19.20

*** Psi4 exiting successfully. Buy a developer a beer!
