                               Psi4 1.3.2 release

  ==> Input File <==

--------------------------------------------------------------------------
import numpy as np
set {scf_type pk
basis cc-pvdz
d_convergence 10
gdma_switch   0
gdma_limit    0
gdma_origin   [ 0.0,  0.0,  0.0 ]
}
molecule test {
    units Angstrom
    0 1
    --
    0 1
    C               -0.888124093640295    -1.886693596800668     0.680199388485871
    C                0.474875906359705    -2.099693596800668     1.349199388485871
    H               -0.819124093640295    -1.146693596800668    -0.109800611514129
    H               -1.227124093640295    -2.823693596800668     0.236199388485871
    H               -1.636124093640295    -1.573693596800668     1.409199388485871
    H                0.447875906359705    -3.014693596800667     1.943199388485871
    H                0.733137906359705    -1.245383596800668     1.992204388485871
    H                1.275001906359705    -2.190283596800668     0.599805388485871
    C                0.222875906359705     1.272306403199332    -0.754800611514129
    C                0.181875906359705     2.715306403199332    -1.273800611514129
    H                0.500875906359705     0.589306403199332    -1.558800611514129
    H                0.963875906359705     1.198306403199332     0.041199388485871
    H               -0.755124093640295     1.009306403199332    -0.353800611514129
    H                1.200875906359705     2.981306403199332    -1.541800611514129
    H               -0.433041093640295     2.795446403199332    -2.182350611514129
    H               -0.149941093640295     3.406176403199332    -0.484750611514129

}
e, wfn = energy('scf', return_wfn=True)
gdma(wfn)
dmavals = variable('DMA DISTRIBUTED MULTIPOLES')
charges = np.array(dmavals)
print(charges)
np.save('SSI-031ALA-088VAL-1-dimer.npy', np.array(charges))--------------------------------------------------------------------------

*** tstart() called on ds3
*** at Tue Apr 28 14:24:56 2020

   => Loading Basis Set <=

    Name: CC-PVDZ
    Role: ORBITAL
    Keyword: BASIS
    atoms 1-2, 9-10  entry C          line   138 file /theoryfs2/ds/metcalf/miniconda2/envs/tf2gpu/share/psi4/basis/cc-pvdz.gbs
    atoms 3-8, 11-16 entry H          line    22 file /theoryfs2/ds/metcalf/miniconda2/envs/tf2gpu/share/psi4/basis/cc-pvdz.gbs

         ---------------------------------------------------------
                                   SCF
               by Justin Turney, Rob Parrish, Andy Simmonett
                          and Daniel G. A. Smith
                              RHF Reference
                        1 Threads,    500 MiB Core
         ---------------------------------------------------------

  ==> Geometry <==

    Molecular point group: c1
    Full point group: C1

    Geometry (in Angstrom), charge = 0, multiplicity = 1:

       Center              X                  Y                   Z               Mass
    ------------   -----------------  -----------------  -----------------  -----------------
         C           -0.888124093640    -1.886693596801     0.680199388486    12.000000000000
         C            0.474875906360    -2.099693596801     1.349199388486    12.000000000000
         H           -0.819124093640    -1.146693596801    -0.109800611514     1.007825032230
         H           -1.227124093640    -2.823693596801     0.236199388486     1.007825032230
         H           -1.636124093640    -1.573693596801     1.409199388486     1.007825032230
         H            0.447875906360    -3.014693596801     1.943199388486     1.007825032230
         H            0.733137906360    -1.245383596801     1.992204388486     1.007825032230
         H            1.275001906360    -2.190283596801     0.599805388486     1.007825032230
         C            0.222875906360     1.272306403199    -0.754800611514    12.000000000000
         C            0.181875906360     2.715306403199    -1.273800611514    12.000000000000
         H            0.500875906360     0.589306403199    -1.558800611514     1.007825032230
         H            0.963875906360     1.198306403199     0.041199388486     1.007825032230
         H           -0.755124093640     1.009306403199    -0.353800611514     1.007825032230
         H            1.200875906360     2.981306403199    -1.541800611514     1.007825032230
         H           -0.433041093640     2.795446403199    -2.182350611514     1.007825032230
         H           -0.149941093640     3.406176403199    -0.484750611514     1.007825032230

  Running in c1 symmetry.

  Rotational constants: A =      0.54360  B =      0.05018  C =      0.04772 [cm^-1]
  Rotational constants: A =  16296.59197  B =   1504.44429  C =   1430.58160 [MHz]
  Nuclear repulsion =  123.103926120044960

  Charge       = 0
  Multiplicity = 1
  Electrons    = 36
  Nalpha       = 18
  Nbeta        = 18

  ==> Algorithm <==

  SCF Algorithm Type is PK.
  DIIS enabled.
  MOM disabled.
  Fractional occupation disabled.
  Guess Type is SAD.
  Energy threshold   = 1.00e-06
  Density threshold  = 1.00e-10
  Integral threshold = 0.00e+00

  ==> Primary Basis <==

  Basis Set: CC-PVDZ
    Blend: CC-PVDZ
    Number of shells: 60
    Number of basis function: 116
    Number of Cartesian functions: 120
    Spherical Harmonics?: true
    Max angular momentum: 2

  ==> Pre-Iterations <==

   -------------------------------------------------------
    Irrep   Nso     Nmo     Nalpha   Nbeta   Ndocc  Nsocc
   -------------------------------------------------------
     A        116     116       0       0       0       0
   -------------------------------------------------------
    Total     116     116      18      18      18       0
   -------------------------------------------------------

  ==> Integral Setup <==

  Using integral reordering PK algorithm.
  Sizing the integral batches needed.
  Building batch lookup table.
   Calculation information:
      Number of atoms:                  16
      Number of AO shells:              60
      Number of primitives:            148
      Number of atomic orbitals:       120
      Number of basis functions:       116

      Integral cutoff                 1.00e-12
      Number of threads:                 1

	Batch   1 pq = [       0,    6786] index = [             0,23028291] size =     23028291
  Task number: 3
  Buffer size: 11059200
  Buffer per thread: 2
  We computed 1443498 shell quartets total.
  Whereas there are 1675365 unique shell quartets.

  ==> DiskJK: Disk-Based J/K Matrices <==

    J tasked:                  Yes
    K tasked:                  Yes
    wK tasked:                  No
    Memory [MiB]:              375
    Schwarz Cutoff:          1E-12

    OpenMP threads:              1

  Minimum eigenvalue in the overlap matrix is 6.3041532610E-03.
  Using Symmetric Orthogonalization.

  SCF Guess: Superposition of Atomic Densities via on-the-fly atomic UHF.

  ==> Iterations <==

                        Total Energy        Delta E     RMS |[F,P]|

   @RHF iter SAD:  -157.34885157838542   -1.57349e+02   0.00000e+00
   @RHF iter   1:  -158.30693985315642   -9.58088e-01   4.19349e-03 DIIS
   @RHF iter   2:  -158.43968860279460   -1.32749e-01   1.77762e-03 DIIS
   @RHF iter   3:  -158.46268628147865   -2.29977e-02   3.49125e-04 DIIS
   @RHF iter   4:  -158.46451518393425   -1.82890e-03   3.88260e-05 DIIS
   @RHF iter   5:  -158.46453896010706   -2.37762e-05   6.60898e-06 DIIS
   @RHF iter   6:  -158.46453959383442   -6.33727e-07   1.23919e-06 DIIS
   @RHF iter   7:  -158.46453960867629   -1.48419e-08   3.20699e-07 DIIS
   @RHF iter   8:  -158.46453960964641   -9.70118e-10   4.39650e-08 DIIS
   @RHF iter   9:  -158.46453960967631   -2.98996e-11   9.93814e-09 DIIS
   @RHF iter  10:  -158.46453960967753   -1.22213e-12   2.52983e-09 DIIS
   @RHF iter  11:  -158.46453960967816   -6.25278e-13   8.08576e-10 DIIS
   @RHF iter  12:  -158.46453960967708    1.08002e-12   1.96185e-10 DIIS
   @RHF iter  13:  -158.46453960967784   -7.67386e-13   2.79461e-11 DIIS
  Energy and wave function converged.

  ==> Post-Iterations <==

    Orbital Energies [Eh]
    ---------------------

    Doubly Occupied:

       1A    -11.219450     2A    -11.218513     3A    -11.217971
       4A    -11.214095     5A     -1.019100     6A     -1.014064
       7A     -0.840025     8A     -0.834862     9A     -0.602064
      10A     -0.600153    11A     -0.594407    12A     -0.591672
      13A     -0.502617    14A     -0.499088    15A     -0.491423
      16A     -0.490371    17A     -0.481543    18A     -0.474361

    Virtual:

      19A      0.174411    20A      0.194966    21A      0.227557
      22A      0.233494    23A      0.243348    24A      0.263191
      25A      0.265454    26A      0.275121    27A      0.286159
      28A      0.292164    29A      0.307029    30A      0.333963
      31A      0.390020    32A      0.410584    33A      0.565533
      34A      0.589706    35A      0.598852    36A      0.604989
      37A      0.611405    38A      0.661345    39A      0.677652
      40A      0.704695    41A      0.718048    42A      0.762061
      43A      0.835505    44A      0.860957    45A      0.883440
      46A      0.892280    47A      0.892817    48A      0.899149
      49A      0.906527    50A      0.912235    51A      0.917359
      52A      0.917608    53A      0.943925    54A      0.950253
      55A      0.989178    56A      0.993857    57A      1.117766
      58A      1.122703    59A      1.132922    60A      1.149692
      61A      1.236006    62A      1.265268    63A      1.463282
      64A      1.471156    65A      1.477579    66A      1.498690
      67A      1.565918    68A      1.587447    69A      1.677146
      70A      1.688297    71A      1.690459    72A      1.705663
      73A      1.855975    74A      1.859687    75A      1.868782
      76A      1.882575    77A      1.882823    78A      1.909775
      79A      1.929236    80A      1.932445    81A      1.941507
      82A      1.945245    83A      1.946638    84A      1.953883
      85A      1.961973    86A      1.975140    87A      2.000965
      88A      2.046096    89A      2.092571    90A      2.115014
      91A      2.137620    92A      2.139908    93A      2.290695
      94A      2.300706    95A      2.318919    96A      2.350579
      97A      2.432724    98A      2.454560    99A      2.459862
     100A      2.473937   101A      2.555743   102A      2.575065
     103A      2.579903   104A      2.588238   105A      2.761962
     106A      2.763127   107A      2.784992   108A      2.795791
     109A      2.836967   110A      2.848784   111A      2.856954
     112A      2.869276   113A      2.936482   114A      2.951888
     115A      2.961964   116A      2.983187

    Final Occupation by Irrep:
              A
    DOCC [    18 ]

  @RHF Final Energy:  -158.46453960967784

   => Energetics <=

    Nuclear Repulsion Energy =            123.1039261200449602
    One-Electron Energy =                -455.3253743236006699
    Two-Electron Energy =                 173.7569085938778812
    Total Energy =                       -158.4645396096778427

Computation Completed

Properties will be evaluated at   0.000000,   0.000000,   0.000000 [a0]

Properties computed using the SCF density matrix

  Nuclear Dipole Moment: [e a0]
     X:     0.0948      Y:    -0.0137      Z:    -0.0089

  Electronic Dipole Moment: [e a0]
     X:    -0.0846      Y:     0.0321      Z:    -0.0077

  Dipole Moment: [e a0]
     X:     0.0102      Y:     0.0184      Z:    -0.0166     Total:     0.0268

  Dipole Moment: [D]
     X:     0.0260      Y:     0.0467      Z:    -0.0422     Total:     0.0681

*** tstop() called on ds3 at Tue Apr 28 14:25:07 2020
Module time:
	user time   =       8.12 seconds =       0.14 minutes
	system time =       3.13 seconds =       0.05 minutes
	total time  =         11 seconds =       0.18 minutes
Total time:
	user time   =       8.12 seconds =       0.14 minutes
	system time =       3.13 seconds =       0.05 minutes
	total time  =         11 seconds =       0.18 minutes
                                     G D M A

                                 by Anthony Stone

                           version 2.2.06, 22 June 2011

               Distributed Multipoles from Gaussian wavefunctions

Starting at 14:25:7 on 28 Apr 2020

Using SCF density matrix from file ./SSI/SSI-031ALA-088VAL-1-dimer.test.22683.fchk

                         Distributed Multipole Analysis

Standard DMA

Positions and radii in angstrom
Multipole moments in atomic units, ea_0^k for rank k

C          x = -0.888124  y = -1.886694  z =  0.680199 angstrom
           Maximum rank =  0   Radius =  0.650 angstrom
                   Q00  =  -0.241697

C          x =  0.474876  y = -2.099694  z =  1.349199 angstrom
           Maximum rank =  0   Radius =  0.650 angstrom
                   Q00  =  -0.239420

H          x = -0.819124  y = -1.146694  z = -0.109801 angstrom
           Maximum rank =  0   Radius =  0.325 angstrom
                   Q00  =   0.088907

H          x = -1.227124  y = -2.823694  z =  0.236199 angstrom
           Maximum rank =  0   Radius =  0.325 angstrom
                   Q00  =   0.075564

H          x = -1.636124  y = -1.573694  z =  1.409199 angstrom
           Maximum rank =  0   Radius =  0.325 angstrom
                   Q00  =   0.078468

H          x =  0.447876  y = -3.014694  z =  1.943199 angstrom
           Maximum rank =  0   Radius =  0.325 angstrom
                   Q00  =   0.079433

H          x =  0.733138  y = -1.245384  z =  1.992204 angstrom
           Maximum rank =  0   Radius =  0.325 angstrom
                   Q00  =   0.078009

H          x =  1.275002  y = -2.190284  z =  0.599805 angstrom
           Maximum rank =  0   Radius =  0.325 angstrom
                   Q00  =   0.078074

C          x =  0.222876  y =  1.272306  z = -0.754801 angstrom
           Maximum rank =  0   Radius =  0.650 angstrom
                   Q00  =  -0.242445

C          x =  0.181876  y =  2.715306  z = -1.273801 angstrom
           Maximum rank =  0   Radius =  0.650 angstrom
                   Q00  =  -0.233893

H          x =  0.500876  y =  0.589306  z = -1.558801 angstrom
           Maximum rank =  0   Radius =  0.325 angstrom
                   Q00  =   0.079279

H          x =  0.963876  y =  1.198306  z =  0.041199 angstrom
           Maximum rank =  0   Radius =  0.325 angstrom
                   Q00  =   0.081692

H          x = -0.755124  y =  1.009306  z = -0.353801 angstrom
           Maximum rank =  0   Radius =  0.325 angstrom
                   Q00  =   0.078387

H          x =  1.200876  y =  2.981306  z = -1.541801 angstrom
           Maximum rank =  0   Radius =  0.325 angstrom
                   Q00  =   0.076391

H          x = -0.433041  y =  2.795446  z = -2.182351 angstrom
           Maximum rank =  0   Radius =  0.325 angstrom
                   Q00  =   0.081092

H          x = -0.149941  y =  3.406176  z = -0.484751 angstrom
           Maximum rank =  0   Radius =  0.325 angstrom
                   Q00  =   0.082160

Total multipoles referred to origin at
           x =   0.000000,  y =    0.000000,  z =    0.000000 angstrom
                   Q00  =  -0.000000

Finished at 14:25:7 on 28 Apr 2020

  DMA results are available in the Python driver through the
	  variable('DMA DISTRIBUTED MULTIPOLES')
  and
	  variable('DMA TOTAL MULTIPOLES')
  commands.

    Psi4 stopped on: Tuesday, 28 April 2020 02:25PM
    Psi4 wall time for execution: 0:00:11.37

*** Psi4 exiting successfully. Buy a developer a beer!
