                               Psi4 1.3.2 release

  ==> Input File <==

--------------------------------------------------------------------------
import numpy as np
set {scf_type pk
basis cc-pvdz
d_convergence 10
gdma_switch   0
gdma_limit    0
gdma_origin   [ 0.0,  0.0,  0.0 ]
}
molecule test {
    units Angstrom
    0 1
    --
    0 1
    C                0.405487110902422     1.408731106296149    -0.196468624273060
    C                0.091487110902422     2.797731106296149    -0.681468624273060
    C                1.852487110902422     0.984731106296149    -0.452468624273060
    H                0.229487110902422     1.350731106296149     0.880531375726940
    H               -0.269512889097578     0.711731106296149    -0.693468624273060
    H               -0.008512889097578     2.778731106296149    -1.767468624273060
    H                0.918487110902422     3.462731106296149    -0.430468624273060
    H                2.529487110902422     1.670731106296149     0.070531375726940
    H                2.008487110902422    -0.022268893703851    -0.047468624273060
    H               -0.826682889097578     3.230451106296149    -0.257528624273060
    H                2.058717110902422     0.991361106296149    -1.532943624273059
    C               -0.458512889097578    -2.249268893703851     0.634531375726941
    C               -1.863512889097578    -2.843268893703851     0.682531375726940
    H               -0.059512889097578    -2.104268893703851     1.638531375726940
    H                0.201487110902422    -2.929268893703851     0.095531375726940
    H               -0.481512889097578    -1.300268893703851     0.110531375726940
    H               -1.831512889097578    -3.799268893703851     1.195531375726941
    H               -2.549542889097578    -2.178028893703851     1.227341375726940
    H               -2.246032889097578    -3.037768893703852    -0.330308624273060

}
e, wfn = energy('scf', return_wfn=True)
gdma(wfn)
dmavals = variable('DMA DISTRIBUTED MULTIPOLES')
charges = np.array(dmavals)
print(charges)
np.save('SSI-147LYS-203VAL-1-dimer.npy', np.array(charges))--------------------------------------------------------------------------

*** tstart() called on ds3
*** at Mon Apr 27 22:18:28 2020

   => Loading Basis Set <=

    Name: CC-PVDZ
    Role: ORBITAL
    Keyword: BASIS
    atoms 1-3, 12-13  entry C          line   138 file /theoryfs2/ds/metcalf/miniconda2/envs/tf2gpu/share/psi4/basis/cc-pvdz.gbs
    atoms 4-11, 14-19 entry H          line    22 file /theoryfs2/ds/metcalf/miniconda2/envs/tf2gpu/share/psi4/basis/cc-pvdz.gbs

         ---------------------------------------------------------
                                   SCF
               by Justin Turney, Rob Parrish, Andy Simmonett
                          and Daniel G. A. Smith
                              RHF Reference
                        1 Threads,    500 MiB Core
         ---------------------------------------------------------

  ==> Geometry <==

    Molecular point group: c1
    Full point group: C1

    Geometry (in Angstrom), charge = 0, multiplicity = 1:

       Center              X                  Y                   Z               Mass
    ------------   -----------------  -----------------  -----------------  -----------------
         C            0.405487110902     1.408731106296    -0.196468624273    12.000000000000
         C            0.091487110902     2.797731106296    -0.681468624273    12.000000000000
         C            1.852487110902     0.984731106296    -0.452468624273    12.000000000000
         H            0.229487110902     1.350731106296     0.880531375727     1.007825032230
         H           -0.269512889098     0.711731106296    -0.693468624273     1.007825032230
         H           -0.008512889098     2.778731106296    -1.767468624273     1.007825032230
         H            0.918487110902     3.462731106296    -0.430468624273     1.007825032230
         H            2.529487110902     1.670731106296     0.070531375727     1.007825032230
         H            2.008487110902    -0.022268893704    -0.047468624273     1.007825032230
         H           -0.826682889098     3.230451106296    -0.257528624273     1.007825032230
         H            2.058717110902     0.991361106296    -1.532943624273     1.007825032230
         C           -0.458512889098    -2.249268893704     0.634531375727    12.000000000000
         C           -1.863512889098    -2.843268893704     0.682531375727    12.000000000000
         H           -0.059512889098    -2.104268893704     1.638531375727     1.007825032230
         H            0.201487110902    -2.929268893704     0.095531375727     1.007825032230
         H           -0.481512889098    -1.300268893704     0.110531375727     1.007825032230
         H           -1.831512889098    -3.799268893704     1.195531375727     1.007825032230
         H           -2.549542889098    -2.178028893704     1.227341375727     1.007825032230
         H           -2.246032889098    -3.037768893704    -0.330308624273     1.007825032230

  Running in c1 symmetry.

  Rotational constants: A =      0.24368  B =      0.03684  C =      0.03310 [cm^-1]
  Rotational constants: A =   7305.31758  B =   1104.37209  C =    992.38542 [MHz]
  Nuclear repulsion =  176.412660687595633

  Charge       = 0
  Multiplicity = 1
  Electrons    = 44
  Nalpha       = 22
  Nbeta        = 22

  ==> Algorithm <==

  SCF Algorithm Type is PK.
  DIIS enabled.
  MOM disabled.
  Fractional occupation disabled.
  Guess Type is SAD.
  Energy threshold   = 1.00e-06
  Density threshold  = 1.00e-10
  Integral threshold = 0.00e+00

  ==> Primary Basis <==

  Basis Set: CC-PVDZ
    Blend: CC-PVDZ
    Number of shells: 72
    Number of basis function: 140
    Number of Cartesian functions: 145
    Spherical Harmonics?: true
    Max angular momentum: 2

  ==> Pre-Iterations <==

   -------------------------------------------------------
    Irrep   Nso     Nmo     Nalpha   Nbeta   Ndocc  Nsocc
   -------------------------------------------------------
     A        140     140       0       0       0       0
   -------------------------------------------------------
    Total     140     140      22      22      22       0
   -------------------------------------------------------

  ==> Integral Setup <==

  Using integral reordering PK algorithm.
  Sizing the integral batches needed.
  Building batch lookup table.
   Calculation information:
      Number of atoms:                  19
      Number of AO shells:              72
      Number of primitives:            180
      Number of atomic orbitals:       145
      Number of basis functions:       140

      Integral cutoff                 1.00e-12
      Number of threads:                 1

	Batch   1 pq = [       0,    9405] index = [             0,44231715] size =     44231715
	Batch   2 pq = [    9405,    9870] index = [      44231715,48713385] size =      4481670
  Task number: 5
  Buffer size: 11059200
  Buffer per thread: 2
  We computed 2729720 shell quartets total.
  Whereas there are 3454506 unique shell quartets.

  ==> DiskJK: Disk-Based J/K Matrices <==

    J tasked:                  Yes
    K tasked:                  Yes
    wK tasked:                  No
    Memory [MiB]:              375
    Schwarz Cutoff:          1E-12

    OpenMP threads:              1

  Minimum eigenvalue in the overlap matrix is 4.9324414528E-03.
  Using Symmetric Orthogonalization.

  SCF Guess: Superposition of Atomic Densities via on-the-fly atomic UHF.

  ==> Iterations <==

                        Total Energy        Delta E     RMS |[F,P]|

   @RHF iter SAD:  -196.40636979084249   -1.96406e+02   0.00000e+00
   @RHF iter   1:  -197.30948753345859   -9.03118e-01   3.82729e-03 DIIS
   @RHF iter   2:  -197.47085773988729   -1.61370e-01   1.65886e-03 DIIS
   @RHF iter   3:  -197.49985815790393   -2.90004e-02   3.28137e-04 DIIS
   @RHF iter   4:  -197.50210963385211   -2.25148e-03   5.06038e-05 DIIS
   @RHF iter   5:  -197.50215099542956   -4.13616e-05   1.53404e-05 DIIS
   @RHF iter   6:  -197.50215460940871   -3.61398e-06   2.45438e-06 DIIS
   @RHF iter   7:  -197.50215471875174   -1.09343e-07   4.62924e-07 DIIS
   @RHF iter   8:  -197.50215472298402   -4.23228e-09   1.19743e-07 DIIS
   @RHF iter   9:  -197.50215472324862   -2.64606e-10   3.48697e-08 DIIS
   @RHF iter  10:  -197.50215472327710   -2.84786e-11   7.30941e-09 DIIS
   @RHF iter  11:  -197.50215472327756   -4.54747e-13   1.42163e-09 DIIS
   @RHF iter  12:  -197.50215472327832   -7.67386e-13   2.74678e-10 DIIS
   @RHF iter  13:  -197.50215472327832    0.00000e+00   5.49999e-11 DIIS
  Energy and wave function converged.

  ==> Post-Iterations <==

    Orbital Energies [Eh]
    ---------------------

    Doubly Occupied:

       1A    -11.218425     2A    -11.218104     3A    -11.217827
       4A    -11.215152     5A    -11.214141     6A     -1.057680
       7A     -1.018328     8A     -0.924952     9A     -0.837652
      10A     -0.795311    11A     -0.629694    12A     -0.602091
      13A     -0.596974    14A     -0.593451    15A     -0.545886
      16A     -0.532997    17A     -0.501732    18A     -0.487616
      19A     -0.485623    20A     -0.476703    21A     -0.465299
      22A     -0.463373

    Virtual:

      23A      0.173520    24A      0.193183    25A      0.214813
      26A      0.229864    27A      0.235821    28A      0.248012
      29A      0.256185    30A      0.266765    31A      0.275278
      32A      0.284867    33A      0.285807    34A      0.300107
      35A      0.306484    36A      0.359275    37A      0.386188
      38A      0.411896    39A      0.433744    40A      0.569814
      41A      0.589849    42A      0.597476    43A      0.601374
      44A      0.611492    45A      0.621171    46A      0.639324
      47A      0.655193    48A      0.698606    49A      0.755950
      50A      0.790716    51A      0.811421    52A      0.852501
      53A      0.864286    54A      0.882696    55A      0.887855
      56A      0.892707    57A      0.894629    58A      0.897519
      59A      0.899341    60A      0.899652    61A      0.912432
      62A      0.918148    63A      0.927809    64A      0.946741
      65A      0.952813    66A      0.973947    67A      0.988365
      68A      1.044757    69A      1.119217    70A      1.126014
      71A      1.129241    72A      1.136585    73A      1.202864
      74A      1.290555    75A      1.384502    76A      1.468258
      77A      1.475418    78A      1.479861    79A      1.503256
      80A      1.531012    81A      1.599125    82A      1.616520
      83A      1.670479    84A      1.681653    85A      1.687737
      86A      1.704585    87A      1.715218    88A      1.844005
      89A      1.865395    90A      1.868385    91A      1.876429
      92A      1.890210    93A      1.907794    94A      1.921681
      95A      1.930161    96A      1.937096    97A      1.939841
      98A      1.947036    99A      1.949737   100A      1.961745
     101A      1.963344   102A      1.983452   103A      1.988784
     104A      2.007745   105A      2.025898   106A      2.037182
     107A      2.051450   108A      2.099533   109A      2.114518
     110A      2.140498   111A      2.178664   112A      2.278883
     113A      2.303734   114A      2.310537   115A      2.326332
     116A      2.337678   117A      2.350612   118A      2.459534
     119A      2.471596   120A      2.486070   121A      2.534491
     122A      2.555442   123A      2.564138   124A      2.589990
     125A      2.611848   126A      2.648005   127A      2.750140
     128A      2.761023   129A      2.767443   130A      2.785071
     131A      2.799740   132A      2.824125   133A      2.862239
     134A      2.870469   135A      2.908769   136A      2.946851
     137A      2.960613   138A      2.969427   139A      3.000007
     140A      3.063574

    Final Occupation by Irrep:
              A
    DOCC [    22 ]

  @RHF Final Energy:  -197.50215472327832

   => Energetics <=

    Nuclear Repulsion Energy =            176.4126606875956327
    One-Electron Energy =                -613.6316093150421693
    Two-Electron Energy =                 239.7167939041682132
    Total Energy =                       -197.5021547232783234

Computation Completed

Properties will be evaluated at   0.000000,   0.000000,   0.000000 [a0]

Properties computed using the SCF density matrix

  Nuclear Dipole Moment: [e a0]
     X:    -0.3062      Y:    -1.1012      Z:     0.1489

  Electronic Dipole Moment: [e a0]
     X:     0.3013      Y:     1.0920      Z:    -0.1353

  Dipole Moment: [e a0]
     X:    -0.0049      Y:    -0.0093      Z:     0.0136     Total:     0.0172

  Dipole Moment: [D]
     X:    -0.0125      Y:    -0.0235      Z:     0.0346     Total:     0.0437

*** tstop() called on ds3 at Mon Apr 27 22:18:48 2020
Module time:
	user time   =      14.43 seconds =       0.24 minutes
	system time =       6.00 seconds =       0.10 minutes
	total time  =         20 seconds =       0.33 minutes
Total time:
	user time   =      14.43 seconds =       0.24 minutes
	system time =       6.00 seconds =       0.10 minutes
	total time  =         20 seconds =       0.33 minutes
                                     G D M A

                                 by Anthony Stone

                           version 2.2.06, 22 June 2011

               Distributed Multipoles from Gaussian wavefunctions

Starting at 22:18:48 on 27 Apr 2020

Using SCF density matrix from file ./SSI/SSI-147LYS-203VAL-1-dimer.test.6807.fchk

                         Distributed Multipole Analysis

Standard DMA

Positions and radii in angstrom
Multipole moments in atomic units, ea_0^k for rank k

C          x =  0.405487  y =  1.408731  z = -0.196469 angstrom
           Maximum rank =  0   Radius =  0.650 angstrom
                   Q00  =  -0.076540

C          x =  0.091487  y =  2.797731  z = -0.681469 angstrom
           Maximum rank =  0   Radius =  0.650 angstrom
                   Q00  =  -0.230673

C          x =  1.852487  y =  0.984731  z = -0.452469 angstrom
           Maximum rank =  0   Radius =  0.650 angstrom
                   Q00  =  -0.244787

H          x =  0.229487  y =  1.350731  z =  0.880531 angstrom
           Maximum rank =  0   Radius =  0.325 angstrom
                   Q00  =   0.042783

H          x = -0.269513  y =  0.711731  z = -0.693469 angstrom
           Maximum rank =  0   Radius =  0.325 angstrom
                   Q00  =   0.039889

H          x = -0.008513  y =  2.778731  z = -1.767469 angstrom
           Maximum rank =  0   Radius =  0.325 angstrom
                   Q00  =   0.075030

H          x =  0.918487  y =  3.462731  z = -0.430469 angstrom
           Maximum rank =  0   Radius =  0.325 angstrom
                   Q00  =   0.071183

H          x =  2.529487  y =  1.670731  z =  0.070531 angstrom
           Maximum rank =  0   Radius =  0.325 angstrom
                   Q00  =   0.078000

H          x =  2.008487  y = -0.022269  z = -0.047469 angstrom
           Maximum rank =  0   Radius =  0.325 angstrom
                   Q00  =   0.087845

H          x = -0.826683  y =  3.230451  z = -0.257529 angstrom
           Maximum rank =  0   Radius =  0.325 angstrom
                   Q00  =   0.084540

H          x =  2.058717  y =  0.991361  z = -1.532944 angstrom
           Maximum rank =  0   Radius =  0.325 angstrom
                   Q00  =   0.075173

C          x = -0.458513  y = -2.249269  z =  0.634531 angstrom
           Maximum rank =  0   Radius =  0.650 angstrom
                   Q00  =  -0.234098

C          x = -1.863513  y = -2.843269  z =  0.682531 angstrom
           Maximum rank =  0   Radius =  0.650 angstrom
                   Q00  =  -0.244665

H          x = -0.059513  y = -2.104269  z =  1.638531 angstrom
           Maximum rank =  0   Radius =  0.325 angstrom
                   Q00  =   0.079721

H          x =  0.201487  y = -2.929269  z =  0.095531 angstrom
           Maximum rank =  0   Radius =  0.325 angstrom
                   Q00  =   0.076695

H          x = -0.481513  y = -1.300269  z =  0.110531 angstrom
           Maximum rank =  0   Radius =  0.325 angstrom
                   Q00  =   0.084191

H          x = -1.831513  y = -3.799269  z =  1.195531 angstrom
           Maximum rank =  0   Radius =  0.325 angstrom
                   Q00  =   0.078595

H          x = -2.549543  y = -2.178029  z =  1.227341 angstrom
           Maximum rank =  0   Radius =  0.325 angstrom
                   Q00  =   0.078659

H          x = -2.246033  y = -3.037769  z = -0.330309 angstrom
           Maximum rank =  0   Radius =  0.325 angstrom
                   Q00  =   0.078459

Total multipoles referred to origin at
           x =   0.000000,  y =    0.000000,  z =    0.000000 angstrom
                   Q00  =  -0.000000

Finished at 22:18:48 on 27 Apr 2020

  DMA results are available in the Python driver through the
	  variable('DMA DISTRIBUTED MULTIPOLES')
  and
	  variable('DMA TOTAL MULTIPOLES')
  commands.

    Psi4 stopped on: Monday, 27 April 2020 10:18PM
    Psi4 wall time for execution: 0:00:20.13

*** Psi4 exiting successfully. Buy a developer a beer!
