                               Psi4 1.3.2 release

  ==> Input File <==

--------------------------------------------------------------------------
import numpy as np
set {scf_type pk
basis cc-pvdz
d_convergence 10
gdma_switch   0
gdma_limit    0
gdma_origin   [ 0.0,  0.0,  0.0 ]
}
molecule test {
    units Angstrom
    0 1
    --
    0 1
    C               -0.629081465040889     0.977700533723304     1.657602598370560
    C               -0.833081465040889     2.171700533723304     2.581602598370561
    H               -1.560081465040889     0.421700533723304     1.538602598370560
    H               -0.328081465040889     1.345700533723304     0.680602598370560
    H                0.140918534959111     0.316700533723304     2.051602598370561
    H               -1.683081465040889     2.722700533723303     2.199602598370561
    H               -1.053141465040889     1.842340533723304     3.607806598370561
    H                0.052258534959111     2.824510533723304     2.585213598370561
    C                0.604918534959111    -0.541299466276696    -1.629397401629440
    C                1.518918534959111    -1.284299466276696    -0.645397401629439
    C               -0.618081465040889    -1.360299466276696    -2.071397401629440
    H                0.263918534959111     0.375700533723304    -1.158397401629440
    H                1.187918534959111    -0.269299466276696    -2.510397401629439
    H                0.928918534959111    -1.601299466276696     0.218602598370560
    H               -0.269081465040889    -2.295299466276696    -2.496397401629439
    H               -1.240081465040889    -1.582299466276696    -1.202397401629440
    H                2.339688534959111    -0.637859466276696    -0.301227901629440
    H                1.919198534959111    -2.196329466276696    -1.112271301629439
    H               -1.218321465040889    -0.832399466276696    -2.827068401629439

}
e, wfn = energy('scf', return_wfn=True)
gdma(wfn)
dmavals = variable('DMA DISTRIBUTED MULTIPOLES')
charges = np.array(dmavals)
print(charges)
np.save('SSI-025VAL-185ARG-1-dimer.npy', np.array(charges))--------------------------------------------------------------------------

*** tstart() called on ds3
*** at Tue Apr 28 12:55:42 2020

   => Loading Basis Set <=

    Name: CC-PVDZ
    Role: ORBITAL
    Keyword: BASIS
    atoms 1-2, 9-11  entry C          line   138 file /theoryfs2/ds/metcalf/miniconda2/envs/tf2gpu/share/psi4/basis/cc-pvdz.gbs
    atoms 3-8, 12-19 entry H          line    22 file /theoryfs2/ds/metcalf/miniconda2/envs/tf2gpu/share/psi4/basis/cc-pvdz.gbs

         ---------------------------------------------------------
                                   SCF
               by Justin Turney, Rob Parrish, Andy Simmonett
                          and Daniel G. A. Smith
                              RHF Reference
                        1 Threads,    500 MiB Core
         ---------------------------------------------------------

  ==> Geometry <==

    Molecular point group: c1
    Full point group: C1

    Geometry (in Angstrom), charge = 0, multiplicity = 1:

       Center              X                  Y                   Z               Mass
    ------------   -----------------  -----------------  -----------------  -----------------
         C           -0.629081465041     0.977700533723     1.657602598371    12.000000000000
         C           -0.833081465041     2.171700533723     2.581602598371    12.000000000000
         H           -1.560081465041     0.421700533723     1.538602598371     1.007825032230
         H           -0.328081465041     1.345700533723     0.680602598371     1.007825032230
         H            0.140918534959     0.316700533723     2.051602598371     1.007825032230
         H           -1.683081465041     2.722700533723     2.199602598371     1.007825032230
         H           -1.053141465041     1.842340533723     3.607806598371     1.007825032230
         H            0.052258534959     2.824510533723     2.585213598371     1.007825032230
         C            0.604918534959    -0.541299466277    -1.629397401629    12.000000000000
         C            1.518918534959    -1.284299466277    -0.645397401629    12.000000000000
         C           -0.618081465041    -1.360299466277    -2.071397401629    12.000000000000
         H            0.263918534959     0.375700533723    -1.158397401629     1.007825032230
         H            1.187918534959    -0.269299466277    -2.510397401629     1.007825032230
         H            0.928918534959    -1.601299466277     0.218602598371     1.007825032230
         H           -0.269081465041    -2.295299466277    -2.496397401629     1.007825032230
         H           -1.240081465041    -1.582299466277    -1.202397401629     1.007825032230
         H            2.339688534959    -0.637859466277    -0.301227901629     1.007825032230
         H            1.919198534959    -2.196329466277    -1.112271301629     1.007825032230
         H           -1.218321465041    -0.832399466277    -2.827068401629     1.007825032230

  Running in c1 symmetry.

  Rotational constants: A =      0.23182  B =      0.03976  C =      0.03635 [cm^-1]
  Rotational constants: A =   6949.90378  B =   1192.03606  C =   1089.71379 [MHz]
  Nuclear repulsion =  178.206322927599558

  Charge       = 0
  Multiplicity = 1
  Electrons    = 44
  Nalpha       = 22
  Nbeta        = 22

  ==> Algorithm <==

  SCF Algorithm Type is PK.
  DIIS enabled.
  MOM disabled.
  Fractional occupation disabled.
  Guess Type is SAD.
  Energy threshold   = 1.00e-06
  Density threshold  = 1.00e-10
  Integral threshold = 0.00e+00

  ==> Primary Basis <==

  Basis Set: CC-PVDZ
    Blend: CC-PVDZ
    Number of shells: 72
    Number of basis function: 140
    Number of Cartesian functions: 145
    Spherical Harmonics?: true
    Max angular momentum: 2

  ==> Pre-Iterations <==

   -------------------------------------------------------
    Irrep   Nso     Nmo     Nalpha   Nbeta   Ndocc  Nsocc
   -------------------------------------------------------
     A        140     140       0       0       0       0
   -------------------------------------------------------
    Total     140     140      22      22      22       0
   -------------------------------------------------------

  ==> Integral Setup <==

  Using integral reordering PK algorithm.
  Sizing the integral batches needed.
  Building batch lookup table.
   Calculation information:
      Number of atoms:                  19
      Number of AO shells:              72
      Number of primitives:            180
      Number of atomic orbitals:       145
      Number of basis functions:       140

      Integral cutoff                 1.00e-12
      Number of threads:                 1

	Batch   1 pq = [       0,    9405] index = [             0,44231715] size =     44231715
	Batch   2 pq = [    9405,    9870] index = [      44231715,48713385] size =      4481670
  Task number: 5
  Buffer size: 11059200
  Buffer per thread: 2
  We computed 2893513 shell quartets total.
  Whereas there are 3454506 unique shell quartets.

  ==> DiskJK: Disk-Based J/K Matrices <==

    J tasked:                  Yes
    K tasked:                  Yes
    wK tasked:                  No
    Memory [MiB]:              375
    Schwarz Cutoff:          1E-12

    OpenMP threads:              1

  Minimum eigenvalue in the overlap matrix is 5.7739272867E-03.
  Using Symmetric Orthogonalization.

  SCF Guess: Superposition of Atomic Densities via on-the-fly atomic UHF.

  ==> Iterations <==

                        Total Energy        Delta E     RMS |[F,P]|

   @RHF iter SAD:  -196.35439504883192   -1.96354e+02   0.00000e+00
   @RHF iter   1:  -197.31299096311591   -9.58596e-01   3.79301e-03 DIIS
   @RHF iter   2:  -197.47258049434427   -1.59590e-01   1.62814e-03 DIIS
   @RHF iter   3:  -197.50061926017244   -2.80388e-02   3.24354e-04 DIIS
   @RHF iter   4:  -197.50281955404736   -2.20029e-03   4.80035e-05 DIIS
   @RHF iter   5:  -197.50285718650014   -3.76325e-05   1.49219e-05 DIIS
   @RHF iter   6:  -197.50286052315164   -3.33665e-06   2.30582e-06 DIIS
   @RHF iter   7:  -197.50286062113165   -9.79800e-08   4.36456e-07 DIIS
   @RHF iter   8:  -197.50286062489818   -3.76653e-09   1.14653e-07 DIIS
   @RHF iter   9:  -197.50286062514522   -2.47041e-10   3.44631e-08 DIIS
   @RHF iter  10:  -197.50286062517210   -2.68869e-11   7.63231e-09 DIIS
   @RHF iter  11:  -197.50286062517398   -1.87583e-12   1.49989e-09 DIIS
   @RHF iter  12:  -197.50286062517375    2.27374e-13   2.93337e-10 DIIS
   @RHF iter  13:  -197.50286062517381   -5.68434e-14   5.75098e-11 DIIS
  Energy and wave function converged.

  ==> Post-Iterations <==

    Orbital Energies [Eh]
    ---------------------

    Doubly Occupied:

       1A    -11.218866     2A    -11.218361     3A    -11.217447
       4A    -11.216334     5A    -11.216104     6A     -1.049928
       7A     -1.020875     8A     -0.922719     9A     -0.837288
      10A     -0.796793    11A     -0.624832    12A     -0.601988
      13A     -0.598563    14A     -0.593127    15A     -0.546607
      16A     -0.529678    17A     -0.501833    18A     -0.489106
      19A     -0.485812    20A     -0.473174    21A     -0.466482
      22A     -0.464273

    Virtual:

      23A      0.171213    24A      0.193622    25A      0.220513
      26A      0.223125    27A      0.231101    28A      0.254340
      29A      0.260144    30A      0.266438    31A      0.277559
      32A      0.281976    33A      0.293693    34A      0.298462
      35A      0.323892    36A      0.357176    37A      0.391222
      38A      0.402685    39A      0.428595    40A      0.569415
      41A      0.575758    42A      0.592940    43A      0.598874
      44A      0.611750    45A      0.620284    46A      0.630926
      47A      0.676987    48A      0.690951    49A      0.741506
      50A      0.798726    51A      0.815414    52A      0.846182
      53A      0.851996    54A      0.870597    55A      0.884179
      56A      0.891928    57A      0.897405    58A      0.902317
      59A      0.907192    60A      0.911122    61A      0.917776
      62A      0.927249    63A      0.935637    64A      0.944278
      65A      0.965588    66A      0.979714    67A      0.993524
      68A      1.006579    69A      1.122319    70A      1.123411
      71A      1.131572    72A      1.146296    73A      1.207092
      74A      1.257855    75A      1.363444    76A      1.470313
      77A      1.478037    78A      1.483523    79A      1.499805
      80A      1.525520    81A      1.592645    82A      1.622534
      83A      1.680104    84A      1.680974    85A      1.689071
      86A      1.693552    87A      1.696506    88A      1.838225
      89A      1.851472    90A      1.869165    91A      1.874764
      92A      1.892365    93A      1.909322    94A      1.922620
      95A      1.934337    96A      1.941827    97A      1.944979
      98A      1.951915    99A      1.955994   100A      1.966848
     101A      1.972556   102A      1.979899   103A      1.982751
     104A      1.988872   105A      2.010176   106A      2.029429
     107A      2.061586   108A      2.100740   109A      2.120774
     110A      2.128348   111A      2.159200   112A      2.287773
     113A      2.298349   114A      2.304075   115A      2.317717
     116A      2.326287   117A      2.343379   118A      2.454643
     119A      2.471697   120A      2.495820   121A      2.528415
     122A      2.562485   123A      2.583049   124A      2.593458
     125A      2.611701   126A      2.626592   127A      2.756325
     128A      2.762656   129A      2.766665   130A      2.787410
     131A      2.798657   132A      2.807607   133A      2.853306
     134A      2.860637   135A      2.928861   136A      2.948006
     137A      2.963341   138A      2.970291   139A      2.980657
     140A      3.065649

    Final Occupation by Irrep:
              A
    DOCC [    22 ]

  @RHF Final Energy:  -197.50286062517381

   => Energetics <=

    Nuclear Repulsion Energy =            178.2063229275995582
    One-Electron Energy =                -617.2379839687407639
    Two-Electron Energy =                 241.5288004159673960
    Total Energy =                       -197.5028606251738097

Computation Completed

Properties will be evaluated at   0.000000,   0.000000,   0.000000 [a0]

Properties computed using the SCF density matrix

  Nuclear Dipole Moment: [e a0]
     X:    -0.4866      Y:     0.4074      Z:     1.1942

  Electronic Dipole Moment: [e a0]
     X:     0.4787      Y:    -0.3762      Z:    -1.1988

  Dipole Moment: [e a0]
     X:    -0.0079      Y:     0.0312      Z:    -0.0046     Total:     0.0325

  Dipole Moment: [D]
     X:    -0.0201      Y:     0.0794      Z:    -0.0116     Total:     0.0827

*** tstop() called on ds3 at Tue Apr 28 12:56:33 2020
Module time:
	user time   =      15.08 seconds =       0.25 minutes
	system time =       5.97 seconds =       0.10 minutes
	total time  =         51 seconds =       0.85 minutes
Total time:
	user time   =      15.08 seconds =       0.25 minutes
	system time =       5.97 seconds =       0.10 minutes
	total time  =         51 seconds =       0.85 minutes
                                     G D M A

                                 by Anthony Stone

                           version 2.2.06, 22 June 2011

               Distributed Multipoles from Gaussian wavefunctions

Starting at 12:56:33 on 28 Apr 2020

Using SCF density matrix from file ./SSI/SSI-025VAL-185ARG-1-dimer.test.15595.fchk

                         Distributed Multipole Analysis

Standard DMA

Positions and radii in angstrom
Multipole moments in atomic units, ea_0^k for rank k

C          x = -0.629081  y =  0.977701  z =  1.657603 angstrom
           Maximum rank =  0   Radius =  0.650 angstrom
                   Q00  =  -0.239773

C          x = -0.833081  y =  2.171701  z =  2.581603 angstrom
           Maximum rank =  0   Radius =  0.650 angstrom
                   Q00  =  -0.232234

H          x = -1.560081  y =  0.421701  z =  1.538603 angstrom
           Maximum rank =  0   Radius =  0.325 angstrom
                   Q00  =   0.078981

H          x = -0.328081  y =  1.345701  z =  0.680603 angstrom
           Maximum rank =  0   Radius =  0.325 angstrom
                   Q00  =   0.077686

H          x =  0.140919  y =  0.316701  z =  2.051603 angstrom
           Maximum rank =  0   Radius =  0.325 angstrom
                   Q00  =   0.080563

H          x = -1.683081  y =  2.722701  z =  2.199603 angstrom
           Maximum rank =  0   Radius =  0.325 angstrom
                   Q00  =   0.078172

H          x = -1.053141  y =  1.842341  z =  3.607807 angstrom
           Maximum rank =  0   Radius =  0.325 angstrom
                   Q00  =   0.078309

H          x =  0.052259  y =  2.824511  z =  2.585214 angstrom
           Maximum rank =  0   Radius =  0.325 angstrom
                   Q00  =   0.079525

C          x =  0.604919  y = -0.541299  z = -1.629397 angstrom
           Maximum rank =  0   Radius =  0.650 angstrom
                   Q00  =  -0.085599

C          x =  1.518919  y = -1.284299  z = -0.645397 angstrom
           Maximum rank =  0   Radius =  0.650 angstrom
                   Q00  =  -0.247625

C          x = -0.618081  y = -1.360299  z = -2.071397 angstrom
           Maximum rank =  0   Radius =  0.650 angstrom
                   Q00  =  -0.244050

H          x =  0.263919  y =  0.375701  z = -1.158397 angstrom
           Maximum rank =  0   Radius =  0.325 angstrom
                   Q00  =   0.050673

H          x =  1.187919  y = -0.269299  z = -2.510397 angstrom
           Maximum rank =  0   Radius =  0.325 angstrom
                   Q00  =   0.046054

H          x =  0.928919  y = -1.601299  z =  0.218603 angstrom
           Maximum rank =  0   Radius =  0.325 angstrom
                   Q00  =   0.076351

H          x = -0.269081  y = -2.295299  z = -2.496397 angstrom
           Maximum rank =  0   Radius =  0.325 angstrom
                   Q00  =   0.076705

H          x = -1.240081  y = -1.582299  z = -1.202397 angstrom
           Maximum rank =  0   Radius =  0.325 angstrom
                   Q00  =   0.077595

H          x =  2.339689  y = -0.637859  z = -0.301228 angstrom
           Maximum rank =  0   Radius =  0.325 angstrom
                   Q00  =   0.086471

H          x =  1.919199  y = -2.196329  z = -1.112271 angstrom
           Maximum rank =  0   Radius =  0.325 angstrom
                   Q00  =   0.076352

H          x = -1.218321  y = -0.832399  z = -2.827068 angstrom
           Maximum rank =  0   Radius =  0.325 angstrom
                   Q00  =   0.085843

Total multipoles referred to origin at
           x =   0.000000,  y =    0.000000,  z =    0.000000 angstrom
                   Q00  =  -0.000000

Finished at 12:56:33 on 28 Apr 2020

  DMA results are available in the Python driver through the
	  variable('DMA DISTRIBUTED MULTIPOLES')
  and
	  variable('DMA TOTAL MULTIPOLES')
  commands.

    Psi4 stopped on: Tuesday, 28 April 2020 12:56PM
    Psi4 wall time for execution: 0:00:50.79

*** Psi4 exiting successfully. Buy a developer a beer!
