                               Psi4 1.3.2 release

  ==> Input File <==

--------------------------------------------------------------------------
import numpy as np
set {scf_type pk
basis cc-pvdz
d_convergence 10
gdma_switch   0
gdma_limit    0
gdma_origin   [ 0.0,  0.0,  0.0 ]
}
molecule test {
    units Angstrom
    0 1
    --
    0 1
    C               -0.351799959651839     2.322213638857123    -2.582892725916729
    C               -0.474799959651839     0.954213638857123    -1.934892725916729
    O               -1.417799959651839     0.690213638857123    -1.194892725916729
    N                0.471200040348161     0.072213638857123    -2.209892725916729
    H               -1.234799959651839     2.434213638857123    -3.205892725916729
    H                0.521200040348161     2.366213638857123    -3.234892725916729
    H                0.401200040348161    -0.834786361142877    -1.775892725916729
    H                1.285200040348161     0.319213638857123    -2.758892725916728
    H               -0.288448959651839     3.125613638857123    -1.834203725916729
    C               -0.418799959651839     0.280213638857123     1.756107274083271
    C                1.299200040348161    -1.499786361142877     2.944107274083271
    S                0.373200040348161    -1.295786361142877     1.421107274083271
    H                0.074200040348161     0.788213638857123     2.584107274083271
    H               -0.328799959651839     0.930213638857123     0.892107274083271
    H               -1.470799959651839     0.124213638857123     1.992107274083271
    H                2.059200040348161    -0.719786361142877     2.972107274083271
    H                1.798200040348161    -2.469786361142877     2.950107274083271
    H                0.658220040348161    -1.404396361142877     3.832957274083272

}
e, wfn = energy('scf', return_wfn=True)
gdma(wfn)
dmavals = variable('DMA DISTRIBUTED MULTIPOLES')
charges = np.array(dmavals)
print(charges)
np.save('SSI-022GLN-046MET-1-dimer.npy', np.array(charges))--------------------------------------------------------------------------

*** tstart() called on ds3
*** at Mon Apr 27 13:41:16 2020

   => Loading Basis Set <=

    Name: CC-PVDZ
    Role: ORBITAL
    Keyword: BASIS
    atoms 1-2, 10-11 entry C          line   138 file /theoryfs2/ds/metcalf/miniconda2/envs/tf2gpu/share/psi4/basis/cc-pvdz.gbs
    atoms 3          entry O          line   198 file /theoryfs2/ds/metcalf/miniconda2/envs/tf2gpu/share/psi4/basis/cc-pvdz.gbs
    atoms 4          entry N          line   168 file /theoryfs2/ds/metcalf/miniconda2/envs/tf2gpu/share/psi4/basis/cc-pvdz.gbs
    atoms 5-9, 13-18 entry H          line    22 file /theoryfs2/ds/metcalf/miniconda2/envs/tf2gpu/share/psi4/basis/cc-pvdz.gbs
    atoms 12         entry S          line   598 file /theoryfs2/ds/metcalf/miniconda2/envs/tf2gpu/share/psi4/basis/cc-pvdz.gbs

         ---------------------------------------------------------
                                   SCF
               by Justin Turney, Rob Parrish, Andy Simmonett
                          and Daniel G. A. Smith
                              RHF Reference
                        1 Threads,    500 MiB Core
         ---------------------------------------------------------

  ==> Geometry <==

    Molecular point group: c1
    Full point group: C1

    Geometry (in Angstrom), charge = 0, multiplicity = 1:

       Center              X                  Y                   Z               Mass
    ------------   -----------------  -----------------  -----------------  -----------------
         C           -0.351799959652     2.322213638857    -2.582892725917    12.000000000000
         C           -0.474799959652     0.954213638857    -1.934892725917    12.000000000000
         O           -1.417799959652     0.690213638857    -1.194892725917    15.994914619570
         N            0.471200040348     0.072213638857    -2.209892725917    14.003074004430
         H           -1.234799959652     2.434213638857    -3.205892725917     1.007825032230
         H            0.521200040348     2.366213638857    -3.234892725917     1.007825032230
         H            0.401200040348    -0.834786361143    -1.775892725917     1.007825032230
         H            1.285200040348     0.319213638857    -2.758892725917     1.007825032230
         H           -0.288448959652     3.125613638857    -1.834203725917     1.007825032230
         C           -0.418799959652     0.280213638857     1.756107274083    12.000000000000
         C            1.299200040348    -1.499786361143     2.944107274083    12.000000000000
         S            0.373200040348    -1.295786361143     1.421107274083    31.972071174400
         H            0.074200040348     0.788213638857     2.584107274083     1.007825032230
         H           -0.328799959652     0.930213638857     0.892107274083     1.007825032230
         H           -1.470799959652     0.124213638857     1.992107274083     1.007825032230
         H            2.059200040348    -0.719786361143     2.972107274083     1.007825032230
         H            1.798200040348    -2.469786361143     2.950107274083     1.007825032230
         H            0.658220040348    -1.404396361143     3.832957274083     1.007825032230

  Running in c1 symmetry.

  Rotational constants: A =      0.15056  B =      0.02406  C =      0.02264 [cm^-1]
  Rotational constants: A =   4513.69960  B =    721.39493  C =    678.68260 [MHz]
  Nuclear repulsion =  362.208923118723987

  Charge       = 0
  Multiplicity = 1
  Electrons    = 66
  Nalpha       = 33
  Nbeta        = 33

  ==> Algorithm <==

  SCF Algorithm Type is PK.
  DIIS enabled.
  MOM disabled.
  Fractional occupation disabled.
  Guess Type is SAD.
  Energy threshold   = 1.00e-06
  Density threshold  = 1.00e-10
  Integral threshold = 0.00e+00

  ==> Primary Basis <==

  Basis Set: CC-PVDZ
    Blend: CC-PVDZ
    Number of shells: 77
    Number of basis function: 157
    Number of Cartesian functions: 164
    Spherical Harmonics?: true
    Max angular momentum: 2

  ==> Pre-Iterations <==

   -------------------------------------------------------
    Irrep   Nso     Nmo     Nalpha   Nbeta   Ndocc  Nsocc
   -------------------------------------------------------
     A        157     157       0       0       0       0
   -------------------------------------------------------
    Total     157     157      33      33      33       0
   -------------------------------------------------------

  ==> Integral Setup <==

  Using integral reordering PK algorithm.
  Sizing the integral batches needed.
  Building batch lookup table.
   Calculation information:
      Number of atoms:                  18
      Number of AO shells:              77
      Number of primitives:            237
      Number of atomic orbitals:       164
      Number of basis functions:       157

      Integral cutoff                 1.00e-12
      Number of threads:                 1

	Batch   1 pq = [       0,    9405] index = [             0,44231715] size =     44231715
	Batch   2 pq = [    9405,   12403] index = [      44231715,76923406] size =     32691691
  Task number: 7
  Buffer size: 11059200
  Buffer per thread: 2
  We computed 3463778 shell quartets total.
  Whereas there are 4510506 unique shell quartets.

  ==> DiskJK: Disk-Based J/K Matrices <==

    J tasked:                  Yes
    K tasked:                  Yes
    wK tasked:                  No
    Memory [MiB]:              375
    Schwarz Cutoff:          1E-12

    OpenMP threads:              1

  Minimum eigenvalue in the overlap matrix is 4.4654175358E-03.
  Using Symmetric Orthogonalization.

  SCF Guess: Superposition of Atomic Densities via on-the-fly atomic UHF.

  ==> Iterations <==

                        Total Energy        Delta E     RMS |[F,P]|

   @RHF iter SAD:  -683.53189975969565   -6.83532e+02   0.00000e+00
   @RHF iter   1:  -684.53718403208586   -1.00528e+00   3.91233e-03 DIIS
   @RHF iter   2:  -684.70115635023672   -1.63972e-01   2.16506e-03 DIIS
   @RHF iter   3:  -684.74462938694410   -4.34730e-02   4.88088e-04 DIIS
   @RHF iter   4:  -684.74814525176828   -3.51586e-03   1.77153e-04 DIIS
   @RHF iter   5:  -684.74865842635074   -5.13175e-04   3.07114e-05 DIIS
   @RHF iter   6:  -684.74868538764292   -2.69613e-05   1.31536e-05 DIIS
   @RHF iter   7:  -684.74868988613366   -4.49849e-06   4.99700e-06 DIIS
   @RHF iter   8:  -684.74869079605924   -9.09926e-07   1.87129e-06 DIIS
   @RHF iter   9:  -684.74869092507481   -1.29016e-07   4.68213e-07 DIIS
   @RHF iter  10:  -684.74869093211782   -7.04301e-09   1.55959e-07 DIIS
   @RHF iter  11:  -684.74869093279710   -6.79279e-10   4.22786e-08 DIIS
   @RHF iter  12:  -684.74869093284542   -4.83169e-11   1.01339e-08 DIIS
   @RHF iter  13:  -684.74869093285065   -5.22959e-12   2.33219e-09 DIIS
   @RHF iter  14:  -684.74869093285201   -1.36424e-12   9.79055e-10 DIIS
   @RHF iter  15:  -684.74869093284667    5.34328e-12   3.79051e-10 DIIS
   @RHF iter  16:  -684.74869093284747   -7.95808e-13   1.58010e-10 DIIS
   @RHF iter  17:  -684.74869093284769   -2.27374e-13   7.31911e-11 DIIS
  Energy and wave function converged.

  ==> Post-Iterations <==

    Orbital Energies [Eh]
    ---------------------

    Doubly Occupied:

       1A    -91.924524     2A    -20.502221     3A    -15.587084
       4A    -11.347530     5A    -11.249056     6A    -11.243307
       7A    -11.233399     8A     -8.928747     9A     -6.610873
      10A     -6.609330    11A     -6.607093    12A     -1.369407
      13A     -1.215885    14A     -1.053492    15A     -1.000407
      16A     -0.938176    17A     -0.798457    18A     -0.794365
      19A     -0.725905    20A     -0.655777    21A     -0.616941
      22A     -0.594029    23A     -0.587696    24A     -0.570038
      25A     -0.555952    26A     -0.555680    27A     -0.552591
      28A     -0.522025    29A     -0.483963    30A     -0.420428
      31A     -0.409581    32A     -0.401719    33A     -0.319900

    Virtual:

      34A      0.163680    35A      0.187199    36A      0.196398
      37A      0.209222    38A      0.214284    39A      0.228329
      40A      0.251508    41A      0.258381    42A      0.259306
      43A      0.275020    44A      0.276843    45A      0.291070
      46A      0.320243    47A      0.326458    48A      0.383478
      49A      0.479694    50A      0.548296    51A      0.564815
      52A      0.591194    53A      0.604008    54A      0.616896
      55A      0.634518    56A      0.643668    57A      0.670491
      58A      0.687525    59A      0.712798    60A      0.716155
      61A      0.737608    62A      0.752917    63A      0.764112
      64A      0.804103    65A      0.818145    66A      0.833517
      67A      0.854214    68A      0.858121    69A      0.868211
      70A      0.881229    71A      0.888357    72A      0.890268
      73A      0.895530    74A      0.900660    75A      0.909555
      76A      0.930007    77A      0.936529    78A      0.949475
      79A      0.953889    80A      1.007336    81A      1.029618
      82A      1.034911    83A      1.065419    84A      1.129735
      85A      1.151660    86A      1.184504    87A      1.264408
      88A      1.314393    89A      1.327495    90A      1.346581
      91A      1.365030    92A      1.376747    93A      1.382693
      94A      1.415322    95A      1.422343    96A      1.442447
      97A      1.447934    98A      1.492386    99A      1.508986
     100A      1.541971   101A      1.633607   102A      1.657841
     103A      1.672742   104A      1.715842   105A      1.745865
     106A      1.829651   107A      1.845410   108A      1.878651
     109A      1.885744   110A      1.889110   111A      1.904226
     112A      1.909879   113A      1.914219   114A      1.920038
     115A      1.935532   116A      1.957822   117A      1.977956
     118A      2.001002   119A      2.008575   120A      2.022516
     121A      2.040864   122A      2.068917   123A      2.092739
     124A      2.109893   125A      2.121553   126A      2.222565
     127A      2.229638   128A      2.266599   129A      2.312351
     130A      2.415884   131A      2.423202   132A      2.427468
     133A      2.441723   134A      2.461855   135A      2.463967
     136A      2.486177   137A      2.541357   138A      2.580143
     139A      2.643799   140A      2.740886   141A      2.748251
     142A      2.773683   143A      2.777481   144A      2.790003
     145A      2.796927   146A      2.801240   147A      2.826405
     148A      2.839055   149A      2.881151   150A      2.977909
     151A      3.100508   152A      3.131842   153A      3.282703
     154A      3.507743   155A      3.527244   156A      3.873390
     157A      3.923742

    Final Occupation by Irrep:
              A
    DOCC [    33 ]

  @RHF Final Energy:  -684.74869093284769

   => Energetics <=

    Nuclear Repulsion Energy =            362.2089231187239875
    One-Electron Energy =               -1659.9440711946647298
    Two-Electron Energy =                 612.9864571430930482
    Total Energy =                       -684.7486909328476941

Computation Completed

Properties will be evaluated at   0.000000,   0.000000,   0.000000 [a0]

Properties computed using the SCF density matrix

  Nuclear Dipole Moment: [e a0]
     X:     3.2590      Y:     4.3367      Z:     2.3010

  Electronic Dipole Moment: [e a0]
     X:    -1.8817      Y:    -3.7768      Z:    -2.8090

  Dipole Moment: [e a0]
     X:     1.3773      Y:     0.5599      Z:    -0.5080     Total:     1.5712

  Dipole Moment: [D]
     X:     3.5008      Y:     1.4232      Z:    -1.2912     Total:     3.9935

*** tstop() called on ds3 at Mon Apr 27 13:42:11 2020
Module time:
	user time   =      38.71 seconds =       0.65 minutes
	system time =      17.42 seconds =       0.29 minutes
	total time  =         55 seconds =       0.92 minutes
Total time:
	user time   =      38.71 seconds =       0.65 minutes
	system time =      17.42 seconds =       0.29 minutes
	total time  =         55 seconds =       0.92 minutes
                                     G D M A

                                 by Anthony Stone

                           version 2.2.06, 22 June 2011

               Distributed Multipoles from Gaussian wavefunctions

Starting at 13:42:11 on 27 Apr 2020

Using SCF density matrix from file ./SSI/SSI-022GLN-046MET-1-dimer.test.7506.fchk

                         Distributed Multipole Analysis

Standard DMA

Positions and radii in angstrom
Multipole moments in atomic units, ea_0^k for rank k

C          x = -0.351800  y =  2.322214  z = -2.582893 angstrom
           Maximum rank =  0   Radius =  0.650 angstrom
                   Q00  =  -0.260164

C          x = -0.474800  y =  0.954214  z = -1.934893 angstrom
           Maximum rank =  0   Radius =  0.650 angstrom
                   Q00  =   0.806289

O          x = -1.417800  y =  0.690214  z = -1.194893 angstrom
           Maximum rank =  0   Radius =  0.650 angstrom
                   Q00  =  -0.788506

N          x =  0.471200  y =  0.072214  z = -2.209893 angstrom
           Maximum rank =  0   Radius =  0.650 angstrom
                   Q00  =  -0.522046

H          x = -1.234800  y =  2.434214  z = -3.205893 angstrom
           Maximum rank =  0   Radius =  0.325 angstrom
                   Q00  =   0.134432

H          x =  0.521200  y =  2.366214  z = -3.234893 angstrom
           Maximum rank =  0   Radius =  0.325 angstrom
                   Q00  =   0.073110

H          x =  0.401200  y = -0.834786  z = -1.775893 angstrom
           Maximum rank =  0   Radius =  0.325 angstrom
                   Q00  =   0.232634

H          x =  1.285200  y =  0.319214  z = -2.758893 angstrom
           Maximum rank =  0   Radius =  0.325 angstrom
                   Q00  =   0.209562

H          x = -0.288449  y =  3.125614  z = -1.834204 angstrom
           Maximum rank =  0   Radius =  0.325 angstrom
                   Q00  =   0.130127

C          x = -0.418800  y =  0.280214  z =  1.756107 angstrom
           Maximum rank =  0   Radius =  0.650 angstrom
                   Q00  =  -0.337858

C          x =  1.299200  y = -1.499786  z =  2.944107 angstrom
           Maximum rank =  0   Radius =  0.650 angstrom
                   Q00  =  -0.348355

S          x =  0.373200  y = -1.295786  z =  1.421107 angstrom
           Maximum rank =  0   Radius =  0.650 angstrom
                   Q00  =   0.082660

H          x =  0.074200  y =  0.788214  z =  2.584107 angstrom
           Maximum rank =  0   Radius =  0.325 angstrom
                   Q00  =   0.078395

H          x = -0.328800  y =  0.930214  z =  0.892107 angstrom
           Maximum rank =  0   Radius =  0.325 angstrom
                   Q00  =   0.125302

H          x = -1.470800  y =  0.124214  z =  1.992107 angstrom
           Maximum rank =  0   Radius =  0.325 angstrom
                   Q00  =   0.102804

H          x =  2.059200  y = -0.719786  z =  2.972107 angstrom
           Maximum rank =  0   Radius =  0.325 angstrom
                   Q00  =   0.077732

H          x =  1.798200  y = -2.469786  z =  2.950107 angstrom
           Maximum rank =  0   Radius =  0.325 angstrom
                   Q00  =   0.114746

H          x =  0.658220  y = -1.404396  z =  3.832957 angstrom
           Maximum rank =  0   Radius =  0.325 angstrom
                   Q00  =   0.089136

Total multipoles referred to origin at
           x =   0.000000,  y =    0.000000,  z =    0.000000 angstrom
                   Q00  =  -0.000000

Finished at 13:42:11 on 27 Apr 2020

  DMA results are available in the Python driver through the
	  variable('DMA DISTRIBUTED MULTIPOLES')
  and
	  variable('DMA TOTAL MULTIPOLES')
  commands.

    Psi4 stopped on: Monday, 27 April 2020 01:42PM
    Psi4 wall time for execution: 0:00:54.67

*** Psi4 exiting successfully. Buy a developer a beer!
