                               Psi4 1.3.2 release

  ==> Input File <==

--------------------------------------------------------------------------
import numpy as np
set {scf_type pk
basis cc-pvdz
d_convergence 10
gdma_switch   0
gdma_limit    0
gdma_origin   [ 0.0,  0.0,  0.0 ]
}
molecule test {
    units Angstrom
    0 1
    --
    0 1
    C                0.602271168402617     0.129468721379508     1.844011960834373
    C                0.034271168402617    -0.150531278620492     3.201011960834373
    C               -0.371728831597383    -0.075531278620492     0.707011960834373
    C               -1.145728831597383     0.989468721379508     0.229011960834373
    C               -0.473728831597383    -1.309531278620492     0.090011960834373
    C               -1.989728831597383     0.793468721379508    -0.866988039165627
    C               -1.343728831597383    -1.501531278620492    -1.013988039165627
    C               -2.045728831597383    -0.420531278620492    -1.513988039165627
    H                0.944271168402617     1.165468721379508     1.816011960834373
    H                1.473271168402617    -0.507531278620492     1.695011960834373
    H               -0.871728831597383     0.437468721379508     3.347011960834373
    H               -1.099728831597383     1.947468721379508     0.710011960834373
    H                0.121271168402617    -2.138531278620492     0.446011960834373
    H               -2.561728831597383     1.626468721379508    -1.247988039165627
    H               -1.404728831597383    -2.451531278620492    -1.513988039165627
    H               -2.679728831597384    -0.540531278620492    -2.381988039165627
    H                0.812461168402617     0.093498721379508     3.939161960834373
    H               -0.184768831597383    -1.223881278620492     3.300701960834373
    C                2.770271168402616     0.792468721379508    -0.654988039165627
    C                2.981271168402616     0.555468721379508    -2.157988039165627
    H                3.695271168402616     1.115468721379508    -0.193988039165627
    H                1.997271168402617     1.545468721379508    -0.506988039165627
    H                2.459271168402617    -0.142531278620492    -0.199988039165627
    H                2.012271168402617     0.260468721379508    -2.563988039165627
    H                3.675891168402617    -0.285241278620492    -2.301928039165627
    H                3.307101168402617     1.447368721379508    -2.713268039165627

}
e, wfn = energy('scf', return_wfn=True)
gdma(wfn)
dmavals = variable('DMA DISTRIBUTED MULTIPOLES')
charges = np.array(dmavals)
print(charges)
np.save('SSI-184PHE-228VAL-1-dimer.npy', np.array(charges))--------------------------------------------------------------------------

*** tstart() called on ds3
*** at Mon Apr 27 00:06:03 2020

   => Loading Basis Set <=

    Name: CC-PVDZ
    Role: ORBITAL
    Keyword: BASIS
    atoms 1-8, 19-20  entry C          line   138 file /theoryfs2/ds/metcalf/miniconda2/envs/tf2gpu/share/psi4/basis/cc-pvdz.gbs
    atoms 9-18, 21-26 entry H          line    22 file /theoryfs2/ds/metcalf/miniconda2/envs/tf2gpu/share/psi4/basis/cc-pvdz.gbs

         ---------------------------------------------------------
                                   SCF
               by Justin Turney, Rob Parrish, Andy Simmonett
                          and Daniel G. A. Smith
                              RHF Reference
                        1 Threads,    500 MiB Core
         ---------------------------------------------------------

  ==> Geometry <==

    Molecular point group: c1
    Full point group: C1

    Geometry (in Angstrom), charge = 0, multiplicity = 1:

       Center              X                  Y                   Z               Mass
    ------------   -----------------  -----------------  -----------------  -----------------
         C            0.602271168403     0.129468721380     1.844011960834    12.000000000000
         C            0.034271168403    -0.150531278620     3.201011960834    12.000000000000
         C           -0.371728831597    -0.075531278620     0.707011960834    12.000000000000
         C           -1.145728831597     0.989468721380     0.229011960834    12.000000000000
         C           -0.473728831597    -1.309531278620     0.090011960834    12.000000000000
         C           -1.989728831597     0.793468721380    -0.866988039166    12.000000000000
         C           -1.343728831597    -1.501531278620    -1.013988039166    12.000000000000
         C           -2.045728831597    -0.420531278620    -1.513988039166    12.000000000000
         H            0.944271168403     1.165468721380     1.816011960834     1.007825032230
         H            1.473271168403    -0.507531278620     1.695011960834     1.007825032230
         H           -0.871728831597     0.437468721380     3.347011960834     1.007825032230
         H           -1.099728831597     1.947468721380     0.710011960834     1.007825032230
         H            0.121271168403    -2.138531278620     0.446011960834     1.007825032230
         H           -2.561728831597     1.626468721380    -1.247988039166     1.007825032230
         H           -1.404728831597    -2.451531278620    -1.513988039166     1.007825032230
         H           -2.679728831597    -0.540531278620    -2.381988039166     1.007825032230
         H            0.812461168403     0.093498721380     3.939161960834     1.007825032230
         H           -0.184768831597    -1.223881278620     3.300701960834     1.007825032230
         C            2.770271168403     0.792468721380    -0.654988039166    12.000000000000
         C            2.981271168403     0.555468721380    -2.157988039166    12.000000000000
         H            3.695271168403     1.115468721380    -0.193988039166     1.007825032230
         H            1.997271168403     1.545468721380    -0.506988039166     1.007825032230
         H            2.459271168403    -0.142531278620    -0.199988039166     1.007825032230
         H            2.012271168403     0.260468721380    -2.563988039166     1.007825032230
         H            3.675891168403    -0.285241278620    -2.301928039166     1.007825032230
         H            3.307101168403     1.447368721380    -2.713268039166     1.007825032230

  Running in c1 symmetry.

  Rotational constants: A =      0.03838  B =      0.03159  C =      0.02147 [cm^-1]
  Rotational constants: A =   1150.71704  B =    947.17398  C =    643.67410 [MHz]
  Nuclear repulsion =  503.592964731893119

  Charge       = 0
  Multiplicity = 1
  Electrons    = 76
  Nalpha       = 38
  Nbeta        = 38

  ==> Algorithm <==

  SCF Algorithm Type is PK.
  DIIS enabled.
  MOM disabled.
  Fractional occupation disabled.
  Guess Type is SAD.
  Energy threshold   = 1.00e-06
  Density threshold  = 1.00e-10
  Integral threshold = 0.00e+00

  ==> Primary Basis <==

  Basis Set: CC-PVDZ
    Blend: CC-PVDZ
    Number of shells: 108
    Number of basis function: 220
    Number of Cartesian functions: 230
    Spherical Harmonics?: true
    Max angular momentum: 2

  ==> Pre-Iterations <==

   -------------------------------------------------------
    Irrep   Nso     Nmo     Nalpha   Nbeta   Ndocc  Nsocc
   -------------------------------------------------------
     A        220     220       0       0       0       0
   -------------------------------------------------------
    Total     220     220      38      38      38       0
   -------------------------------------------------------

  ==> Integral Setup <==

  Using integral reordering PK algorithm.
  Sizing the integral batches needed.
  Building batch lookup table.
   Calculation information:
      Number of atoms:                  26
      Number of AO shells:             108
      Number of primitives:            300
      Number of atomic orbitals:       230
      Number of basis functions:       220

      Integral cutoff                 1.00e-12
      Number of threads:                 1

	Batch   1 pq = [       0,    9405] index = [             0,44231715] size =     44231715
	Batch   2 pq = [    9405,   13301] index = [      44231715,88464951] size =     44233236
	Batch   3 pq = [   13301,   16290] index = [      88464951,132690195] size =     44225244
	Batch   4 pq = [   16290,   18810] index = [     132690195,176917455] size =     44227260
	Batch   5 pq = [   18810,   21030] index = [     176917455,221140965] size =     44223510
	Batch   6 pq = [   21030,   23037] index = [     221140965,265363203] size =     44222238
	Batch   7 pq = [   23037,   24310] index = [     265363203,295500205] size =     30137002
  Task number: 27
  Buffer size: 11059200
  Buffer per thread: 2
  We computed 17436852 shell quartets total.
  Whereas there are 17325441 unique shell quartets.
     0.64 percent of shell quartets recomputed by reordering.

  ==> DiskJK: Disk-Based J/K Matrices <==

    J tasked:                  Yes
    K tasked:                  Yes
    wK tasked:                  No
    Memory [MiB]:              375
    Schwarz Cutoff:          1E-12

    OpenMP threads:              1

  Minimum eigenvalue in the overlap matrix is 3.2507959592E-04.
  Using Symmetric Orthogonalization.

  SCF Guess: Superposition of Atomic Densities via on-the-fly atomic UHF.

  ==> Iterations <==

                        Total Energy        Delta E     RMS |[F,P]|

   @RHF iter SAD:  -386.95385735495512   -3.86954e+02   0.00000e+00
   @RHF iter   1:  -387.76934120629784   -8.15484e-01   2.74070e-03 DIIS
   @RHF iter   2:  -387.98615985402051   -2.16819e-01   1.14170e-03 DIIS
   @RHF iter   3:  -388.02062552481561   -3.44657e-02   2.49117e-04 DIIS
   @RHF iter   4:  -388.02349079984219   -2.86528e-03   5.63573e-05 DIIS
   @RHF iter   5:  -388.02358754279186   -9.67429e-05   2.10578e-05 DIIS
   @RHF iter   6:  -388.02360153450905   -1.39917e-05   4.13401e-06 DIIS
   @RHF iter   7:  -388.02360231132462   -7.76816e-07   1.40077e-06 DIIS
   @RHF iter   8:  -388.02360241447508   -1.03150e-07   4.92789e-07 DIIS
   @RHF iter   9:  -388.02360244583838   -3.13633e-08   2.31535e-07 DIIS
   @RHF iter  10:  -388.02360245450666   -8.66828e-09   1.04139e-07 DIIS
   @RHF iter  11:  -388.02360245596077   -1.45411e-09   2.86980e-08 DIIS
   @RHF iter  12:  -388.02360245603688   -7.61133e-11   1.21441e-08 DIIS
   @RHF iter  13:  -388.02360245604609   -9.20863e-12   5.11537e-09 DIIS
   @RHF iter  14:  -388.02360245604888   -2.78533e-12   1.51296e-09 DIIS
   @RHF iter  15:  -388.02360245604604    2.84217e-12   6.86064e-10 DIIS
   @RHF iter  16:  -388.02360245604842   -2.38742e-12   3.24168e-10 DIIS
   @RHF iter  17:  -388.02360245604558    2.84217e-12   1.07195e-10 DIIS
   @RHF iter  18:  -388.02360245604643   -8.52651e-13   3.83506e-11 DIIS
  Energy and wave function converged.

  ==> Post-Iterations <==

    Orbital Energies [Eh]
    ---------------------

    Doubly Occupied:

       1A    -11.237559     2A    -11.237260     3A    -11.234319
       4A    -11.232490     5A    -11.231778     6A    -11.229248
       7A    -11.225474     8A    -11.220768     9A    -11.212769
      10A    -11.209314    11A     -1.154366    12A     -1.068586
      13A     -1.010666    14A     -1.008271    15A     -0.988410
      16A     -0.858428    17A     -0.831120    18A     -0.829502
      19A     -0.782514    20A     -0.692551    21A     -0.642234
      22A     -0.636786    23A     -0.596811    24A     -0.593923
      25A     -0.589862    26A     -0.587444    27A     -0.576800
      28A     -0.543589    29A     -0.521383    30A     -0.501283
      31A     -0.491495    32A     -0.484784    33A     -0.482181
      34A     -0.476297    35A     -0.472041    36A     -0.463367
      37A     -0.329011    38A     -0.325540

    Virtual:

      39A      0.131010    40A      0.141089    41A      0.176345
      42A      0.199129    43A      0.201234    44A      0.206929
      45A      0.230367    46A      0.239268    47A      0.241135
      48A      0.262303    49A      0.263261    50A      0.266175
      51A      0.277888    52A      0.286258    53A      0.295977
      54A      0.299760    55A      0.309199    56A      0.341082
      57A      0.348356    58A      0.380738    59A      0.404853
      60A      0.415467    61A      0.451482    62A      0.469065
      63A      0.491903    64A      0.497771    65A      0.570229
      66A      0.575506    67A      0.583354    68A      0.603798
      69A      0.607884    70A      0.625410    71A      0.636592
      72A      0.644184    73A      0.678835    74A      0.698199
      75A      0.704586    76A      0.722648    77A      0.734269
      78A      0.743424    79A      0.746664    80A      0.748717
      81A      0.751268    82A      0.774353    83A      0.786082
      84A      0.806729    85A      0.833048    86A      0.845488
      87A      0.853927    88A      0.866750    89A      0.882370
      90A      0.886095    91A      0.890675    92A      0.898166
      93A      0.902479    94A      0.909163    95A      0.909708
      96A      0.915354    97A      0.928053    98A      0.935777
      99A      0.942869   100A      0.948281   101A      0.957054
     102A      0.968551   103A      0.986086   104A      1.000416
     105A      1.004457   106A      1.025119   107A      1.036795
     108A      1.079202   109A      1.111619   110A      1.135144
     111A      1.138347   112A      1.143970   113A      1.162766
     114A      1.168684   115A      1.196079   116A      1.222156
     117A      1.243278   118A      1.250089   119A      1.259489
     120A      1.267003   121A      1.294781   122A      1.300356
     123A      1.319197   124A      1.333669   125A      1.406028
     126A      1.438109   127A      1.449108   128A      1.469892
     129A      1.491496   130A      1.516895   131A      1.545403
     132A      1.605107   133A      1.617696   134A      1.620138
     135A      1.675040   136A      1.684743   137A      1.693947
     138A      1.701793   139A      1.724615   140A      1.758269
     141A      1.768362   142A      1.787222   143A      1.848333
     144A      1.860242   145A      1.863155   146A      1.871729
     147A      1.876634   148A      1.881226   149A      1.892837
     150A      1.898315   151A      1.907379   152A      1.920892
     153A      1.924870   154A      1.937929   155A      1.942572
     156A      1.943803   157A      1.949027   158A      1.960020
     159A      1.965637   160A      1.971451   161A      1.985267
     162A      1.996451   163A      2.000530   164A      2.008148
     165A      2.015335   166A      2.030538   167A      2.045956
     168A      2.059281   169A      2.068556   170A      2.094164
     171A      2.115245   172A      2.140260   173A      2.143886
     174A      2.155600   175A      2.164954   176A      2.167797
     177A      2.176641   178A      2.200112   179A      2.256526
     180A      2.260659   181A      2.276310   182A      2.303625
     183A      2.310496   184A      2.320600   185A      2.329594
     186A      2.355726   187A      2.398842   188A      2.444028
     189A      2.476188   190A      2.484252   191A      2.487503
     192A      2.503599   193A      2.510570   194A      2.546747
     195A      2.568008   196A      2.579574   197A      2.601975
     198A      2.653133   199A      2.748882   200A      2.767289
     201A      2.768229   202A      2.775310   203A      2.785894
     204A      2.807582   205A      2.820274   206A      2.845551
     207A      2.850013   208A      2.871811   209A      2.878955
     210A      2.920706   211A      2.962953   212A      2.970598
     213A      2.978480   214A      2.994455   215A      3.025005
     216A      3.062050   217A      3.186616   218A      3.205097
     219A      3.311177   220A      3.965206

    Final Occupation by Irrep:
              A
    DOCC [    38 ]

  @RHF Final Energy:  -388.02360245604643

   => Energetics <=

    Nuclear Repulsion Energy =            503.5929647318931188
    One-Electron Energy =               -1521.6126904466977976
    Two-Electron Energy =                 629.9961232587583027
    Total Energy =                       -388.0236024560464330

Computation Completed

Properties will be evaluated at   0.000000,   0.000000,   0.000000 [a0]

Properties computed using the SCF density matrix

  Nuclear Dipole Moment: [e a0]
     X:    10.9646      Y:     2.2025      Z:     1.5279

  Electronic Dipole Moment: [e a0]
     X:   -10.9407      Y:    -2.1983      Z:    -1.4422

  Dipole Moment: [e a0]
     X:     0.0239      Y:     0.0042      Z:     0.0857     Total:     0.0891

  Dipole Moment: [D]
     X:     0.0608      Y:     0.0107      Z:     0.2179     Total:     0.2264

*** tstop() called on ds3 at Mon Apr 27 00:10:50 2020
Module time:
	user time   =     123.75 seconds =       2.06 minutes
	system time =      42.09 seconds =       0.70 minutes
	total time  =        287 seconds =       4.78 minutes
Total time:
	user time   =     123.75 seconds =       2.06 minutes
	system time =      42.09 seconds =       0.70 minutes
	total time  =        287 seconds =       4.78 minutes
                                     G D M A

                                 by Anthony Stone

                           version 2.2.06, 22 June 2011

               Distributed Multipoles from Gaussian wavefunctions

Starting at 0:10:50 on 27 Apr 2020

Using SCF density matrix from file ./SSI/SSI-184PHE-228VAL-1-dimer.test.7571.fchk

                         Distributed Multipole Analysis

Standard DMA

Positions and radii in angstrom
Multipole moments in atomic units, ea_0^k for rank k

C          x =  0.602271  y =  0.129469  z =  1.844012 angstrom
           Maximum rank =  0   Radius =  0.650 angstrom
                   Q00  =  -0.019621

C          x =  0.034271  y = -0.150531  z =  3.201012 angstrom
           Maximum rank =  0   Radius =  0.650 angstrom
                   Q00  =  -0.225330

C          x = -0.371729  y = -0.075531  z =  0.707012 angstrom
           Maximum rank =  0   Radius =  0.650 angstrom
                   Q00  =  -0.113179

C          x = -1.145729  y =  0.989469  z =  0.229012 angstrom
           Maximum rank =  0   Radius =  0.650 angstrom
                   Q00  =  -0.090826

C          x = -0.473729  y = -1.309531  z =  0.090012 angstrom
           Maximum rank =  0   Radius =  0.650 angstrom
                   Q00  =  -0.072815

C          x = -1.989729  y =  0.793469  z = -0.866988 angstrom
           Maximum rank =  0   Radius =  0.650 angstrom
                   Q00  =   0.030045

C          x = -1.343729  y = -1.501531  z = -1.013988 angstrom
           Maximum rank =  0   Radius =  0.650 angstrom
                   Q00  =  -0.080785

C          x = -2.045729  y = -0.420531  z = -1.513988 angstrom
           Maximum rank =  0   Radius =  0.650 angstrom
                   Q00  =  -0.087870

H          x =  0.944271  y =  1.165469  z =  1.816012 angstrom
           Maximum rank =  0   Radius =  0.325 angstrom
                   Q00  =   0.061022

H          x =  1.473271  y = -0.507531  z =  1.695012 angstrom
           Maximum rank =  0   Radius =  0.325 angstrom
                   Q00  =   0.060139

H          x = -0.871729  y =  0.437469  z =  3.347012 angstrom
           Maximum rank =  0   Radius =  0.325 angstrom
                   Q00  =   0.083523

H          x = -1.099729  y =  1.947469  z =  0.710012 angstrom
           Maximum rank =  0   Radius =  0.325 angstrom
                   Q00  =   0.058440

H          x =  0.121271  y = -2.138531  z =  0.446012 angstrom
           Maximum rank =  0   Radius =  0.325 angstrom
                   Q00  =   0.056512

H          x = -2.561729  y =  1.626469  z = -1.247988 angstrom
           Maximum rank =  0   Radius =  0.325 angstrom
                   Q00  =   0.062159

H          x = -1.404729  y = -2.451531  z = -1.513988 angstrom
           Maximum rank =  0   Radius =  0.325 angstrom
                   Q00  =   0.067586

H          x = -2.679729  y = -0.540531  z = -2.381988 angstrom
           Maximum rank =  0   Radius =  0.325 angstrom
                   Q00  =   0.059962

H          x =  0.812461  y =  0.093499  z =  3.939162 angstrom
           Maximum rank =  0   Radius =  0.325 angstrom
                   Q00  =   0.077641

H          x = -0.184769  y = -1.223881  z =  3.300702 angstrom
           Maximum rank =  0   Radius =  0.325 angstrom
                   Q00  =   0.078327

C          x =  2.770271  y =  0.792469  z = -0.654988 angstrom
           Maximum rank =  0   Radius =  0.650 angstrom
                   Q00  =  -0.240042

C          x =  2.981271  y =  0.555469  z = -2.157988 angstrom
           Maximum rank =  0   Radius =  0.650 angstrom
                   Q00  =  -0.235691

H          x =  3.695271  y =  1.115469  z = -0.193988 angstrom
           Maximum rank =  0   Radius =  0.325 angstrom
                   Q00  =   0.073654

H          x =  1.997271  y =  1.545469  z = -0.506988 angstrom
           Maximum rank =  0   Radius =  0.325 angstrom
                   Q00  =   0.081291

H          x =  2.459271  y = -0.142531  z = -0.199988 angstrom
           Maximum rank =  0   Radius =  0.325 angstrom
                   Q00  =   0.078704

H          x =  2.012271  y =  0.260469  z = -2.563988 angstrom
           Maximum rank =  0   Radius =  0.325 angstrom
                   Q00  =   0.081628

H          x =  3.675891  y = -0.285241  z = -2.301928 angstrom
           Maximum rank =  0   Radius =  0.325 angstrom
                   Q00  =   0.075331

H          x =  3.307101  y =  1.447369  z = -2.713268 angstrom
           Maximum rank =  0   Radius =  0.325 angstrom
                   Q00  =   0.080195

Total multipoles referred to origin at
           x =   0.000000,  y =    0.000000,  z =    0.000000 angstrom
                   Q00  =  -0.000000

Finished at 0:10:50 on 27 Apr 2020

  DMA results are available in the Python driver through the
	  variable('DMA DISTRIBUTED MULTIPOLES')
  and
	  variable('DMA TOTAL MULTIPOLES')
  commands.

    Psi4 stopped on: Monday, 27 April 2020 12:10AM
    Psi4 wall time for execution: 0:04:47.62

*** Psi4 exiting successfully. Buy a developer a beer!
