                               Psi4 1.3.2 release

  ==> Input File <==

--------------------------------------------------------------------------
import numpy as np
set {scf_type pk
basis cc-pvdz
d_convergence 10
gdma_switch   0
gdma_limit    0
gdma_origin   [ 0.0,  0.0,  0.0 ]
}
molecule test {
    units Angstrom
    -2 1
    --
    -2 1
    C               -0.509860128012621    -1.586275644490882    -1.651290182010390
    C               -0.210860128012621    -2.049275644490882    -0.230290182010390
    O               -0.161860128012621    -3.265275644490881     0.020709817989610
    O                0.054139871987379    -1.214275644490882     0.671709817989610
    H                0.387139871987379    -1.128275644490882    -2.078290182010390
    H               -1.293860128012621    -0.835275644490882    -1.631290182010390
    H               -0.830120128012621    -2.406625644490882    -2.310430182010390
    C                1.614139871987379     1.691724355509118     0.353709817989610
    C                0.137139871987379     2.045724355509118     0.294709817989610
    O               -0.721860128012621     1.135724355509118     0.305709817989610
    O               -0.208860128012621     3.242724355509118     0.235709817989610
    H                1.837139871987379     0.951724355509118    -0.417290182010390
    H                1.834139871987378     1.250724355509118     1.326709817989610
    H                2.275669871987379     2.559024355509118     0.211699817989610

}
e, wfn = energy('scf', return_wfn=True)
gdma(wfn)
dmavals = variable('DMA DISTRIBUTED MULTIPOLES')
charges = np.array(dmavals)
print(charges)
np.save('SSI-103GLU-177ASP-1-dimer.npy', np.array(charges))--------------------------------------------------------------------------

*** tstart() called on ds3
*** at Sun Apr 26 18:37:33 2020

   => Loading Basis Set <=

    Name: CC-PVDZ
    Role: ORBITAL
    Keyword: BASIS
    atoms 1-2, 8-9   entry C          line   138 file /theoryfs2/ds/metcalf/miniconda2/envs/tf2gpu/share/psi4/basis/cc-pvdz.gbs
    atoms 3-4, 10-11 entry O          line   198 file /theoryfs2/ds/metcalf/miniconda2/envs/tf2gpu/share/psi4/basis/cc-pvdz.gbs
    atoms 5-7, 12-14 entry H          line    22 file /theoryfs2/ds/metcalf/miniconda2/envs/tf2gpu/share/psi4/basis/cc-pvdz.gbs

         ---------------------------------------------------------
                                   SCF
               by Justin Turney, Rob Parrish, Andy Simmonett
                          and Daniel G. A. Smith
                              RHF Reference
                        1 Threads,    500 MiB Core
         ---------------------------------------------------------

  ==> Geometry <==

    Molecular point group: c1
    Full point group: C1

    Geometry (in Angstrom), charge = -2, multiplicity = 1:

       Center              X                  Y                   Z               Mass
    ------------   -----------------  -----------------  -----------------  -----------------
         C           -0.509860128013    -1.586275644491    -1.651290182010    12.000000000000
         C           -0.210860128013    -2.049275644491    -0.230290182010    12.000000000000
         O           -0.161860128013    -3.265275644491     0.020709817990    15.994914619570
         O            0.054139871987    -1.214275644491     0.671709817990    15.994914619570
         H            0.387139871987    -1.128275644491    -2.078290182010     1.007825032230
         H           -1.293860128013    -0.835275644491    -1.631290182010     1.007825032230
         H           -0.830120128013    -2.406625644491    -2.310430182010     1.007825032230
         C            1.614139871987     1.691724355509     0.353709817990    12.000000000000
         C            0.137139871987     2.045724355509     0.294709817990    12.000000000000
         O           -0.721860128013     1.135724355509     0.305709817990    15.994914619570
         O           -0.208860128013     3.242724355509     0.235709817990    15.994914619570
         H            1.837139871987     0.951724355509    -0.417290182010     1.007825032230
         H            1.834139871987     1.250724355509     1.326709817990     1.007825032230
         H            2.275669871987     2.559024355509     0.211699817990     1.007825032230

  Running in c1 symmetry.

  Rotational constants: A =      0.15923  B =      0.02729  C =      0.02615 [cm^-1]
  Rotational constants: A =   4773.51888  B =    818.17802  C =    783.93805 [MHz]
  Nuclear repulsion =  349.403708105324370

  Charge       = -2
  Multiplicity = 1
  Electrons    = 64
  Nalpha       = 32
  Nbeta        = 32

  ==> Algorithm <==

  SCF Algorithm Type is PK.
  DIIS enabled.
  MOM disabled.
  Fractional occupation disabled.
  Guess Type is SAD.
  Energy threshold   = 1.00e-06
  Density threshold  = 1.00e-10
  Integral threshold = 0.00e+00

  ==> Primary Basis <==

  Basis Set: CC-PVDZ
    Blend: CC-PVDZ
    Number of shells: 66
    Number of basis function: 142
    Number of Cartesian functions: 150
    Spherical Harmonics?: true
    Max angular momentum: 2

  ==> Pre-Iterations <==

   -------------------------------------------------------
    Irrep   Nso     Nmo     Nalpha   Nbeta   Ndocc  Nsocc
   -------------------------------------------------------
     A        142     142       0       0       0       0
   -------------------------------------------------------
    Total     142     142      32      32      32       0
   -------------------------------------------------------

  ==> Integral Setup <==

  Using integral reordering PK algorithm.
  Sizing the integral batches needed.
  Building batch lookup table.
   Calculation information:
      Number of atoms:                  14
      Number of AO shells:              66
      Number of primitives:            206
      Number of atomic orbitals:       150
      Number of basis functions:       142

      Integral cutoff                 1.00e-12
      Number of threads:                 1

	Batch   1 pq = [       0,    9405] index = [             0,44231715] size =     44231715
	Batch   2 pq = [    9405,   10153] index = [      44231715,51546781] size =      7315066
  Task number: 5
  Buffer size: 11059200
  Buffer per thread: 2
  We computed 2006280 shell quartets total.
  Whereas there are 2445366 unique shell quartets.

  ==> DiskJK: Disk-Based J/K Matrices <==

    J tasked:                  Yes
    K tasked:                  Yes
    wK tasked:                  No
    Memory [MiB]:              375
    Schwarz Cutoff:          1E-12

    OpenMP threads:              1

  Minimum eigenvalue in the overlap matrix is 5.3303368313E-03.
  Using Symmetric Orthogonalization.

  SCF Guess: Superposition of Atomic Densities via on-the-fly atomic UHF.

  ==> Iterations <==

                        Total Energy        Delta E     RMS |[F,P]|

   @RHF iter SAD:  -452.36101685912467   -4.52361e+02   0.00000e+00
   @RHF iter   1:  -453.94805978224383   -1.58704e+00   6.50594e-03 DIIS
   @RHF iter   2:  -454.22300152874186   -2.74942e-01   3.90843e-03 DIIS
   @RHF iter   3:  -454.32888626407220   -1.05885e-01   5.00336e-04 DIIS
   @RHF iter   4:  -454.33196773851029   -3.08147e-03   1.92547e-04 DIIS
   @RHF iter   5:  -454.33250681879127   -5.39080e-04   4.87607e-05 DIIS
   @RHF iter   6:  -454.33253304571770   -2.62269e-05   1.95031e-05 DIIS
   @RHF iter   7:  -454.33253772423171   -4.67851e-06   3.06767e-06 DIIS
   @RHF iter   8:  -454.33253800785911   -2.83627e-07   1.26431e-06 DIIS
   @RHF iter   9:  -454.33253805694989   -4.90908e-08   4.94099e-07 DIIS
   @RHF iter  10:  -454.33253806453024   -7.58035e-09   1.73559e-07 DIIS
   @RHF iter  11:  -454.33253806545980   -9.29560e-10   4.35105e-08 DIIS
   @RHF iter  12:  -454.33253806549953   -3.97335e-11   2.14352e-08 DIIS
   @RHF iter  13:  -454.33253806550255   -3.01270e-12   5.42332e-09 DIIS
   @RHF iter  14:  -454.33253806550420   -1.64846e-12   1.51572e-09 DIIS
   @RHF iter  15:  -454.33253806550402    1.70530e-13   6.34394e-10 DIIS
   @RHF iter  16:  -454.33253806550340    6.25278e-13   2.38006e-10 DIIS
   @RHF iter  17:  -454.33253806550317    2.27374e-13   1.05633e-10 DIIS
   @RHF iter  18:  -454.33253806550516   -1.98952e-12   4.38441e-11 DIIS
  Energy and wave function converged.

  ==> Post-Iterations <==

    Orbital Energies [Eh]
    ---------------------

    Doubly Occupied:

       1A    -20.124806     2A    -20.124781     3A    -20.105672
       4A    -20.104135     5A    -10.977703     6A    -10.977620
       7A    -10.924249     8A    -10.923054     9A     -1.014606
      10A     -1.011984    11A     -0.893249    12A     -0.885482
      13A     -0.668182    14A     -0.667183    15A     -0.370089
      16A     -0.366391    17A     -0.284114    18A     -0.281471
      19A     -0.279374    20A     -0.274751    21A     -0.268535
      22A     -0.259702    23A     -0.210171    24A     -0.195307
      25A     -0.171282    26A     -0.168570    27A     -0.053726
      28A     -0.052564    29A     -0.042249    30A     -0.018926
      31A     -0.015018    32A      0.006260

    Virtual:

      33A      0.460184    34A      0.489865    35A      0.512405
      36A      0.526568    37A      0.547236    38A      0.564016
      39A      0.610979    40A      0.646675    41A      0.698389
      42A      0.706482    43A      0.817458    44A      0.822143
      45A      0.823900    46A      0.874351    47A      0.944755
      48A      0.946877    49A      0.988785    50A      1.028720
      51A      1.077348    52A      1.085583    53A      1.101351
      54A      1.102127    55A      1.148184    56A      1.162481
      57A      1.169205    58A      1.178623    59A      1.180252
      60A      1.200582    61A      1.209697    62A      1.234560
      63A      1.270103    64A      1.280888    65A      1.361730
      66A      1.366360    67A      1.452234    68A      1.470628
      69A      1.477038    70A      1.482951    71A      1.536440
      72A      1.575408    73A      1.646432    74A      1.665007
      75A      1.674987    76A      1.687306    77A      1.695020
      78A      1.710693    79A      1.718207    80A      1.786321
      81A      1.796907    82A      1.828592    83A      1.849068
      84A      1.864606    85A      1.868332    86A      1.972607
      87A      1.979654    88A      1.988664    89A      1.993409
      90A      2.091070    91A      2.190738    92A      2.195935
      93A      2.213033    94A      2.227400    95A      2.233075
      96A      2.249551    97A      2.272629    98A      2.306572
      99A      2.348095   100A      2.350679   101A      2.404307
     102A      2.408289   103A      2.451507   104A      2.456048
     105A      2.546717   106A      2.554218   107A      2.560933
     108A      2.568520   109A      2.705566   110A      2.716249
     111A      2.780262   112A      2.785192   113A      2.852345
     114A      2.856140   115A      2.943550   116A      2.953112
     117A      3.041622   118A      3.053917   119A      3.099669
     120A      3.108469   121A      3.125218   122A      3.129279
     123A      3.383549   124A      3.385869   125A      3.421916
     126A      3.430006   127A      3.436470   128A      3.439736
     129A      3.501810   130A      3.516692   131A      3.791029
     132A      3.797829   133A      3.888160   134A      3.905471
     135A      3.955614   136A      3.957623   137A      4.192237
     138A      4.199290   139A      4.234147   140A      4.272291
     141A      4.352008   142A      4.354983

    Final Occupation by Irrep:
              A
    DOCC [    32 ]

  @RHF Final Energy:  -454.33253806550516

   => Energetics <=

    Nuclear Repulsion Energy =            349.4037081053243696
    One-Electron Energy =               -1342.0551183924471843
    Two-Electron Energy =                 538.3188722216176529
    Total Energy =                       -454.3325380655052186

Computation Completed

Properties will be evaluated at   0.000000,   0.000000,   0.000000 [a0]

Properties computed using the SCF density matrix

  Nuclear Dipole Moment: [e a0]
     X:     3.9419      Y:     0.3663      Z:    -4.5866

  Electronic Dipole Moment: [e a0]
     X:    -2.9530      Y:    -0.2807      Z:     3.4319

  Dipole Moment: [e a0]
     X:     0.9889      Y:     0.0857      Z:    -1.1547     Total:     1.5227

  Dipole Moment: [D]
     X:     2.5135      Y:     0.2177      Z:    -2.9350     Total:     3.8703

*** tstop() called on ds3 at Sun Apr 26 18:38:00 2020
Module time:
	user time   =      19.18 seconds =       0.32 minutes
	system time =       8.36 seconds =       0.14 minutes
	total time  =         27 seconds =       0.45 minutes
Total time:
	user time   =      19.18 seconds =       0.32 minutes
	system time =       8.36 seconds =       0.14 minutes
	total time  =         27 seconds =       0.45 minutes
                                     G D M A

                                 by Anthony Stone

                           version 2.2.06, 22 June 2011

               Distributed Multipoles from Gaussian wavefunctions

Starting at 18:38:0 on 26 Apr 2020

Using SCF density matrix from file ./SSI/SSI-103GLU-177ASP-1-dimer.test.24990.fchk

                         Distributed Multipole Analysis

Standard DMA

Positions and radii in angstrom
Multipole moments in atomic units, ea_0^k for rank k

C          x = -0.509860  y = -1.586276  z = -1.651290 angstrom
           Maximum rank =  0   Radius =  0.650 angstrom
                   Q00  =  -0.286358

C          x = -0.210860  y = -2.049276  z = -0.230290 angstrom
           Maximum rank =  0   Radius =  0.650 angstrom
                   Q00  =   1.003399

O          x = -0.161860  y = -3.265276  z =  0.020710 angstrom
           Maximum rank =  0   Radius =  0.650 angstrom
                   Q00  =  -0.969616

O          x =  0.054140  y = -1.214276  z =  0.671710 angstrom
           Maximum rank =  0   Radius =  0.650 angstrom
                   Q00  =  -0.911776

H          x =  0.387140  y = -1.128276  z = -2.078290 angstrom
           Maximum rank =  0   Radius =  0.325 angstrom
                   Q00  =   0.068453

H          x = -1.293860  y = -0.835276  z = -1.631290 angstrom
           Maximum rank =  0   Radius =  0.325 angstrom
                   Q00  =   0.104420

H          x = -0.830120  y = -2.406626  z = -2.310430 angstrom
           Maximum rank =  0   Radius =  0.325 angstrom
                   Q00  =  -0.009408

C          x =  1.614140  y =  1.691724  z =  0.353710 angstrom
           Maximum rank =  0   Radius =  0.650 angstrom
                   Q00  =  -0.289042

C          x =  0.137140  y =  2.045724  z =  0.294710 angstrom
           Maximum rank =  0   Radius =  0.650 angstrom
                   Q00  =   1.013420

O          x = -0.721860  y =  1.135724  z =  0.305710 angstrom
           Maximum rank =  0   Radius =  0.650 angstrom
                   Q00  =  -0.910383

O          x = -0.208860  y =  3.242724  z =  0.235710 angstrom
           Maximum rank =  0   Radius =  0.650 angstrom
                   Q00  =  -0.976525

H          x =  1.837140  y =  0.951724  z = -0.417290 angstrom
           Maximum rank =  0   Radius =  0.325 angstrom
                   Q00  =   0.086565

H          x =  1.834140  y =  1.250724  z =  1.326710 angstrom
           Maximum rank =  0   Radius =  0.325 angstrom
                   Q00  =   0.091218

H          x =  2.275670  y =  2.559024  z =  0.211700 angstrom
           Maximum rank =  0   Radius =  0.325 angstrom
                   Q00  =  -0.014367

Total multipoles referred to origin at
           x =   0.000000,  y =    0.000000,  z =    0.000000 angstrom
                   Q00  =  -2.000000

Finished at 18:38:0 on 26 Apr 2020

  DMA results are available in the Python driver through the
	  variable('DMA DISTRIBUTED MULTIPOLES')
  and
	  variable('DMA TOTAL MULTIPOLES')
  commands.

    Psi4 stopped on: Sunday, 26 April 2020 06:38PM
    Psi4 wall time for execution: 0:00:27.21

*** Psi4 exiting successfully. Buy a developer a beer!
