                               Psi4 1.3.2 release

  ==> Input File <==

--------------------------------------------------------------------------
import numpy as np
set {scf_type pk
basis cc-pvdz
d_convergence 10
gdma_switch   0
gdma_limit    0
gdma_origin   [ 0.0,  0.0,  0.0 ]
}
molecule test {
    units Angstrom
    0 1
    --
    0 1
    C               -2.242952493683127    -2.692778513587455    -1.967149620394804
    C               -1.243952493683127    -1.803778513587455    -1.221149620394804
    O               -1.206952493683127    -1.893778513587455     0.033850379605196
    O               -0.496952493683127    -1.032778513587455    -1.856149620394804
    H               -3.216952493683127    -2.618778513587455    -1.480149620394804
    H               -1.890952493683127    -3.720778513587455    -1.878149620394804
    H               -2.341662493683127    -2.421136513587455    -3.028499620394804
    C                1.322047506316873     2.781221486412545     2.486850379605196
    C                0.974047506316873     1.160221486412545     0.635850379605196
    N               -0.035952493683127     0.567221486412545     1.245850379605196
    N                1.596047506316873     2.187221486412545     1.174850379605196
    N                1.347047506316873     0.738221486412545    -0.549149620394804
    H               -0.352952493683127     0.902221486412545     2.139850379605196
    H               -0.525952493683127    -0.192778513587455     0.772850379605196
    H                2.398047506316873     2.553221486412545     0.657850379605196
    H                2.119047506316873     1.201221486412545    -1.003149620394804
    H                0.790047506316873     0.028221486412545    -1.029149620394804
    H                2.246047506316873     3.241221486412545     2.843850379605196
    H                1.066047506316873     2.003221486412545     3.208850379605196
    H                0.537357506316873     3.552071486412545     2.494140379605196

}
e, wfn = energy('scf', return_wfn=True)
gdma(wfn)
dmavals = variable('DMA DISTRIBUTED MULTIPOLES')
charges = np.array(dmavals)
print(charges)
np.save('SSI-180GLU-194ARG-1-dimer.npy', np.array(charges))--------------------------------------------------------------------------

*** tstart() called on ds3
*** at Tue Apr 28 14:37:13 2020

   => Loading Basis Set <=

    Name: CC-PVDZ
    Role: ORBITAL
    Keyword: BASIS
    atoms 1-2, 8-9   entry C          line   138 file /theoryfs2/ds/metcalf/miniconda2/envs/tf2gpu/share/psi4/basis/cc-pvdz.gbs
    atoms 3-4        entry O          line   198 file /theoryfs2/ds/metcalf/miniconda2/envs/tf2gpu/share/psi4/basis/cc-pvdz.gbs
    atoms 5-7, 13-20 entry H          line    22 file /theoryfs2/ds/metcalf/miniconda2/envs/tf2gpu/share/psi4/basis/cc-pvdz.gbs
    atoms 10-12      entry N          line   168 file /theoryfs2/ds/metcalf/miniconda2/envs/tf2gpu/share/psi4/basis/cc-pvdz.gbs

         ---------------------------------------------------------
                                   SCF
               by Justin Turney, Rob Parrish, Andy Simmonett
                          and Daniel G. A. Smith
                              RHF Reference
                        1 Threads,    500 MiB Core
         ---------------------------------------------------------

  ==> Geometry <==

    Molecular point group: c1
    Full point group: C1

    Geometry (in Angstrom), charge = 0, multiplicity = 1:

       Center              X                  Y                   Z               Mass
    ------------   -----------------  -----------------  -----------------  -----------------
         C           -2.242952493683    -2.692778513587    -1.967149620395    12.000000000000
         C           -1.243952493683    -1.803778513587    -1.221149620395    12.000000000000
         O           -1.206952493683    -1.893778513587     0.033850379605    15.994914619570
         O           -0.496952493683    -1.032778513587    -1.856149620395    15.994914619570
         H           -3.216952493683    -2.618778513587    -1.480149620395     1.007825032230
         H           -1.890952493683    -3.720778513587    -1.878149620395     1.007825032230
         H           -2.341662493683    -2.421136513587    -3.028499620395     1.007825032230
         C            1.322047506317     2.781221486413     2.486850379605    12.000000000000
         C            0.974047506317     1.160221486413     0.635850379605    12.000000000000
         N           -0.035952493683     0.567221486413     1.245850379605    14.003074004430
         N            1.596047506317     2.187221486413     1.174850379605    14.003074004430
         N            1.347047506317     0.738221486413    -0.549149620395    14.003074004430
         H           -0.352952493683     0.902221486413     2.139850379605     1.007825032230
         H           -0.525952493683    -0.192778513587     0.772850379605     1.007825032230
         H            2.398047506317     2.553221486413     0.657850379605     1.007825032230
         H            2.119047506317     1.201221486413    -1.003149620395     1.007825032230
         H            0.790047506317     0.028221486413    -1.029149620395     1.007825032230
         H            2.246047506317     3.241221486413     2.843850379605     1.007825032230
         H            1.066047506317     2.003221486413     3.208850379605     1.007825032230
         H            0.537357506317     3.552071486413     2.494140379605     1.007825032230

  Running in c1 symmetry.

  Rotational constants: A =      0.15347  B =      0.01914  C =      0.01739 [cm^-1]
  Rotational constants: A =   4601.00355  B =    573.72600  C =    521.37911 [MHz]
  Nuclear repulsion =  456.084486575342225

  Charge       = 0
  Multiplicity = 1
  Electrons    = 72
  Nalpha       = 36
  Nbeta        = 36

  ==> Algorithm <==

  SCF Algorithm Type is PK.
  DIIS enabled.
  MOM disabled.
  Fractional occupation disabled.
  Guess Type is SAD.
  Energy threshold   = 1.00e-06
  Density threshold  = 1.00e-10
  Integral threshold = 0.00e+00

  ==> Primary Basis <==

  Basis Set: CC-PVDZ
    Blend: CC-PVDZ
    Number of shells: 87
    Number of basis function: 181
    Number of Cartesian functions: 190
    Spherical Harmonics?: true
    Max angular momentum: 2

  ==> Pre-Iterations <==

   -------------------------------------------------------
    Irrep   Nso     Nmo     Nalpha   Nbeta   Ndocc  Nsocc
   -------------------------------------------------------
     A        181     181       0       0       0       0
   -------------------------------------------------------
    Total     181     181      36      36      36       0
   -------------------------------------------------------

  ==> Integral Setup <==

  Using integral reordering PK algorithm.
  Sizing the integral batches needed.
  Building batch lookup table.
   Calculation information:
      Number of atoms:                  20
      Number of AO shells:              87
      Number of primitives:            253
      Number of atomic orbitals:       190
      Number of basis functions:       181

      Integral cutoff                 1.00e-12
      Number of threads:                 1

	Batch   1 pq = [       0,    9405] index = [             0,44231715] size =     44231715
	Batch   2 pq = [    9405,   13301] index = [      44231715,88464951] size =     44233236
	Batch   3 pq = [   13301,   16471] index = [      88464951,135655156] size =     47190205
  Task number: 13
  Buffer size: 11059200
  Buffer per thread: 2
  We computed 5398393 shell quartets total.
  Whereas there are 7328706 unique shell quartets.

  ==> DiskJK: Disk-Based J/K Matrices <==

    J tasked:                  Yes
    K tasked:                  Yes
    wK tasked:                  No
    Memory [MiB]:              375
    Schwarz Cutoff:          1E-12

    OpenMP threads:              1

  Minimum eigenvalue in the overlap matrix is 3.7910215820E-03.
  Using Symmetric Orthogonalization.

  SCF Guess: Superposition of Atomic Densities via on-the-fly atomic UHF.

  ==> Iterations <==

                        Total Energy        Delta E     RMS |[F,P]|

   @RHF iter SAD:  -469.71552202238638   -4.69716e+02   0.00000e+00
   @RHF iter   1:  -470.72526297872633   -1.00974e+00   4.20025e-03 DIIS
   @RHF iter   2:  -470.94596418754327   -2.20701e-01   2.18247e-03 DIIS
   @RHF iter   3:  -471.00272710366801   -5.67629e-02   3.88376e-04 DIIS
   @RHF iter   4:  -471.00589370260440   -3.16660e-03   1.30765e-04 DIIS
   @RHF iter   5:  -471.00625050991272   -3.56807e-04   2.36422e-05 DIIS
   @RHF iter   6:  -471.00626729616641   -1.67863e-05   8.30973e-06 DIIS
   @RHF iter   7:  -471.00626877328938   -1.47712e-06   2.66745e-06 DIIS
   @RHF iter   8:  -471.00626896321023   -1.89921e-07   9.66415e-07 DIIS
   @RHF iter   9:  -471.00626898537109   -2.21609e-08   3.00234e-07 DIIS
   @RHF iter  10:  -471.00626898786413   -2.49304e-09   6.63598e-08 DIIS
   @RHF iter  11:  -471.00626898806593   -2.01794e-10   2.26964e-08 DIIS
   @RHF iter  12:  -471.00626898808332   -1.73941e-11   1.01728e-08 DIIS
   @RHF iter  13:  -471.00626898808576   -2.44427e-12   3.09753e-09 DIIS
   @RHF iter  14:  -471.00626898808713   -1.36424e-12   1.09966e-09 DIIS
   @RHF iter  15:  -471.00626898808997   -2.84217e-12   4.24863e-10 DIIS
   @RHF iter  16:  -471.00626898808753    2.44427e-12   1.55953e-10 DIIS
   @RHF iter  17:  -471.00626898808764   -1.13687e-13   6.93217e-11 DIIS
  Energy and wave function converged.

  ==> Post-Iterations <==

    Orbital Energies [Eh]
    ---------------------

    Doubly Occupied:

       1A    -20.427906     2A    -20.419294     3A    -15.650130
       4A    -15.611101     5A    -15.606897     6A    -11.425475
       7A    -11.330371     8A    -11.271746     9A    -11.172235
      10A     -1.390565    11A     -1.312793    12A     -1.251946
      13A     -1.220141    14A     -1.196211    15A     -1.015932
      16A     -0.920725    17A     -0.879590    18A     -0.818459
      19A     -0.775949    20A     -0.700391    21A     -0.687004
      22A     -0.684853    23A     -0.664928    24A     -0.636834
      25A     -0.608263    26A     -0.604361    27A     -0.555232
      28A     -0.547112    29A     -0.539887    30A     -0.482019
      31A     -0.453905    32A     -0.448838    33A     -0.438673
      34A     -0.342839    35A     -0.333531    36A     -0.327257

    Virtual:

      37A      0.121912    38A      0.148265    39A      0.178317
      40A      0.187434    41A      0.221467    42A      0.233628
      43A      0.245227    44A      0.250049    45A      0.277340
      46A      0.292947    47A      0.310809    48A      0.345580
      49A      0.353814    50A      0.381968    51A      0.431866
      52A      0.449389    53A      0.484316    54A      0.493915
      55A      0.561048    56A      0.583787    57A      0.599705
      58A      0.612174    59A      0.644429    60A      0.676579
      61A      0.683733    62A      0.702095    63A      0.707001
      64A      0.710639    65A      0.719298    66A      0.764138
      67A      0.796647    68A      0.803904    69A      0.807073
      70A      0.818999    71A      0.837122    72A      0.851573
      73A      0.876306    74A      0.901255    75A      0.913935
      76A      0.917370    77A      0.923370    78A      0.959869
      79A      0.963264    80A      0.978455    81A      0.984717
      82A      0.991919    83A      1.045406    84A      1.052846
      85A      1.087312    86A      1.108440    87A      1.114844
      88A      1.124576    89A      1.202596    90A      1.217541
      91A      1.246616    92A      1.262561    93A      1.286919
      94A      1.302725    95A      1.322007    96A      1.328923
      97A      1.376938    98A      1.391820    99A      1.419313
     100A      1.425645   101A      1.461677   102A      1.490186
     103A      1.507746   104A      1.540075   105A      1.554840
     106A      1.581813   107A      1.604663   108A      1.627557
     109A      1.635064   110A      1.657416   111A      1.692636
     112A      1.714870   113A      1.727237   114A      1.737724
     115A      1.769911   116A      1.845792   117A      1.856365
     118A      1.867907   119A      1.871448   120A      1.890158
     121A      1.896075   122A      1.923751   123A      1.932471
     124A      1.954569   125A      1.965195   126A      1.972257
     127A      1.981267   128A      1.997871   129A      2.052792
     130A      2.082683   131A      2.094247   132A      2.133870
     133A      2.137048   134A      2.165747   135A      2.202928
     136A      2.212686   137A      2.253957   138A      2.265741
     139A      2.286967   140A      2.316869   141A      2.325063
     142A      2.381548   143A      2.429311   144A      2.452042
     145A      2.459251   146A      2.472072   147A      2.508289
     148A      2.531318   149A      2.560122   150A      2.578796
     151A      2.607435   152A      2.637245   153A      2.684915
     154A      2.702182   155A      2.718696   156A      2.743221
     157A      2.764838   158A      2.804295   159A      2.845101
     160A      2.863020   161A      2.869074   162A      2.919924
     163A      2.943093   164A      2.979810   165A      2.990513
     166A      3.026475   167A      3.081879   168A      3.128500
     169A      3.157438   170A      3.188821   171A      3.241131
     172A      3.315793   173A      3.343308   174A      3.478163
     175A      3.615597   176A      3.659704   177A      3.732977
     178A      3.824736   179A      3.919447   180A      3.930496
     181A      4.069130

    Final Occupation by Irrep:
              A
    DOCC [    36 ]

  @RHF Final Energy:  -471.00626898808764

   => Energetics <=

    Nuclear Repulsion Energy =            456.0844865753422255
    One-Electron Energy =               -1548.6747268141532459
    Two-Electron Energy =                 621.5839712507233799
    Total Energy =                       -471.0062689880876405

Computation Completed

Properties will be evaluated at   0.000000,   0.000000,   0.000000 [a0]

Properties computed using the SCF density matrix

  Nuclear Dipole Moment: [e a0]
     X:     0.7597      Y:     4.2206      Z:     3.4528

  Electronic Dipole Moment: [e a0]
     X:     1.6162      Y:    -0.4610      Z:    -1.3069

  Dipole Moment: [e a0]
     X:     2.3759      Y:     3.7596      Z:     2.1459     Total:     4.9381

  Dipole Moment: [D]
     X:     6.0390      Y:     9.5560      Z:     5.4543     Total:    12.5513

*** tstop() called on ds3 at Tue Apr 28 14:38:49 2020
Module time:
	user time   =      43.26 seconds =       0.72 minutes
	system time =      21.66 seconds =       0.36 minutes
	total time  =         96 seconds =       1.60 minutes
Total time:
	user time   =      43.26 seconds =       0.72 minutes
	system time =      21.66 seconds =       0.36 minutes
	total time  =         96 seconds =       1.60 minutes
                                     G D M A

                                 by Anthony Stone

                           version 2.2.06, 22 June 2011

               Distributed Multipoles from Gaussian wavefunctions

Starting at 14:38:49 on 28 Apr 2020

Using SCF density matrix from file ./SSI/SSI-180GLU-194ARG-1-dimer.test.5633.fchk

                         Distributed Multipole Analysis

Standard DMA

Positions and radii in angstrom
Multipole moments in atomic units, ea_0^k for rank k

C          x = -2.242952  y = -2.692779  z = -1.967150 angstrom
           Maximum rank =  0   Radius =  0.650 angstrom
                   Q00  =  -0.254700

C          x = -1.243952  y = -1.803779  z = -1.221150 angstrom
           Maximum rank =  0   Radius =  0.650 angstrom
                   Q00  =   0.875058

O          x = -1.206952  y = -1.893779  z =  0.033850 angstrom
           Maximum rank =  0   Radius =  0.650 angstrom
                   Q00  =  -0.918991

O          x = -0.496952  y = -1.032779  z = -1.856150 angstrom
           Maximum rank =  0   Radius =  0.650 angstrom
                   Q00  =  -0.925782

H          x = -3.216952  y = -2.618779  z = -1.480150 angstrom
           Maximum rank =  0   Radius =  0.325 angstrom
                   Q00  =   0.091078

H          x = -1.890952  y = -3.720779  z = -1.878150 angstrom
           Maximum rank =  0   Radius =  0.325 angstrom
                   Q00  =   0.106169

H          x = -2.341662  y = -2.421137  z = -3.028500 angstrom
           Maximum rank =  0   Radius =  0.325 angstrom
                   Q00  =   0.078152

C          x =  1.322048  y =  2.781221  z =  2.486850 angstrom
           Maximum rank =  0   Radius =  0.650 angstrom
                   Q00  =  -0.115187

C          x =  0.974048  y =  1.160221  z =  0.635850 angstrom
           Maximum rank =  0   Radius =  0.650 angstrom
                   Q00  =   1.068223

N          x = -0.035952  y =  0.567221  z =  1.245850 angstrom
           Maximum rank =  0   Radius =  0.650 angstrom
                   Q00  =  -0.580227

N          x =  1.596048  y =  2.187221  z =  1.174850 angstrom
           Maximum rank =  0   Radius =  0.650 angstrom
                   Q00  =  -0.501211

N          x =  1.347048  y =  0.738221  z = -0.549150 angstrom
           Maximum rank =  0   Radius =  0.650 angstrom
                   Q00  =  -0.601926

H          x = -0.352952  y =  0.902221  z =  2.139850 angstrom
           Maximum rank =  0   Radius =  0.325 angstrom
                   Q00  =   0.230190

H          x = -0.525952  y = -0.192779  z =  0.772850 angstrom
           Maximum rank =  0   Radius =  0.325 angstrom
                   Q00  =   0.319211

H          x =  2.398048  y =  2.553221  z =  0.657850 angstrom
           Maximum rank =  0   Radius =  0.325 angstrom
                   Q00  =   0.206508

H          x =  2.119048  y =  1.201221  z = -1.003150 angstrom
           Maximum rank =  0   Radius =  0.325 angstrom
                   Q00  =   0.216532

H          x =  0.790048  y =  0.028221  z = -1.029150 angstrom
           Maximum rank =  0   Radius =  0.325 angstrom
                   Q00  =   0.352982

H          x =  2.246048  y =  3.241221  z =  2.843850 angstrom
           Maximum rank =  0   Radius =  0.325 angstrom
                   Q00  =   0.134235

H          x =  1.066048  y =  2.003221  z =  3.208850 angstrom
           Maximum rank =  0   Radius =  0.325 angstrom
                   Q00  =   0.106492

H          x =  0.537358  y =  3.552071  z =  2.494140 angstrom
           Maximum rank =  0   Radius =  0.325 angstrom
                   Q00  =   0.113194

Total multipoles referred to origin at
           x =   0.000000,  y =    0.000000,  z =    0.000000 angstrom
                   Q00  =  -0.000000

Finished at 14:38:49 on 28 Apr 2020

  DMA results are available in the Python driver through the
	  variable('DMA DISTRIBUTED MULTIPOLES')
  and
	  variable('DMA TOTAL MULTIPOLES')
  commands.

    Psi4 stopped on: Tuesday, 28 April 2020 02:38PM
    Psi4 wall time for execution: 0:01:35.97

*** Psi4 exiting successfully. Buy a developer a beer!
