                               Psi4 1.3.2 release

  ==> Input File <==

--------------------------------------------------------------------------
import numpy as np
set {scf_type pk
basis cc-pvdz
d_convergence 10
gdma_switch   0
gdma_limit    0
gdma_origin   [ 0.0,  0.0,  0.0 ]
}
molecule test {
    units Angstrom
    1 1
    --
    1 1
    C               -1.144346528447532     1.577267405327102    -0.646906148834296
    C                0.004653471552468    -0.481732594672898    -1.387906148834296
    N                0.372653471552468    -0.777732594672898    -0.161906148834296
    N               -0.711346528447532     0.605267405327102    -1.643906148834296
    N                0.370653471552468    -1.266732594672899    -2.374906148834296
    H                0.151653471552468    -0.148732594672898     0.605093851165704
    H                0.892653471552468    -1.618732594672898     0.024093851165704
    H               -0.913346528447532     0.800267405327101    -2.614906148834296
    H                0.108653471552468    -1.033732594672898    -3.320906148834296
    H                0.876653471552468    -2.119732594672898    -2.194906148834296
    H               -1.342346528447532     1.082267405327101     0.305093851165704
    H               -2.084346528447532     2.034267405327101    -0.960906148834296
    H               -0.379335528447532     2.353797405327102    -0.499376148834296
    C                0.676653471552468    -0.299732594672898     3.391093851165704
    O                0.358653471552468     0.599267405327102     2.327093851165704
    H               -0.246346528447532     1.290267405327101     2.694093851165704
    H                1.412653471552468    -1.014732594672898     3.022093851165704
    H                1.117081471552468     0.243867405327102     4.239933851165704
    H               -0.216454228447532    -0.858642594672898     3.707283851165704

}
e, wfn = energy('scf', return_wfn=True)
gdma(wfn)
dmavals = variable('DMA DISTRIBUTED MULTIPOLES')
charges = np.array(dmavals)
print(charges)
np.save('SSI-035ARG-041THR-1-dimer.npy', np.array(charges))--------------------------------------------------------------------------

*** tstart() called on ds3
*** at Mon Apr 27 07:24:52 2020

   => Loading Basis Set <=

    Name: CC-PVDZ
    Role: ORBITAL
    Keyword: BASIS
    atoms 1-2, 14     entry C          line   138 file /theoryfs2/ds/metcalf/miniconda2/envs/tf2gpu/share/psi4/basis/cc-pvdz.gbs
    atoms 3-5         entry N          line   168 file /theoryfs2/ds/metcalf/miniconda2/envs/tf2gpu/share/psi4/basis/cc-pvdz.gbs
    atoms 6-13, 16-19 entry H          line    22 file /theoryfs2/ds/metcalf/miniconda2/envs/tf2gpu/share/psi4/basis/cc-pvdz.gbs
    atoms 15          entry O          line   198 file /theoryfs2/ds/metcalf/miniconda2/envs/tf2gpu/share/psi4/basis/cc-pvdz.gbs

         ---------------------------------------------------------
                                   SCF
               by Justin Turney, Rob Parrish, Andy Simmonett
                          and Daniel G. A. Smith
                              RHF Reference
                        1 Threads,    500 MiB Core
         ---------------------------------------------------------

  ==> Geometry <==

    Molecular point group: c1
    Full point group: C1

    Geometry (in Angstrom), charge = 1, multiplicity = 1:

       Center              X                  Y                   Z               Mass
    ------------   -----------------  -----------------  -----------------  -----------------
         C           -1.144346528448     1.577267405327    -0.646906148834    12.000000000000
         C            0.004653471552    -0.481732594673    -1.387906148834    12.000000000000
         N            0.372653471552    -0.777732594673    -0.161906148834    14.003074004430
         N           -0.711346528448     0.605267405327    -1.643906148834    14.003074004430
         N            0.370653471552    -1.266732594673    -2.374906148834    14.003074004430
         H            0.151653471552    -0.148732594673     0.605093851166     1.007825032230
         H            0.892653471552    -1.618732594673     0.024093851166     1.007825032230
         H           -0.913346528448     0.800267405327    -2.614906148834     1.007825032230
         H            0.108653471552    -1.033732594673    -3.320906148834     1.007825032230
         H            0.876653471552    -2.119732594673    -2.194906148834     1.007825032230
         H           -1.342346528448     1.082267405327     0.305093851166     1.007825032230
         H           -2.084346528448     2.034267405327    -0.960906148834     1.007825032230
         H           -0.379335528448     2.353797405327    -0.499376148834     1.007825032230
         C            0.676653471552    -0.299732594673     3.391093851166    12.000000000000
         O            0.358653471552     0.599267405327     2.327093851166    15.994914619570
         H           -0.246346528448     1.290267405327     2.694093851166     1.007825032230
         H            1.412653471552    -1.014732594673     3.022093851166     1.007825032230
         H            1.117081471552     0.243867405327     4.239933851166     1.007825032230
         H           -0.216454228448    -0.858642594673     3.707283851166     1.007825032230

  Running in c1 symmetry.

  Rotational constants: A =      0.12654  B =      0.03668  C =      0.02888 [cm^-1]
  Rotational constants: A =   3793.52428  B =   1099.70369  C =    865.87451 [MHz]
  Nuclear repulsion =  327.363463206711117

  Charge       = 1
  Multiplicity = 1
  Electrons    = 58
  Nalpha       = 29
  Nbeta        = 29

  ==> Algorithm <==

  SCF Algorithm Type is PK.
  DIIS enabled.
  MOM disabled.
  Fractional occupation disabled.
  Guess Type is SAD.
  Energy threshold   = 1.00e-06
  Density threshold  = 1.00e-10
  Integral threshold = 0.00e+00

  ==> Primary Basis <==

  Basis Set: CC-PVDZ
    Blend: CC-PVDZ
    Number of shells: 78
    Number of basis function: 158
    Number of Cartesian functions: 165
    Spherical Harmonics?: true
    Max angular momentum: 2

  ==> Pre-Iterations <==

   -------------------------------------------------------
    Irrep   Nso     Nmo     Nalpha   Nbeta   Ndocc  Nsocc
   -------------------------------------------------------
     A        158     158       0       0       0       0
   -------------------------------------------------------
    Total     158     158      29      29      29       0
   -------------------------------------------------------

  ==> Integral Setup <==

  Using integral reordering PK algorithm.
  Sizing the integral batches needed.
  Building batch lookup table.
   Calculation information:
      Number of atoms:                  19
      Number of AO shells:              78
      Number of primitives:            214
      Number of atomic orbitals:       165
      Number of basis functions:       158

      Integral cutoff                 1.00e-12
      Number of threads:                 1

	Batch   1 pq = [       0,    9405] index = [             0,44231715] size =     44231715
	Batch   2 pq = [    9405,   12561] index = [      44231715,78895641] size =     34663926
  Task number: 8
  Buffer size: 11059200
  Buffer per thread: 2
  We computed 4206914 shell quartets total.
  Whereas there are 4747821 unique shell quartets.

  ==> DiskJK: Disk-Based J/K Matrices <==

    J tasked:                  Yes
    K tasked:                  Yes
    wK tasked:                  No
    Memory [MiB]:              375
    Schwarz Cutoff:          1E-12

    OpenMP threads:              1

  Minimum eigenvalue in the overlap matrix is 3.8503672411E-03.
  Using Symmetric Orthogonalization.

  SCF Guess: Superposition of Atomic Densities via on-the-fly atomic UHF.

  ==> Iterations <==

                        Total Energy        Delta E     RMS |[F,P]|

   @RHF iter SAD:  -357.91476581546721   -3.57915e+02   0.00000e+00
   @RHF iter   1:  -358.47382175183009   -5.59056e-01   3.56907e-03 DIIS
   @RHF iter   2:  -358.62388682196723   -1.50065e-01   1.50286e-03 DIIS
   @RHF iter   3:  -358.64734959778337   -2.34628e-02   3.78909e-04 DIIS
   @RHF iter   4:  -358.64967910552781   -2.32951e-03   9.64961e-05 DIIS
   @RHF iter   5:  -358.64980873137142   -1.29626e-04   2.50698e-05 DIIS
   @RHF iter   6:  -358.64982209891400   -1.33675e-05   6.98834e-06 DIIS
   @RHF iter   7:  -358.64982323237109   -1.13346e-06   1.92633e-06 DIIS
   @RHF iter   8:  -358.64982333001893   -9.76478e-08   5.83193e-07 DIIS
   @RHF iter   9:  -358.64982333715363   -7.13470e-09   1.02958e-07 DIIS
   @RHF iter  10:  -358.64982333741239   -2.58751e-10   4.29143e-08 DIIS
   @RHF iter  11:  -358.64982333744604   -3.36513e-11   9.42586e-09 DIIS
   @RHF iter  12:  -358.64982333745053   -4.49063e-12   3.82187e-09 DIIS
   @RHF iter  13:  -358.64982333744922    1.30740e-12   1.20072e-09 DIIS
   @RHF iter  14:  -358.64982333744894    2.84217e-13   3.50608e-10 DIIS
   @RHF iter  15:  -358.64982333744842    5.11591e-13   1.10657e-10 DIIS
   @RHF iter  16:  -358.64982333744945   -1.02318e-12   3.84077e-11 DIIS
  Energy and wave function converged.

  ==> Post-Iterations <==

    Orbital Energies [Eh]
    ---------------------

    Doubly Occupied:

       1A    -20.702608     2A    -15.773373     3A    -15.771497
       4A    -15.758795     5A    -11.570308     6A    -11.428098
       7A    -11.402068     8A     -1.530928     9A     -1.490682
      10A     -1.389385    11A     -1.372147    12A     -1.128668
      13A     -1.047312    14A     -1.021191    15A     -0.962231
      16A     -0.927502    17A     -0.846674    18A     -0.841155
      19A     -0.811414    20A     -0.809592    21A     -0.782637
      22A     -0.745838    23A     -0.731222    24A     -0.724349
      25A     -0.707120    26A     -0.632082    27A     -0.596970
      28A     -0.584042    29A     -0.570680

    Virtual:

      30A      0.002903    31A      0.035980    32A      0.042357
      33A      0.045545    34A      0.066726    35A      0.077893
      36A      0.114078    37A      0.122161    38A      0.131290
      39A      0.136881    40A      0.166979    41A      0.168803
      42A      0.181854    43A      0.227740    44A      0.265820
      45A      0.292667    46A      0.350830    47A      0.356686
      48A      0.448357    49A      0.457442    50A      0.504777
      51A      0.519828    52A      0.531347    53A      0.542299
      54A      0.556285    55A      0.566955    56A      0.573611
      57A      0.582759    58A      0.652069    59A      0.667119
      60A      0.688971    61A      0.700996    62A      0.720278
      63A      0.736597    64A      0.745042    65A      0.758937
      66A      0.775362    67A      0.791397    68A      0.800930
      69A      0.807822    70A      0.820165    71A      0.847653
      72A      0.875088    73A      0.907890    74A      0.922977
      75A      0.983005    76A      1.008453    77A      1.017508
      78A      1.031487    79A      1.068199    80A      1.085447
      81A      1.134049    82A      1.151086    83A      1.162702
      84A      1.179144    85A      1.204589    86A      1.239142
      87A      1.242442    88A      1.261410    89A      1.307651
      90A      1.384824    91A      1.428384    92A      1.461749
      93A      1.497443    94A      1.513706    95A      1.536610
      96A      1.547855    97A      1.554122    98A      1.578055
      99A      1.599001   100A      1.641726   101A      1.672421
     102A      1.718223   103A      1.728516   104A      1.738935
     105A      1.749716   106A      1.767544   107A      1.769176
     108A      1.793872   109A      1.798501   110A      1.811737
     111A      1.828933   112A      1.835537   113A      1.867197
     114A      1.875857   115A      1.889563   116A      1.972093
     117A      2.008008   118A      2.030202   119A      2.045798
     120A      2.077932   121A      2.136273   122A      2.158488
     123A      2.185394   124A      2.189257   125A      2.246283
     126A      2.255381   127A      2.280955   128A      2.297743
     129A      2.316594   130A      2.336674   131A      2.340342
     132A      2.362868   133A      2.388526   134A      2.465251
     135A      2.482113   136A      2.573867   137A      2.605262
     138A      2.610082   139A      2.625517   140A      2.638724
     141A      2.647472   142A      2.648481   143A      2.757642
     144A      2.784930   145A      2.809747   146A      2.835191
     147A      2.858081   148A      2.899321   149A      3.075803
     150A      3.105569   151A      3.118349   152A      3.211694
     153A      3.226843   154A      3.299834   155A      3.427973
     156A      3.588679   157A      3.681245   158A      3.927300

    Final Occupation by Irrep:
              A
    DOCC [    29 ]

  @RHF Final Energy:  -358.64982333744945

   => Energetics <=

    Nuclear Repulsion Energy =            327.3634632067111170
    One-Electron Energy =               -1126.7054353743187676
    Two-Electron Energy =                 440.6921488301582031
    Total Energy =                       -358.6498233374494475

Computation Completed

Properties will be evaluated at   0.000000,   0.000000,   0.000000 [a0]

Properties computed using the SCF density matrix

  Nuclear Dipole Moment: [e a0]
     X:    -0.5823      Y:     0.9543      Z:     4.7169

  Electronic Dipole Moment: [e a0]
     X:     0.3167      Y:    -1.4817      Z:    -5.9552

  Dipole Moment: [e a0]
     X:    -0.2656      Y:    -0.5274      Z:    -1.2382     Total:     1.3718

  Dipole Moment: [D]
     X:    -0.6750      Y:    -1.3404      Z:    -3.1473     Total:     3.4868

*** tstop() called on ds3 at Mon Apr 27 07:25:52 2020
Module time:
	user time   =      28.17 seconds =       0.47 minutes
	system time =      11.99 seconds =       0.20 minutes
	total time  =         60 seconds =       1.00 minutes
Total time:
	user time   =      28.17 seconds =       0.47 minutes
	system time =      11.99 seconds =       0.20 minutes
	total time  =         60 seconds =       1.00 minutes
                                     G D M A

                                 by Anthony Stone

                           version 2.2.06, 22 June 2011

               Distributed Multipoles from Gaussian wavefunctions

Starting at 7:25:52 on 27 Apr 2020

Using SCF density matrix from file ./SSI/SSI-035ARG-041THR-1-dimer.test.8594.fchk

                         Distributed Multipole Analysis

Standard DMA

Positions and radii in angstrom
Multipole moments in atomic units, ea_0^k for rank k

C          x = -1.144347  y =  1.577267  z = -0.646906 angstrom
           Maximum rank =  0   Radius =  0.650 angstrom
                   Q00  =  -0.113801

C          x =  0.004653  y = -0.481733  z = -1.387906 angstrom
           Maximum rank =  0   Radius =  0.650 angstrom
                   Q00  =   1.088733

N          x =  0.372653  y = -0.777733  z = -0.161906 angstrom
           Maximum rank =  0   Radius =  0.650 angstrom
                   Q00  =  -0.609980

N          x = -0.711347  y =  0.605267  z = -1.643906 angstrom
           Maximum rank =  0   Radius =  0.650 angstrom
                   Q00  =  -0.496259

N          x =  0.370653  y = -1.266733  z = -2.374906 angstrom
           Maximum rank =  0   Radius =  0.650 angstrom
                   Q00  =  -0.597048

H          x =  0.151653  y = -0.148733  z =  0.605094 angstrom
           Maximum rank =  0   Radius =  0.325 angstrom
                   Q00  =   0.302642

H          x =  0.892653  y = -1.618733  z =  0.024094 angstrom
           Maximum rank =  0   Radius =  0.325 angstrom
                   Q00  =   0.253845

H          x = -0.913347  y =  0.800267  z = -2.614906 angstrom
           Maximum rank =  0   Radius =  0.325 angstrom
                   Q00  =   0.226769

H          x =  0.108653  y = -1.033733  z = -3.320906 angstrom
           Maximum rank =  0   Radius =  0.325 angstrom
                   Q00  =   0.258635

H          x =  0.876653  y = -2.119733  z = -2.194906 angstrom
           Maximum rank =  0   Radius =  0.325 angstrom
                   Q00  =   0.264432

H          x = -1.342347  y =  1.082267  z =  0.305094 angstrom
           Maximum rank =  0   Radius =  0.325 angstrom
                   Q00  =   0.109356

H          x = -2.084347  y =  2.034267  z = -0.960906 angstrom
           Maximum rank =  0   Radius =  0.325 angstrom
                   Q00  =   0.151104

H          x = -0.379336  y =  2.353797  z = -0.499376 angstrom
           Maximum rank =  0   Radius =  0.325 angstrom
                   Q00  =   0.124320

C          x =  0.676653  y = -0.299733  z =  3.391094 angstrom
           Maximum rank =  0   Radius =  0.650 angstrom
                   Q00  =  -0.075161

O          x =  0.358653  y =  0.599267  z =  2.327094 angstrom
           Maximum rank =  0   Radius =  0.650 angstrom
                   Q00  =  -0.635910

H          x = -0.246347  y =  1.290267  z =  2.694094 angstrom
           Maximum rank =  0   Radius =  0.325 angstrom
                   Q00  =   0.422248

H          x =  1.412653  y = -1.014733  z =  3.022094 angstrom
           Maximum rank =  0   Radius =  0.325 angstrom
                   Q00  =   0.114533

H          x =  1.117081  y =  0.243867  z =  4.239934 angstrom
           Maximum rank =  0   Radius =  0.325 angstrom
                   Q00  =   0.117528

H          x = -0.216454  y = -0.858643  z =  3.707284 angstrom
           Maximum rank =  0   Radius =  0.325 angstrom
                   Q00  =   0.094015

Total multipoles referred to origin at
           x =   0.000000,  y =    0.000000,  z =    0.000000 angstrom
                   Q00  =   1.000000

Finished at 7:25:52 on 27 Apr 2020

  DMA results are available in the Python driver through the
	  variable('DMA DISTRIBUTED MULTIPOLES')
  and
	  variable('DMA TOTAL MULTIPOLES')
  commands.

    Psi4 stopped on: Monday, 27 April 2020 07:25AM
    Psi4 wall time for execution: 0:01:00.29

*** Psi4 exiting successfully. Buy a developer a beer!
