                               Psi4 1.3.2 release

  ==> Input File <==

--------------------------------------------------------------------------
import numpy as np
set {scf_type pk
basis cc-pvdz
d_convergence 10
gdma_switch   0
gdma_limit    0
gdma_origin   [ 0.0,  0.0,  0.0 ]
}
molecule test {
    units Angstrom
    0 1
    --
    0 1
    C               -1.147129221664188     1.230824986952450     1.548748700293578
    C               -0.561129221664187     1.145824986952450     0.164748700293578
    O               -0.894129221664187     0.148824986952450    -0.538251299706422
    O                0.202870778335813     2.075824986952449    -0.203251299706422
    H               -1.577129221664187     0.268824986952450     1.837748700293578
    H               -1.951129221664187     1.966824986952450     1.518748700293578
    H               -0.394996221664187     1.520484986952449     2.297338700293579
    C                1.861870778335813    -1.929175013047550    -0.239251299706422
    N                0.441870778335813    -2.285175013047550    -0.634251299706422
    H                0.054870778335813    -3.022175013047550    -0.040251299706422
    H               -0.176129221664187    -1.475175013047550    -0.578251299706422
    H                0.399870778335813    -2.668175013047550    -1.580251299706422
    H                1.920870778335813    -1.788175013047550     0.842748700293578
    H                2.141870778335813    -0.987175013047550    -0.722251299706422
    H                2.584130778335813    -2.699055013047551    -0.548481299706422

}
e, wfn = energy('scf', return_wfn=True)
gdma(wfn)
dmavals = variable('DMA DISTRIBUTED MULTIPOLES')
charges = np.array(dmavals)
print(charges)
np.save('SSI-058ASP-279LYS-1-dimer.npy', np.array(charges))--------------------------------------------------------------------------

*** tstart() called on ds3
*** at Tue Apr 28 04:08:04 2020

   => Loading Basis Set <=

    Name: CC-PVDZ
    Role: ORBITAL
    Keyword: BASIS
    atoms 1-2, 8     entry C          line   138 file /theoryfs2/ds/metcalf/miniconda2/envs/tf2gpu/share/psi4/basis/cc-pvdz.gbs
    atoms 3-4        entry O          line   198 file /theoryfs2/ds/metcalf/miniconda2/envs/tf2gpu/share/psi4/basis/cc-pvdz.gbs
    atoms 5-7, 10-15 entry H          line    22 file /theoryfs2/ds/metcalf/miniconda2/envs/tf2gpu/share/psi4/basis/cc-pvdz.gbs
    atoms 9          entry N          line   168 file /theoryfs2/ds/metcalf/miniconda2/envs/tf2gpu/share/psi4/basis/cc-pvdz.gbs

         ---------------------------------------------------------
                                   SCF
               by Justin Turney, Rob Parrish, Andy Simmonett
                          and Daniel G. A. Smith
                              RHF Reference
                        1 Threads,    500 MiB Core
         ---------------------------------------------------------

  ==> Geometry <==

    Molecular point group: c1
    Full point group: C1

    Geometry (in Angstrom), charge = 0, multiplicity = 1:

       Center              X                  Y                   Z               Mass
    ------------   -----------------  -----------------  -----------------  -----------------
         C           -1.147129221664     1.230824986952     1.548748700294    12.000000000000
         C           -0.561129221664     1.145824986952     0.164748700294    12.000000000000
         O           -0.894129221664     0.148824986952    -0.538251299706    15.994914619570
         O            0.202870778336     2.075824986952    -0.203251299706    15.994914619570
         H           -1.577129221664     0.268824986952     1.837748700294     1.007825032230
         H           -1.951129221664     1.966824986952     1.518748700294     1.007825032230
         H           -0.394996221664     1.520484986952     2.297338700294     1.007825032230
         C            1.861870778336    -1.929175013048    -0.239251299706    12.000000000000
         N            0.441870778336    -2.285175013048    -0.634251299706    14.003074004430
         H            0.054870778336    -3.022175013048    -0.040251299706     1.007825032230
         H           -0.176129221664    -1.475175013048    -0.578251299706     1.007825032230
         H            0.399870778336    -2.668175013048    -1.580251299706     1.007825032230
         H            1.920870778336    -1.788175013048     0.842748700294     1.007825032230
         H            2.141870778336    -0.987175013048    -0.722251299706     1.007825032230
         H            2.584130778336    -2.699055013048    -0.548481299706     1.007825032230

  Running in c1 symmetry.

  Rotational constants: A =      0.17902  B =      0.04731  C =      0.04497 [cm^-1]
  Rotational constants: A =   5366.94304  B =   1418.23835  C =   1348.02993 [MHz]
  Nuclear repulsion =  240.035117901289908

  Charge       = 0
  Multiplicity = 1
  Electrons    = 50
  Nalpha       = 25
  Nbeta        = 25

  ==> Algorithm <==

  SCF Algorithm Type is PK.
  DIIS enabled.
  MOM disabled.
  Fractional occupation disabled.
  Guess Type is SAD.
  Energy threshold   = 1.00e-06
  Density threshold  = 1.00e-10
  Integral threshold = 0.00e+00

  ==> Primary Basis <==

  Basis Set: CC-PVDZ
    Blend: CC-PVDZ
    Number of shells: 63
    Number of basis function: 129
    Number of Cartesian functions: 135
    Spherical Harmonics?: true
    Max angular momentum: 2

  ==> Pre-Iterations <==

   -------------------------------------------------------
    Irrep   Nso     Nmo     Nalpha   Nbeta   Ndocc  Nsocc
   -------------------------------------------------------
     A        129     129       0       0       0       0
   -------------------------------------------------------
    Total     129     129      25      25      25       0
   -------------------------------------------------------

  ==> Integral Setup <==

  Using integral reordering PK algorithm.
  Sizing the integral batches needed.
  Building batch lookup table.
   Calculation information:
      Number of atoms:                  15
      Number of AO shells:              63
      Number of primitives:            177
      Number of atomic orbitals:       135
      Number of basis functions:       129

      Integral cutoff                 1.00e-12
      Number of threads:                 1

	Batch   1 pq = [       0,    8385] index = [             0,35158305] size =     35158305
  Task number: 4
  Buffer size: 11059200
  Buffer per thread: 2
  We computed 1802355 shell quartets total.
  Whereas there are 2033136 unique shell quartets.

  ==> DiskJK: Disk-Based J/K Matrices <==

    J tasked:                  Yes
    K tasked:                  Yes
    wK tasked:                  No
    Memory [MiB]:              375
    Schwarz Cutoff:          1E-12

    OpenMP threads:              1

  Minimum eigenvalue in the overlap matrix is 5.2319733867E-03.
  Using Symmetric Orthogonalization.

  SCF Guess: Superposition of Atomic Densities via on-the-fly atomic UHF.

  ==> Iterations <==

                        Total Energy        Delta E     RMS |[F,P]|

   @RHF iter SAD:  -321.64846360912156   -3.21648e+02   0.00000e+00
   @RHF iter   1:  -322.77359550484010   -1.12513e+00   5.23127e-03 DIIS
   @RHF iter   2:  -322.94512124160190   -1.71526e-01   2.94385e-03 DIIS
   @RHF iter   3:  -322.99609906035226   -5.09778e-02   4.98610e-04 DIIS
   @RHF iter   4:  -322.99878543503570   -2.68637e-03   1.80539e-04 DIIS
   @RHF iter   5:  -322.99913437203304   -3.48937e-04   4.08001e-05 DIIS
   @RHF iter   6:  -322.99915460713498   -2.02351e-05   2.06932e-05 DIIS
   @RHF iter   7:  -322.99915892498325   -4.31785e-06   4.62328e-06 DIIS
   @RHF iter   8:  -322.99915954845807   -6.23475e-07   2.01855e-06 DIIS
   @RHF iter   9:  -322.99915966395190   -1.15494e-07   5.58611e-07 DIIS
   @RHF iter  10:  -322.99915967211558   -8.16368e-09   1.84086e-07 DIIS
   @RHF iter  11:  -322.99915967264826   -5.32680e-10   4.33552e-08 DIIS
   @RHF iter  12:  -322.99915967268566   -3.74030e-11   9.62411e-09 DIIS
   @RHF iter  13:  -322.99915967268635   -6.82121e-13   3.13304e-09 DIIS
   @RHF iter  14:  -322.99915967268657   -2.27374e-13   1.24768e-09 DIIS
   @RHF iter  15:  -322.99915967268714   -5.68434e-13   5.38088e-10 DIIS
   @RHF iter  16:  -322.99915967268714    0.00000e+00   2.52020e-10 DIIS
   @RHF iter  17:  -322.99915967268731   -1.70530e-13   9.96315e-11 DIIS
  Energy and wave function converged.

  ==> Post-Iterations <==

    Orbital Energies [Eh]
    ---------------------

    Doubly Occupied:

       1A    -20.429072     2A    -20.406193     3A    -15.738095
       4A    -11.350808     5A    -11.267054     6A    -11.172271
       7A     -1.352310     8A     -1.297633     9A     -1.189777
      10A     -1.018082    11A     -0.926290    12A     -0.812978
      13A     -0.808771    14A     -0.706293    15A     -0.647665
      16A     -0.626898    17A     -0.618682    18A     -0.551168
      19A     -0.543843    20A     -0.542852    21A     -0.479299
      22A     -0.447578    23A     -0.342240    24A     -0.319951
      25A     -0.318752

    Virtual:

      26A      0.091678    27A      0.151585    28A      0.154604
      29A      0.204587    30A      0.224372    31A      0.242489
      32A      0.268980    33A      0.271333    34A      0.296609
      35A      0.340652    36A      0.362356    37A      0.452248
      38A      0.503697    39A      0.511164    40A      0.560818
      41A      0.575460    42A      0.624714    43A      0.657438
      44A      0.675614    45A      0.699208    46A      0.753464
      47A      0.775725    48A      0.785067    49A      0.795237
      50A      0.819525    51A      0.844886    52A      0.868887
      53A      0.897522    54A      0.909035    55A      0.915276
      56A      0.918512    57A      0.933421    58A      0.957409
      59A      0.978950    60A      0.997368    61A      1.068330
      62A      1.071626    63A      1.090624    64A      1.181914
      65A      1.216982    66A      1.218793    67A      1.309011
      68A      1.367885    69A      1.409110    70A      1.429572
      71A      1.444799    72A      1.452212    73A      1.476287
      74A      1.536361    75A      1.584503    76A      1.601549
      77A      1.622508    78A      1.672916    79A      1.718968
      80A      1.725541    81A      1.778232    82A      1.818214
      83A      1.825957    84A      1.848636    85A      1.857820
      86A      1.890241    87A      1.919216    88A      1.945696
      89A      1.983740    90A      1.994860    91A      2.068187
      92A      2.078832    93A      2.084372    94A      2.100561
      95A      2.121414    96A      2.139968    97A      2.195485
      98A      2.246094    99A      2.285053   100A      2.297843
     101A      2.318737   102A      2.373363   103A      2.402863
     104A      2.447057   105A      2.524743   106A      2.563525
     107A      2.591922   108A      2.619318   109A      2.640874
     110A      2.645449   111A      2.675933   112A      2.797759
     113A      2.834868   114A      2.848291   115A      2.864739
     116A      2.870870   117A      2.903638   118A      3.084511
     119A      3.105143   120A      3.140740   121A      3.188707
     122A      3.233422   123A      3.317795   124A      3.492006
     125A      3.646865   126A      3.698318   127A      3.898146
     128A      3.939459   129A      4.022993

    Final Occupation by Irrep:
              A
    DOCC [    25 ]

  @RHF Final Energy:  -322.99915967268731

   => Energetics <=

    Nuclear Repulsion Energy =            240.0351179012899081
    One-Electron Energy =                -918.2394526041812242
    Two-Electron Energy =                 355.2051750302039750
    Total Energy =                       -322.9991596726873126

Computation Completed

Properties will be evaluated at   0.000000,   0.000000,   0.000000 [a0]

Properties computed using the SCF density matrix

  Nuclear Dipole Moment: [e a0]
     X:     2.8099      Y:    -8.3110      Z:     2.8361

  Electronic Dipole Moment: [e a0]
     X:    -1.3673      Y:     3.1413      Z:    -2.7676

  Dipole Moment: [e a0]
     X:     1.4426      Y:    -5.1696      Z:     0.0685     Total:     5.3676

  Dipole Moment: [D]
     X:     3.6667      Y:   -13.1399      Z:     0.1741     Total:    13.6430

*** tstop() called on ds3 at Tue Apr 28 04:08:37 2020
Module time:
	user time   =      13.19 seconds =       0.22 minutes
	system time =       4.87 seconds =       0.08 minutes
	total time  =         33 seconds =       0.55 minutes
Total time:
	user time   =      13.19 seconds =       0.22 minutes
	system time =       4.87 seconds =       0.08 minutes
	total time  =         33 seconds =       0.55 minutes
                                     G D M A

                                 by Anthony Stone

                           version 2.2.06, 22 June 2011

               Distributed Multipoles from Gaussian wavefunctions

Starting at 4:8:37 on 28 Apr 2020

Using SCF density matrix from file ./SSI/SSI-058ASP-279LYS-1-dimer.test.27272.fchk

                         Distributed Multipole Analysis

Standard DMA

Positions and radii in angstrom
Multipole moments in atomic units, ea_0^k for rank k

C          x = -1.147129  y =  1.230825  z =  1.548749 angstrom
           Maximum rank =  0   Radius =  0.650 angstrom
                   Q00  =  -0.278917

C          x = -0.561129  y =  1.145825  z =  0.164749 angstrom
           Maximum rank =  0   Radius =  0.650 angstrom
                   Q00  =   0.928218

O          x = -0.894129  y =  0.148825  z = -0.538251 angstrom
           Maximum rank =  0   Radius =  0.650 angstrom
                   Q00  =  -1.008779

O          x =  0.202871  y =  2.075825  z = -0.203251 angstrom
           Maximum rank =  0   Radius =  0.650 angstrom
                   Q00  =  -0.864426

H          x = -1.577129  y =  0.268825  z =  1.837749 angstrom
           Maximum rank =  0   Radius =  0.325 angstrom
                   Q00  =   0.043894

H          x = -1.951129  y =  1.966825  z =  1.518749 angstrom
           Maximum rank =  0   Radius =  0.325 angstrom
                   Q00  =   0.116695

H          x = -0.394996  y =  1.520485  z =  2.297339 angstrom
           Maximum rank =  0   Radius =  0.325 angstrom
                   Q00  =   0.084056

C          x =  1.861871  y = -1.929175  z = -0.239251 angstrom
           Maximum rank =  0   Radius =  0.650 angstrom
                   Q00  =  -0.133427

N          x =  0.441871  y = -2.285175  z = -0.634251 angstrom
           Maximum rank =  0   Radius =  0.650 angstrom
                   Q00  =  -0.143275

H          x =  0.054871  y = -3.022175  z = -0.040251 angstrom
           Maximum rank =  0   Radius =  0.325 angstrom
                   Q00  =   0.219269

H          x = -0.176129  y = -1.475175  z = -0.578251 angstrom
           Maximum rank =  0   Radius =  0.325 angstrom
                   Q00  =   0.358770

H          x =  0.399871  y = -2.668175  z = -1.580251 angstrom
           Maximum rank =  0   Radius =  0.325 angstrom
                   Q00  =   0.228147

H          x =  1.920871  y = -1.788175  z =  0.842749 angstrom
           Maximum rank =  0   Radius =  0.325 angstrom
                   Q00  =   0.151520

H          x =  2.141871  y = -0.987175  z = -0.722251 angstrom
           Maximum rank =  0   Radius =  0.325 angstrom
                   Q00  =   0.173277

H          x =  2.584131  y = -2.699055  z = -0.548481 angstrom
           Maximum rank =  0   Radius =  0.325 angstrom
                   Q00  =   0.124979

Total multipoles referred to origin at
           x =   0.000000,  y =    0.000000,  z =    0.000000 angstrom
                   Q00  =  -0.000000

Finished at 4:8:37 on 28 Apr 2020

  DMA results are available in the Python driver through the
	  variable('DMA DISTRIBUTED MULTIPOLES')
  and
	  variable('DMA TOTAL MULTIPOLES')
  commands.

    Psi4 stopped on: Tuesday, 28 April 2020 04:08AM
    Psi4 wall time for execution: 0:00:33.02

*** Psi4 exiting successfully. Buy a developer a beer!
