                               Psi4 1.3.2 release

  ==> Input File <==

--------------------------------------------------------------------------
import numpy as np
set {scf_type pk
basis cc-pvdz
d_convergence 10
gdma_switch   0
gdma_limit    0
gdma_origin   [ 0.0,  0.0,  0.0 ]
}
molecule test {
    units Angstrom
    0 1
    --
    0 1
    C               -0.020319261726274    -0.302918636019686     3.650640016618635
    C                0.992680738273726    -1.207918636019686     4.329640016618637
    H               -0.969319261726274    -0.790918636019686     3.457640016618635
    H               -0.211319261726274     0.557081363980314     4.294640016618636
    H                0.468680738273726     0.046081363980314     2.753640016618636
    H                0.585680738273726    -1.431918636019686     5.306640016618635
    H                1.137368738273727    -2.134778636019686     3.755187016618636
    H                1.949095938273727    -0.680462636019686     4.460255016618635
    C                0.513680738273726    -2.509918636019687    -2.019359983381364
    C               -0.358319261726274     0.435081363980314     0.240640016618635
    C               -0.453319261726274     1.472081363980314    -0.672359983381365
    C               -0.029319261726274    -0.850918636019686    -0.190359983381365
    C                0.213680738273726    -1.107918636019686    -1.538359983381365
    C               -0.222319261726274     1.227081363980314    -2.013359983381365
    C                0.102680738273726    -0.057918636019686    -2.443359983381365
    O               -0.773319261726274     2.734081363980314    -0.275359983381365
    H               -0.640319261726274     0.652081363980314     1.249640016618635
    H                0.017680738273726    -1.658918636019686     0.526640016618635
    H               -0.295319261726274     2.033081363980314    -2.730359983381365
    H               -0.633319261726274     3.371081363980314    -0.984359983381365
    H                1.020680738273726    -3.047918636019686    -1.224359983381365
    H                1.170680738273727    -2.445918636019687    -2.884359983381365
    H                0.272680738273726    -0.237918636019686    -3.497359983381365
    H               -0.400469261726274    -3.053797636019686    -2.299583983381364

}
e, wfn = energy('scf', return_wfn=True)
gdma(wfn)
dmavals = variable('DMA DISTRIBUTED MULTIPOLES')
charges = np.array(dmavals)
print(charges)
np.save('SSI-045LEU-049TYR-1-dimer.npy', np.array(charges))--------------------------------------------------------------------------

*** tstart() called on ds3
*** at Tue Apr 28 10:17:22 2020

   => Loading Basis Set <=

    Name: CC-PVDZ
    Role: ORBITAL
    Keyword: BASIS
    atoms 1-2, 9-15  entry C          line   138 file /theoryfs2/ds/metcalf/miniconda2/envs/tf2gpu/share/psi4/basis/cc-pvdz.gbs
    atoms 3-8, 17-24 entry H          line    22 file /theoryfs2/ds/metcalf/miniconda2/envs/tf2gpu/share/psi4/basis/cc-pvdz.gbs
    atoms 16         entry O          line   198 file /theoryfs2/ds/metcalf/miniconda2/envs/tf2gpu/share/psi4/basis/cc-pvdz.gbs

         ---------------------------------------------------------
                                   SCF
               by Justin Turney, Rob Parrish, Andy Simmonett
                          and Daniel G. A. Smith
                              RHF Reference
                        1 Threads,    500 MiB Core
         ---------------------------------------------------------

  ==> Geometry <==

    Molecular point group: c1
    Full point group: C1

    Geometry (in Angstrom), charge = 0, multiplicity = 1:

       Center              X                  Y                   Z               Mass
    ------------   -----------------  -----------------  -----------------  -----------------
         C           -0.020319261726    -0.302918636020     3.650640016619    12.000000000000
         C            0.992680738274    -1.207918636020     4.329640016619    12.000000000000
         H           -0.969319261726    -0.790918636020     3.457640016619     1.007825032230
         H           -0.211319261726     0.557081363980     4.294640016619     1.007825032230
         H            0.468680738274     0.046081363980     2.753640016619     1.007825032230
         H            0.585680738274    -1.431918636020     5.306640016619     1.007825032230
         H            1.137368738274    -2.134778636020     3.755187016619     1.007825032230
         H            1.949095938274    -0.680462636020     4.460255016619     1.007825032230
         C            0.513680738274    -2.509918636020    -2.019359983381    12.000000000000
         C           -0.358319261726     0.435081363980     0.240640016619    12.000000000000
         C           -0.453319261726     1.472081363980    -0.672359983381    12.000000000000
         C           -0.029319261726    -0.850918636020    -0.190359983381    12.000000000000
         C            0.213680738274    -1.107918636020    -1.538359983381    12.000000000000
         C           -0.222319261726     1.227081363980    -2.013359983381    12.000000000000
         C            0.102680738274    -0.057918636020    -2.443359983381    12.000000000000
         O           -0.773319261726     2.734081363980    -0.275359983381    15.994914619570
         H           -0.640319261726     0.652081363980     1.249640016619     1.007825032230
         H            0.017680738274    -1.658918636020     0.526640016619     1.007825032230
         H           -0.295319261726     2.033081363980    -2.730359983381     1.007825032230
         H           -0.633319261726     3.371081363980    -0.984359983381     1.007825032230
         H            1.020680738274    -3.047918636020    -1.224359983381     1.007825032230
         H            1.170680738274    -2.445918636020    -2.884359983381     1.007825032230
         H            0.272680738274    -0.237918636020    -3.497359983381     1.007825032230
         H           -0.400469261726    -3.053797636020    -2.299583983381     1.007825032230

  Running in c1 symmetry.

  Rotational constants: A =      0.04649  B =      0.02235  C =      0.01543 [cm^-1]
  Rotational constants: A =   1393.59407  B =    670.10575  C =    462.72539 [MHz]
  Nuclear repulsion =  489.728176916685868

  Charge       = 0
  Multiplicity = 1
  Electrons    = 76
  Nalpha       = 38
  Nbeta        = 38

  ==> Algorithm <==

  SCF Algorithm Type is PK.
  DIIS enabled.
  MOM disabled.
  Fractional occupation disabled.
  Guess Type is SAD.
  Energy threshold   = 1.00e-06
  Density threshold  = 1.00e-10
  Integral threshold = 0.00e+00

  ==> Primary Basis <==

  Basis Set: CC-PVDZ
    Blend: CC-PVDZ
    Number of shells: 102
    Number of basis function: 210
    Number of Cartesian functions: 220
    Spherical Harmonics?: true
    Max angular momentum: 2

  ==> Pre-Iterations <==

   -------------------------------------------------------
    Irrep   Nso     Nmo     Nalpha   Nbeta   Ndocc  Nsocc
   -------------------------------------------------------
     A        210     210       0       0       0       0
   -------------------------------------------------------
    Total     210     210      38      38      38       0
   -------------------------------------------------------

  ==> Integral Setup <==

  Using integral reordering PK algorithm.
  Sizing the integral batches needed.
  Building batch lookup table.
   Calculation information:
      Number of atoms:                  24
      Number of AO shells:             102
      Number of primitives:            290
      Number of atomic orbitals:       220
      Number of basis functions:       210

      Integral cutoff                 1.00e-12
      Number of threads:                 1

	Batch   1 pq = [       0,    9405] index = [             0,44231715] size =     44231715
	Batch   2 pq = [    9405,   13301] index = [      44231715,88464951] size =     44233236
	Batch   3 pq = [   13301,   16290] index = [      88464951,132690195] size =     44225244
	Batch   4 pq = [   16290,   18810] index = [     132690195,176917455] size =     44227260
	Batch   5 pq = [   18810,   21030] index = [     176917455,221140965] size =     44223510
	Batch   6 pq = [   21030,   22155] index = [     221140965,245433090] size =     24292125
  Task number: 23
  Buffer size: 11059200
  Buffer per thread: 2
  We computed 10997006 shell quartets total.
  Whereas there are 13799631 unique shell quartets.

  ==> DiskJK: Disk-Based J/K Matrices <==

    J tasked:                  Yes
    K tasked:                  Yes
    wK tasked:                  No
    Memory [MiB]:              375
    Schwarz Cutoff:          1E-12

    OpenMP threads:              1

  Minimum eigenvalue in the overlap matrix is 3.1771928954E-04.
  Using Symmetric Orthogonalization.

  SCF Guess: Superposition of Atomic Densities via on-the-fly atomic UHF.

  ==> Iterations <==

                        Total Energy        Delta E     RMS |[F,P]|

   @RHF iter SAD:  -422.79486000394843   -4.22795e+02   0.00000e+00
   @RHF iter   1:  -423.59410274974977   -7.99243e-01   2.98667e-03 DIIS
   @RHF iter   2:  -423.81234020180199   -2.18237e-01   1.24708e-03 DIIS
   @RHF iter   3:  -423.84674471774559   -3.44045e-02   2.83153e-04 DIIS
   @RHF iter   4:  -423.84961733730267   -2.87262e-03   1.14669e-04 DIIS
   @RHF iter   5:  -423.84995573768998   -3.38400e-04   2.10568e-05 DIIS
   @RHF iter   6:  -423.84997332655928   -1.75889e-05   6.21501e-06 DIIS
   @RHF iter   7:  -423.84997485806252   -1.53150e-06   1.96543e-06 DIIS
   @RHF iter   8:  -423.84997504449149   -1.86429e-07   6.99704e-07 DIIS
   @RHF iter   9:  -423.84997506945842   -2.49669e-08   2.44010e-07 DIIS
   @RHF iter  10:  -423.84997507298027   -3.52185e-09   8.61737e-08 DIIS
   @RHF iter  11:  -423.84997507380069   -8.20421e-10   3.97004e-08 DIIS
   @RHF iter  12:  -423.84997507399328   -1.92586e-10   2.11048e-08 DIIS
   @RHF iter  13:  -423.84997507404728   -5.40012e-11   7.89203e-09 DIIS
   @RHF iter  14:  -423.84997507405342   -6.13909e-12   1.97095e-09 DIIS
   @RHF iter  15:  -423.84997507405325    1.70530e-13   7.05668e-10 DIIS
   @RHF iter  16:  -423.84997507405558   -2.33058e-12   2.41521e-10 DIIS
   @RHF iter  17:  -423.84997507405586   -2.84217e-13   1.09777e-10 DIIS
   @RHF iter  18:  -423.84997507405342    2.44427e-12   5.84745e-11 DIIS
  Energy and wave function converged.

  ==> Post-Iterations <==

    Orbital Energies [Eh]
    ---------------------

    Doubly Occupied:

       1A    -20.581363     2A    -11.294474     3A    -11.237765
       4A    -11.237097     5A    -11.232307     6A    -11.230495
       7A    -11.227727     8A    -11.225681     9A    -11.216075
      10A    -11.211605    11A     -1.399400    12A     -1.150987
      13A     -1.037954    14A     -1.022856    15A     -1.015680
      16A     -0.926749    17A     -0.845696    18A     -0.834971
      19A     -0.799986    20A     -0.731300    21A     -0.668059
      22A     -0.642808    23A     -0.608748    24A     -0.606411
      25A     -0.598680    26A     -0.586408    27A     -0.581455
      28A     -0.572188    29A     -0.565336    30A     -0.528347
      31A     -0.503781    32A     -0.496063    33A     -0.488883
      34A     -0.484355    35A     -0.471440    36A     -0.465834
      37A     -0.336584    38A     -0.302401

    Virtual:

      39A      0.130066    40A      0.155473    41A      0.173350
      42A      0.181264    43A      0.195371    44A      0.220618
      45A      0.226576    46A      0.234515    47A      0.257461
      48A      0.266548    49A      0.267707    50A      0.278557
      51A      0.288166    52A      0.301793    53A      0.303660
      54A      0.317294    55A      0.375861    56A      0.379443
      57A      0.407989    58A      0.430571    59A      0.454374
      60A      0.480603    61A      0.497778    62A      0.508484
      63A      0.601985    64A      0.607827    65A      0.620693
      66A      0.634634    67A      0.643343    68A      0.649751
      69A      0.662433    70A      0.673727    71A      0.683606
      72A      0.696147    73A      0.711551    74A      0.723642
      75A      0.740122    76A      0.743987    77A      0.767081
      78A      0.773333    79A      0.787662    80A      0.797492
      81A      0.813367    82A      0.838387    83A      0.856289
      84A      0.864564    85A      0.873019    86A      0.876560
      87A      0.887153    88A      0.889010    89A      0.896646
      90A      0.898265    91A      0.910308    92A      0.918391
      93A      0.935027    94A      0.938075    95A      0.940999
      96A      0.946981    97A      0.953848    98A      0.964372
      99A      0.991956   100A      1.036307   101A      1.044291
     102A      1.059148   103A      1.116846   104A      1.131822
     105A      1.142469   106A      1.151285   107A      1.157280
     108A      1.184723   109A      1.220194   110A      1.232332
     111A      1.256573   112A      1.260526   113A      1.285235
     114A      1.290830   115A      1.305156   116A      1.312072
     117A      1.326013   118A      1.362340   119A      1.377370
     120A      1.426077   121A      1.469613   122A      1.481067
     123A      1.506378   124A      1.524259   125A      1.533538
     126A      1.563012   127A      1.584800   128A      1.623172
     129A      1.629499   130A      1.673220   131A      1.679053
     132A      1.694147   133A      1.706837   134A      1.731065
     135A      1.747939   136A      1.784323   137A      1.804467
     138A      1.807772   139A      1.853307   140A      1.874094
     141A      1.876855   142A      1.884177   143A      1.900312
     144A      1.912952   145A      1.915044   146A      1.918750
     147A      1.928086   148A      1.938811   149A      1.945467
     150A      1.956250   151A      1.965547   152A      1.970077
     153A      1.980068   154A      1.988278   155A      2.009523
     156A      2.013217   157A      2.048446   158A      2.055764
     159A      2.066284   160A      2.073408   161A      2.079037
     162A      2.099289   163A      2.145163   164A      2.160717
     165A      2.166182   166A      2.189645   167A      2.226190
     168A      2.237787   169A      2.276900   170A      2.287162
     171A      2.294133   172A      2.311556   173A      2.324069
     174A      2.325934   175A      2.369346   176A      2.426769
     177A      2.457782   178A      2.461845   179A      2.479252
     180A      2.497749   181A      2.499623   182A      2.536200
     183A      2.545301   184A      2.562058   185A      2.603290
     186A      2.622942   187A      2.651374   188A      2.764821
     189A      2.773228   190A      2.779920   191A      2.794484
     192A      2.808406   193A      2.837395   194A      2.844771
     195A      2.846423   196A      2.869764   197A      2.901322
     198A      2.958049   199A      2.970041   200A      2.987076
     201A      3.026379   202A      3.090242   203A      3.109318
     204A      3.263384   205A      3.300549   206A      3.352934
     207A      3.582892   208A      3.673229   209A      3.986316
     210A      4.183228

    Final Occupation by Irrep:
              A
    DOCC [    38 ]

  @RHF Final Energy:  -423.84997507405342

   => Energetics <=

    Nuclear Repulsion Energy =            489.7281769166858680
    One-Electron Energy =               -1545.2204028662767996
    Two-Electron Energy =                 631.6422508755374565
    Total Energy =                       -423.8499750740534182

Computation Completed

Properties will be evaluated at   0.000000,   0.000000,   0.000000 [a0]

Properties computed using the SCF density matrix

  Nuclear Dipole Moment: [e a0]
     X:     3.2516      Y:    -8.2583      Z:    11.4207

  Electronic Dipole Moment: [e a0]
     X:    -3.1138      Y:     8.2894      Z:   -11.9619

  Dipole Moment: [e a0]
     X:     0.1378      Y:     0.0311      Z:    -0.5411     Total:     0.5593

  Dipole Moment: [D]
     X:     0.3503      Y:     0.0791      Z:    -1.3754     Total:     1.4216

*** tstop() called on ds3 at Tue Apr 28 10:20:20 2020
Module time:
	user time   =      82.18 seconds =       1.37 minutes
	system time =      35.74 seconds =       0.60 minutes
	total time  =        178 seconds =       2.97 minutes
Total time:
	user time   =      82.18 seconds =       1.37 minutes
	system time =      35.74 seconds =       0.60 minutes
	total time  =        178 seconds =       2.97 minutes
                                     G D M A

                                 by Anthony Stone

                           version 2.2.06, 22 June 2011

               Distributed Multipoles from Gaussian wavefunctions

Starting at 10:20:20 on 28 Apr 2020

Using SCF density matrix from file ./SSI/SSI-045LEU-049TYR-1-dimer.test.7628.fchk

                         Distributed Multipole Analysis

Standard DMA

Positions and radii in angstrom
Multipole moments in atomic units, ea_0^k for rank k

C          x = -0.020319  y = -0.302919  z =  3.650640 angstrom
           Maximum rank =  0   Radius =  0.650 angstrom
                   Q00  =  -0.228953

C          x =  0.992681  y = -1.207919  z =  4.329640 angstrom
           Maximum rank =  0   Radius =  0.650 angstrom
                   Q00  =  -0.234691

H          x = -0.969319  y = -0.790919  z =  3.457640 angstrom
           Maximum rank =  0   Radius =  0.325 angstrom
                   Q00  =   0.080369

H          x = -0.211319  y =  0.557081  z =  4.294640 angstrom
           Maximum rank =  0   Radius =  0.325 angstrom
                   Q00  =   0.078440

H          x =  0.468681  y =  0.046081  z =  2.753640 angstrom
           Maximum rank =  0   Radius =  0.325 angstrom
                   Q00  =   0.077116

H          x =  0.585681  y = -1.431919  z =  5.306640 angstrom
           Maximum rank =  0   Radius =  0.325 angstrom
                   Q00  =   0.074310

H          x =  1.137369  y = -2.134779  z =  3.755187 angstrom
           Maximum rank =  0   Radius =  0.325 angstrom
                   Q00  =   0.075878

H          x =  1.949096  y = -0.680463  z =  4.460255 angstrom
           Maximum rank =  0   Radius =  0.325 angstrom
                   Q00  =   0.080968

C          x =  0.513681  y = -2.509919  z = -2.019360 angstrom
           Maximum rank =  0   Radius =  0.650 angstrom
                   Q00  =  -0.195017

C          x = -0.358319  y =  0.435081  z =  0.240640 angstrom
           Maximum rank =  0   Radius =  0.650 angstrom
                   Q00  =  -0.112851

C          x = -0.453319  y =  1.472081  z = -0.672360 angstrom
           Maximum rank =  0   Radius =  0.650 angstrom
                   Q00  =   0.295913

C          x = -0.029319  y = -0.850919  z = -0.190360 angstrom
           Maximum rank =  0   Radius =  0.650 angstrom
                   Q00  =  -0.048676

C          x =  0.213681  y = -1.107919  z = -1.538360 angstrom
           Maximum rank =  0   Radius =  0.650 angstrom
                   Q00  =  -0.147645

C          x = -0.222319  y =  1.227081  z = -2.013360 angstrom
           Maximum rank =  0   Radius =  0.650 angstrom
                   Q00  =  -0.175163

C          x =  0.102681  y = -0.057919  z = -2.443360 angstrom
           Maximum rank =  0   Radius =  0.650 angstrom
                   Q00  =   0.062478

O          x = -0.773319  y =  2.734081  z = -0.275360 angstrom
           Maximum rank =  0   Radius =  0.650 angstrom
                   Q00  =  -0.659008

H          x = -0.640319  y =  0.652081  z =  1.249640 angstrom
           Maximum rank =  0   Radius =  0.325 angstrom
                   Q00  =   0.078390

H          x =  0.017681  y = -1.658919  z =  0.526640 angstrom
           Maximum rank =  0   Radius =  0.325 angstrom
                   Q00  =   0.062884

H          x = -0.295319  y =  2.033081  z = -2.730360 angstrom
           Maximum rank =  0   Radius =  0.325 angstrom
                   Q00  =   0.067969

H          x = -0.633319  y =  3.371081  z = -0.984360 angstrom
           Maximum rank =  0   Radius =  0.325 angstrom
                   Q00  =   0.406265

H          x =  1.020681  y = -3.047919  z = -1.224360 angstrom
           Maximum rank =  0   Radius =  0.325 angstrom
                   Q00  =   0.097804

H          x =  1.170681  y = -2.445919  z = -2.884360 angstrom
           Maximum rank =  0   Radius =  0.325 angstrom
                   Q00  =   0.096561

H          x =  0.272681  y = -0.237919  z = -3.497360 angstrom
           Maximum rank =  0   Radius =  0.325 angstrom
                   Q00  =   0.066593

H          x = -0.400469  y = -3.053798  z = -2.299584 angstrom
           Maximum rank =  0   Radius =  0.325 angstrom
                   Q00  =   0.100066

Total multipoles referred to origin at
           x =   0.000000,  y =    0.000000,  z =    0.000000 angstrom
                   Q00  =  -0.000000

Finished at 10:20:20 on 28 Apr 2020

  DMA results are available in the Python driver through the
	  variable('DMA DISTRIBUTED MULTIPOLES')
  and
	  variable('DMA TOTAL MULTIPOLES')
  commands.

    Psi4 stopped on: Tuesday, 28 April 2020 10:20AM
    Psi4 wall time for execution: 0:02:57.91

*** Psi4 exiting successfully. Buy a developer a beer!
