                               Psi4 1.3.2 release

  ==> Input File <==

--------------------------------------------------------------------------
import numpy as np
set {scf_type pk
basis cc-pvdz
d_convergence 10
gdma_switch   0
gdma_limit    0
gdma_origin   [ 0.0,  0.0,  0.0 ]
}
molecule test {
    units Angstrom
    0 1
    --
    0 1
    C                0.384625004075694     0.172411302850251     1.792537444001679
    C                1.657625004075694    -0.319588697149749     2.435537444001679
    H                0.566625004075694     1.061411302850251     1.190537444001679
    H               -0.009374995924306    -0.603588697149749     1.138537444001679
    H               -0.365374995924306     0.389411302850251     2.555537444001679
    H                2.434625004075694    -0.400588697149749     1.673537444001679
    H                1.474625004075694    -1.324588697149749     2.811537444001679
    H                2.002065004075694     0.336491302850251     3.248507444001679
    C               -0.708374995924306    -0.531588697149749    -1.797462555998321
    C               -1.335374995924306     0.691411302850251    -2.426462555998321
    H               -1.380374995924306    -1.011588697149749    -1.090462555998321
    H               -0.437374995924306    -1.256588697149749    -2.558462555998321
    H                0.195625004075694    -0.246588697149749    -1.260462555998321
    H               -2.236374995924305     0.388411302850251    -2.959462555998321
    H               -1.597244995924306     1.411561302850251    -1.637282555998321
    H               -0.629584995924306     1.105681302850251    -3.161472555998321

}
e, wfn = energy('scf', return_wfn=True)
gdma(wfn)
dmavals = variable('DMA DISTRIBUTED MULTIPOLES')
charges = np.array(dmavals)
print(charges)
np.save('SSI-018ILE-052VAL-1-dimer.npy', np.array(charges))--------------------------------------------------------------------------

*** tstart() called on ds3
*** at Tue Apr 28 01:14:28 2020

   => Loading Basis Set <=

    Name: CC-PVDZ
    Role: ORBITAL
    Keyword: BASIS
    atoms 1-2, 9-10  entry C          line   138 file /theoryfs2/ds/metcalf/miniconda2/envs/tf2gpu/share/psi4/basis/cc-pvdz.gbs
    atoms 3-8, 11-16 entry H          line    22 file /theoryfs2/ds/metcalf/miniconda2/envs/tf2gpu/share/psi4/basis/cc-pvdz.gbs

         ---------------------------------------------------------
                                   SCF
               by Justin Turney, Rob Parrish, Andy Simmonett
                          and Daniel G. A. Smith
                              RHF Reference
                        1 Threads,    500 MiB Core
         ---------------------------------------------------------

  ==> Geometry <==

    Molecular point group: c1
    Full point group: C1

    Geometry (in Angstrom), charge = 0, multiplicity = 1:

       Center              X                  Y                   Z               Mass
    ------------   -----------------  -----------------  -----------------  -----------------
         C            0.384625004076     0.172411302850     1.792537444002    12.000000000000
         C            1.657625004076    -0.319588697150     2.435537444002    12.000000000000
         H            0.566625004076     1.061411302850     1.190537444002     1.007825032230
         H           -0.009374995924    -0.603588697150     1.138537444002     1.007825032230
         H           -0.365374995924     0.389411302850     2.555537444002     1.007825032230
         H            2.434625004076    -0.400588697150     1.673537444002     1.007825032230
         H            1.474625004076    -1.324588697150     2.811537444002     1.007825032230
         H            2.002065004076     0.336491302850     3.248507444002     1.007825032230
         C           -0.708374995924    -0.531588697150    -1.797462555998    12.000000000000
         C           -1.335374995924     0.691411302850    -2.426462555998    12.000000000000
         H           -1.380374995924    -1.011588697150    -1.090462555998     1.007825032230
         H           -0.437374995924    -1.256588697150    -2.558462555998     1.007825032230
         H            0.195625004076    -0.246588697150    -1.260462555998     1.007825032230
         H           -2.236374995924     0.388411302850    -2.959462555998     1.007825032230
         H           -1.597244995924     1.411561302850    -1.637282555998     1.007825032230
         H           -0.629584995924     1.105681302850    -3.161472555998     1.007825032230

  Running in c1 symmetry.

  Rotational constants: A =      0.53367  B =      0.04628  C =      0.04472 [cm^-1]
  Rotational constants: A =  15999.14691  B =   1387.52914  C =   1340.71022 [MHz]
  Nuclear repulsion =  121.946132260137674

  Charge       = 0
  Multiplicity = 1
  Electrons    = 36
  Nalpha       = 18
  Nbeta        = 18

  ==> Algorithm <==

  SCF Algorithm Type is PK.
  DIIS enabled.
  MOM disabled.
  Fractional occupation disabled.
  Guess Type is SAD.
  Energy threshold   = 1.00e-06
  Density threshold  = 1.00e-10
  Integral threshold = 0.00e+00

  ==> Primary Basis <==

  Basis Set: CC-PVDZ
    Blend: CC-PVDZ
    Number of shells: 60
    Number of basis function: 116
    Number of Cartesian functions: 120
    Spherical Harmonics?: true
    Max angular momentum: 2

  ==> Pre-Iterations <==

   -------------------------------------------------------
    Irrep   Nso     Nmo     Nalpha   Nbeta   Ndocc  Nsocc
   -------------------------------------------------------
     A        116     116       0       0       0       0
   -------------------------------------------------------
    Total     116     116      18      18      18       0
   -------------------------------------------------------

  ==> Integral Setup <==

  Using integral reordering PK algorithm.
  Sizing the integral batches needed.
  Building batch lookup table.
   Calculation information:
      Number of atoms:                  16
      Number of AO shells:              60
      Number of primitives:            148
      Number of atomic orbitals:       120
      Number of basis functions:       116

      Integral cutoff                 1.00e-12
      Number of threads:                 1

	Batch   1 pq = [       0,    6786] index = [             0,23028291] size =     23028291
  Task number: 3
  Buffer size: 11059200
  Buffer per thread: 2
  We computed 1414955 shell quartets total.
  Whereas there are 1675365 unique shell quartets.

  ==> DiskJK: Disk-Based J/K Matrices <==

    J tasked:                  Yes
    K tasked:                  Yes
    wK tasked:                  No
    Memory [MiB]:              375
    Schwarz Cutoff:          1E-12

    OpenMP threads:              1

  Minimum eigenvalue in the overlap matrix is 7.1755476600E-03.
  Using Symmetric Orthogonalization.

  SCF Guess: Superposition of Atomic Densities via on-the-fly atomic UHF.

  ==> Iterations <==

                        Total Energy        Delta E     RMS |[F,P]|

   @RHF iter SAD:  -157.41889994159013   -1.57419e+02   0.00000e+00
   @RHF iter   1:  -158.30232100146270   -8.83421e-01   4.28171e-03 DIIS
   @RHF iter   2:  -158.43876022338924   -1.36439e-01   1.83719e-03 DIIS
   @RHF iter   3:  -158.46313362819322   -2.43734e-02   3.52468e-04 DIIS
   @RHF iter   4:  -158.46499576909244   -1.86214e-03   3.89139e-05 DIIS
   @RHF iter   5:  -158.46501973781423   -2.39687e-05   6.26611e-06 DIIS
   @RHF iter   6:  -158.46502033747839   -5.99664e-07   8.68647e-07 DIIS
   @RHF iter   7:  -158.46502034564128   -8.16289e-09   2.69699e-07 DIIS
   @RHF iter   8:  -158.46502034623907   -5.97794e-10   3.90924e-08 DIIS
   @RHF iter   9:  -158.46502034626192   -2.28511e-11   7.66559e-09 DIIS
   @RHF iter  10:  -158.46502034626295   -1.02318e-12   1.92120e-09 DIIS
   @RHF iter  11:  -158.46502034626297   -2.84217e-14   5.38658e-10 DIIS
   @RHF iter  12:  -158.46502034626261    3.69482e-13   1.59246e-10 DIIS
   @RHF iter  13:  -158.46502034626346   -8.52651e-13   2.35201e-11 DIIS
  Energy and wave function converged.

  ==> Post-Iterations <==

    Orbital Energies [Eh]
    ---------------------

    Doubly Occupied:

       1A    -11.218301     2A    -11.216384     3A    -11.214305
       4A    -11.213449     5A     -1.024301     6A     -1.022105
       7A     -0.837682     8A     -0.833118     9A     -0.605650
      10A     -0.601186    11A     -0.599631    12A     -0.595707
      13A     -0.507606    14A     -0.501405    15A     -0.489603
      16A     -0.484440    17A     -0.481630    18A     -0.477835

    Virtual:

      19A      0.172392    20A      0.195829    21A      0.226091
      22A      0.234496    23A      0.241130    24A      0.252861
      25A      0.264784    26A      0.276964    27A      0.278750
      28A      0.298293    29A      0.311947    30A      0.326526
      31A      0.395320    32A      0.407361    33A      0.575123
      34A      0.597725    35A      0.600462    36A      0.607378
      37A      0.613022    38A      0.629454    39A      0.661616
      40A      0.677935    41A      0.686260    42A      0.808544
      43A      0.849684    44A      0.859889    45A      0.879999
      46A      0.884624    47A      0.893585    48A      0.896188
      49A      0.901456    50A      0.908737    51A      0.911289
      52A      0.920817    53A      0.932091    54A      0.951361
      55A      0.974592    56A      0.995809    57A      1.126224
      58A      1.127859    59A      1.137122    60A      1.166610
      61A      1.241397    62A      1.244423    63A      1.472004
      64A      1.479600    65A      1.488240    66A      1.495743
      67A      1.553374    68A      1.589794    69A      1.673935
      70A      1.683033    71A      1.693155    72A      1.707599
      73A      1.851512    74A      1.859435    75A      1.869182
      76A      1.882792    77A      1.911068    78A      1.916634
      79A      1.943175    80A      1.951085    81A      1.952719
      82A      1.957074    83A      1.959535    84A      1.964142
      85A      1.970541    86A      1.972122    87A      1.977069
      88A      2.003877    89A      2.093480    90A      2.108259
      91A      2.129779    92A      2.137697    93A      2.286800
      94A      2.308219    95A      2.319945    96A      2.334323
      97A      2.444532    98A      2.454389    99A      2.462520
     100A      2.491918   101A      2.567638   102A      2.571326
     103A      2.578968   104A      2.587629   105A      2.764253
     106A      2.770197   107A      2.790538   108A      2.798431
     109A      2.848731   110A      2.852702   111A      2.862631
     112A      2.870853   113A      2.941014   114A      2.952616
     115A      2.975640   116A      2.992898

    Final Occupation by Irrep:
              A
    DOCC [    18 ]

  @RHF Final Energy:  -158.46502034626346

   => Energetics <=

    Nuclear Repulsion Energy =            121.9461322601376736
    One-Electron Energy =                -452.9736309446616360
    Two-Electron Energy =                 172.5624783382604903
    Total Energy =                       -158.4650203462634579

Computation Completed

Properties will be evaluated at   0.000000,   0.000000,   0.000000 [a0]

Properties computed using the SCF density matrix

  Nuclear Dipole Moment: [e a0]
     X:     0.0167      Y:    -0.1411      Z:    -0.0463

  Electronic Dipole Moment: [e a0]
     X:    -0.0241      Y:     0.1156      Z:     0.0328

  Dipole Moment: [e a0]
     X:    -0.0074      Y:    -0.0255      Z:    -0.0135     Total:     0.0298

  Dipole Moment: [D]
     X:    -0.0188      Y:    -0.0648      Z:    -0.0344     Total:     0.0758

*** tstop() called on ds3 at Tue Apr 28 01:14:37 2020
Module time:
	user time   =       6.95 seconds =       0.12 minutes
	system time =       2.82 seconds =       0.05 minutes
	total time  =          9 seconds =       0.15 minutes
Total time:
	user time   =       6.95 seconds =       0.12 minutes
	system time =       2.82 seconds =       0.05 minutes
	total time  =          9 seconds =       0.15 minutes
                                     G D M A

                                 by Anthony Stone

                           version 2.2.06, 22 June 2011

               Distributed Multipoles from Gaussian wavefunctions

Starting at 1:14:37 on 28 Apr 2020

Using SCF density matrix from file ./SSI/SSI-018ILE-052VAL-1-dimer.test.6774.fchk

                         Distributed Multipole Analysis

Standard DMA

Positions and radii in angstrom
Multipole moments in atomic units, ea_0^k for rank k

C          x =  0.384625  y =  0.172411  z =  1.792537 angstrom
           Maximum rank =  0   Radius =  0.650 angstrom
                   Q00  =  -0.231450

C          x =  1.657625  y = -0.319589  z =  2.435537 angstrom
           Maximum rank =  0   Radius =  0.650 angstrom
                   Q00  =  -0.231012

H          x =  0.566625  y =  1.061411  z =  1.190537 angstrom
           Maximum rank =  0   Radius =  0.325 angstrom
                   Q00  =   0.075645

H          x = -0.009375  y = -0.603589  z =  1.138537 angstrom
           Maximum rank =  0   Radius =  0.325 angstrom
                   Q00  =   0.080945

H          x = -0.365375  y =  0.389411  z =  2.555537 angstrom
           Maximum rank =  0   Radius =  0.325 angstrom
                   Q00  =   0.076570

H          x =  2.434625  y = -0.400589  z =  1.673537 angstrom
           Maximum rank =  0   Radius =  0.325 angstrom
                   Q00  =   0.075292

H          x =  1.474625  y = -1.324589  z =  2.811537 angstrom
           Maximum rank =  0   Radius =  0.325 angstrom
                   Q00  =   0.075348

H          x =  2.002065  y =  0.336491  z =  3.248507 angstrom
           Maximum rank =  0   Radius =  0.325 angstrom
                   Q00  =   0.079024

C          x = -0.708375  y = -0.531589  z = -1.797463 angstrom
           Maximum rank =  0   Radius =  0.650 angstrom
                   Q00  =  -0.236467

C          x = -1.335375  y =  0.691411  z = -2.426463 angstrom
           Maximum rank =  0   Radius =  0.650 angstrom
                   Q00  =  -0.227244

H          x = -1.380375  y = -1.011589  z = -1.090463 angstrom
           Maximum rank =  0   Radius =  0.325 angstrom
                   Q00  =   0.077196

H          x = -0.437375  y = -1.256589  z = -2.558463 angstrom
           Maximum rank =  0   Radius =  0.325 angstrom
                   Q00  =   0.076498

H          x =  0.195625  y = -0.246589  z = -1.260463 angstrom
           Maximum rank =  0   Radius =  0.325 angstrom
                   Q00  =   0.076929

H          x = -2.236375  y =  0.388411  z = -2.959463 angstrom
           Maximum rank =  0   Radius =  0.325 angstrom
                   Q00  =   0.076731

H          x = -1.597245  y =  1.411561  z = -1.637283 angstrom
           Maximum rank =  0   Radius =  0.325 angstrom
                   Q00  =   0.079146

H          x = -0.629585  y =  1.105681  z = -3.161473 angstrom
           Maximum rank =  0   Radius =  0.325 angstrom
                   Q00  =   0.076848

Total multipoles referred to origin at
           x =   0.000000,  y =    0.000000,  z =    0.000000 angstrom
                   Q00  =  -0.000000

Finished at 1:14:37 on 28 Apr 2020

  DMA results are available in the Python driver through the
	  variable('DMA DISTRIBUTED MULTIPOLES')
  and
	  variable('DMA TOTAL MULTIPOLES')
  commands.

    Psi4 stopped on: Tuesday, 28 April 2020 01:14AM
    Psi4 wall time for execution: 0:00:09.49

*** Psi4 exiting successfully. Buy a developer a beer!
