                               Psi4 1.3.2 release

  ==> Input File <==

--------------------------------------------------------------------------
import numpy as np
set {scf_type pk
basis cc-pvdz
d_convergence 10
gdma_switch   0
gdma_limit    0
gdma_origin   [ 0.0,  0.0,  0.0 ]
}
molecule test {
    units Angstrom
    0 1
    --
    0 1
    C                2.081325047339272    -0.338784325208327     0.082544003804193
    C                2.542325047339272    -0.683784325208327    -1.347455996195807
    H                2.460325047339271     0.639215674791673     0.355544003804193
    H                0.996325047339272    -0.346784325208327     0.130544003804193
    H                2.451325047339272    -1.078784325208327     0.793544003804193
    H                2.276325047339272    -1.724784325208327    -1.540455996195807
    H                3.635080047339272    -0.582099325208327    -1.421928996195807
    H                2.013339047339272    -0.087512155208327    -2.105501996195807
    C               -1.574674952660728     0.341215674791673     0.512544003804193
    C               -3.047674952660728     0.681215674791673     0.751544003804193
    H               -1.470674952660728    -0.372784325208327    -0.303455996195807
    H               -1.039674952660728     1.252215674791673     0.243544003804193
    H               -1.138674952660728    -0.075784325208327     1.419544003804193
    H               -3.467674952660729     1.085215674791673    -0.169455996195807
    H               -3.081674952660728     1.464215674791673     1.507544003804193
    H               -3.649825652660728    -0.170694775208327     1.100346003804193

}
e, wfn = energy('scf', return_wfn=True)
gdma(wfn)
dmavals = variable('DMA DISTRIBUTED MULTIPOLES')
charges = np.array(dmavals)
print(charges)
np.save('SSI-020ILE-082ILE-1-dimer.npy', np.array(charges))--------------------------------------------------------------------------

*** tstart() called on ds3
*** at Mon Apr 27 16:26:34 2020

   => Loading Basis Set <=

    Name: CC-PVDZ
    Role: ORBITAL
    Keyword: BASIS
    atoms 1-2, 9-10  entry C          line   138 file /theoryfs2/ds/metcalf/miniconda2/envs/tf2gpu/share/psi4/basis/cc-pvdz.gbs
    atoms 3-8, 11-16 entry H          line    22 file /theoryfs2/ds/metcalf/miniconda2/envs/tf2gpu/share/psi4/basis/cc-pvdz.gbs

         ---------------------------------------------------------
                                   SCF
               by Justin Turney, Rob Parrish, Andy Simmonett
                          and Daniel G. A. Smith
                              RHF Reference
                        1 Threads,    500 MiB Core
         ---------------------------------------------------------

  ==> Geometry <==

    Molecular point group: c1
    Full point group: C1

    Geometry (in Angstrom), charge = 0, multiplicity = 1:

       Center              X                  Y                   Z               Mass
    ------------   -----------------  -----------------  -----------------  -----------------
         C            2.081325047339    -0.338784325208     0.082544003804    12.000000000000
         C            2.542325047339    -0.683784325208    -1.347455996196    12.000000000000
         H            2.460325047339     0.639215674792     0.355544003804     1.007825032230
         H            0.996325047339    -0.346784325208     0.130544003804     1.007825032230
         H            2.451325047339    -1.078784325208     0.793544003804     1.007825032230
         H            2.276325047339    -1.724784325208    -1.540455996196     1.007825032230
         H            3.635080047339    -0.582099325208    -1.421928996196     1.007825032230
         H            2.013339047339    -0.087512155208    -2.105501996196     1.007825032230
         C           -1.574674952661     0.341215674792     0.512544003804    12.000000000000
         C           -3.047674952661     0.681215674792     0.751544003804    12.000000000000
         H           -1.470674952661    -0.372784325208    -0.303455996196     1.007825032230
         H           -1.039674952661     1.252215674792     0.243544003804     1.007825032230
         H           -1.138674952661    -0.075784325208     1.419544003804     1.007825032230
         H           -3.467674952661     1.085215674792    -0.169455996196     1.007825032230
         H           -3.081674952661     1.464215674792     1.507544003804     1.007825032230
         H           -3.649825652661    -0.170694775208     1.100346003804     1.007825032230

  Running in c1 symmetry.

  Rotational constants: A =      0.65763  B =      0.04233  C =      0.04099 [cm^-1]
  Rotational constants: A =  19715.10350  B =   1269.06421  C =   1228.97832 [MHz]
  Nuclear repulsion =  120.382964430069734

  Charge       = 0
  Multiplicity = 1
  Electrons    = 36
  Nalpha       = 18
  Nbeta        = 18

  ==> Algorithm <==

  SCF Algorithm Type is PK.
  DIIS enabled.
  MOM disabled.
  Fractional occupation disabled.
  Guess Type is SAD.
  Energy threshold   = 1.00e-06
  Density threshold  = 1.00e-10
  Integral threshold = 0.00e+00

  ==> Primary Basis <==

  Basis Set: CC-PVDZ
    Blend: CC-PVDZ
    Number of shells: 60
    Number of basis function: 116
    Number of Cartesian functions: 120
    Spherical Harmonics?: true
    Max angular momentum: 2

  ==> Pre-Iterations <==

   -------------------------------------------------------
    Irrep   Nso     Nmo     Nalpha   Nbeta   Ndocc  Nsocc
   -------------------------------------------------------
     A        116     116       0       0       0       0
   -------------------------------------------------------
    Total     116     116      18      18      18       0
   -------------------------------------------------------

  ==> Integral Setup <==

  Using integral reordering PK algorithm.
  Sizing the integral batches needed.
  Building batch lookup table.
   Calculation information:
      Number of atoms:                  16
      Number of AO shells:              60
      Number of primitives:            148
      Number of atomic orbitals:       120
      Number of basis functions:       116

      Integral cutoff                 1.00e-12
      Number of threads:                 1

	Batch   1 pq = [       0,    6786] index = [             0,23028291] size =     23028291
  Task number: 3
  Buffer size: 11059200
  Buffer per thread: 2
  We computed 1363755 shell quartets total.
  Whereas there are 1675365 unique shell quartets.

  ==> DiskJK: Disk-Based J/K Matrices <==

    J tasked:                  Yes
    K tasked:                  Yes
    wK tasked:                  No
    Memory [MiB]:              375
    Schwarz Cutoff:          1E-12

    OpenMP threads:              1

  Minimum eigenvalue in the overlap matrix is 5.2277991712E-03.
  Using Symmetric Orthogonalization.

  SCF Guess: Superposition of Atomic Densities via on-the-fly atomic UHF.

  ==> Iterations <==

                        Total Energy        Delta E     RMS |[F,P]|

   @RHF iter SAD:  -157.34074624456383   -1.57341e+02   0.00000e+00
   @RHF iter   1:  -158.30816890761710   -9.67423e-01   4.18958e-03 DIIS
   @RHF iter   2:  -158.44053421250311   -1.32365e-01   1.77278e-03 DIIS
   @RHF iter   3:  -158.46340886187045   -2.28746e-02   3.49562e-04 DIIS
   @RHF iter   4:  -158.46524404442152   -1.83518e-03   3.95808e-05 DIIS
   @RHF iter   5:  -158.46526886980166   -2.48254e-05   7.15812e-06 DIIS
   @RHF iter   6:  -158.46526959469992   -7.24898e-07   1.47281e-06 DIIS
   @RHF iter   7:  -158.46526961548003   -2.07801e-08   3.45710e-07 DIIS
   @RHF iter   8:  -158.46526961675119   -1.27116e-09   5.13345e-08 DIIS
   @RHF iter   9:  -158.46526961679820   -4.70095e-11   1.13262e-08 DIIS
   @RHF iter  10:  -158.46526961680092   -2.72848e-12   3.09847e-09 DIIS
   @RHF iter  11:  -158.46526961680107   -1.42109e-13   8.85535e-10 DIIS
   @RHF iter  12:  -158.46526961680129   -2.27374e-13   2.02721e-10 DIIS
   @RHF iter  13:  -158.46526961680129    0.00000e+00   3.62933e-11 DIIS
  Energy and wave function converged.

  ==> Post-Iterations <==

    Orbital Energies [Eh]
    ---------------------

    Doubly Occupied:

       1A    -11.219026     2A    -11.218759     3A    -11.218067
       4A    -11.214201     5A     -1.019683     6A     -1.013513
       7A     -0.841251     8A     -0.834440     9A     -0.600338
      10A     -0.599306    11A     -0.597285    12A     -0.592383
      13A     -0.506545    14A     -0.496467    15A     -0.489505
      16A     -0.486187    17A     -0.482242    18A     -0.480292

    Virtual:

      19A      0.175566    20A      0.193552    21A      0.227526
      22A      0.240813    23A      0.245533    24A      0.259683
      25A      0.261245    26A      0.275691    27A      0.284316
      28A      0.288495    29A      0.292730    30A      0.329698
      31A      0.393069    32A      0.428686    33A      0.585054
      34A      0.594298    35A      0.598993    36A      0.605566
      37A      0.608567    38A      0.662794    39A      0.670976
      40A      0.683015    41A      0.710706    42A      0.745672
      43A      0.840299    44A      0.882922    45A      0.891584
      46A      0.892183    47A      0.894288    48A      0.896156
      49A      0.900459    50A      0.905091    51A      0.912107
      52A      0.920539    53A      0.940056    54A      0.954852
      55A      0.965790    56A      1.049594    57A      1.117946
      58A      1.120398    59A      1.130193    60A      1.133425
      61A      1.226928    62A      1.333643    63A      1.459095
      64A      1.470208    65A      1.480753    66A      1.486177
      67A      1.581730    68A      1.605156    69A      1.680944
      70A      1.682038    71A      1.693716    72A      1.699289
      73A      1.848428    74A      1.859472    75A      1.866868
      76A      1.881290    77A      1.888709    78A      1.898781
      79A      1.931542    80A      1.936562    81A      1.942189
      82A      1.946551    83A      1.951955    84A      1.957420
      85A      1.966165    86A      1.966505    87A      1.981128
      88A      2.062279    89A      2.088139    90A      2.108664
      91A      2.123012    92A      2.143834    93A      2.295477
      94A      2.297405    95A      2.308383    96A      2.358417
      97A      2.447328    98A      2.455063    99A      2.467951
     100A      2.474772   101A      2.554666   102A      2.564391
     103A      2.578842   104A      2.590886   105A      2.755749
     106A      2.760602   107A      2.783765   108A      2.830299
     109A      2.842334   110A      2.846697   111A      2.861460
     112A      2.867239   113A      2.941012   114A      2.952172
     115A      2.956253   116A      2.982869

    Final Occupation by Irrep:
              A
    DOCC [    18 ]

  @RHF Final Energy:  -158.46526961680129

   => Energetics <=

    Nuclear Repulsion Energy =            120.3829644300697339
    One-Electron Energy =                -449.8774870702967519
    Two-Electron Energy =                 171.0292530234257526
    Total Energy =                       -158.4652696168012938

Computation Completed

Properties will be evaluated at   0.000000,   0.000000,   0.000000 [a0]

Properties computed using the SCF density matrix

  Nuclear Dipole Moment: [e a0]
     X:    -0.0145      Y:     0.0015      Z:     0.0092

  Electronic Dipole Moment: [e a0]
     X:    -0.0178      Y:     0.0054      Z:     0.0074

  Dipole Moment: [e a0]
     X:    -0.0323      Y:     0.0069      Z:     0.0166     Total:     0.0370

  Dipole Moment: [D]
     X:    -0.0821      Y:     0.0176      Z:     0.0422     Total:     0.0940

*** tstop() called on ds3 at Mon Apr 27 16:26:46 2020
Module time:
	user time   =       7.51 seconds =       0.13 minutes
	system time =       2.92 seconds =       0.05 minutes
	total time  =         12 seconds =       0.20 minutes
Total time:
	user time   =       7.51 seconds =       0.13 minutes
	system time =       2.92 seconds =       0.05 minutes
	total time  =         12 seconds =       0.20 minutes
                                     G D M A

                                 by Anthony Stone

                           version 2.2.06, 22 June 2011

               Distributed Multipoles from Gaussian wavefunctions

Starting at 16:26:46 on 27 Apr 2020

Using SCF density matrix from file ./SSI/SSI-020ILE-082ILE-1-dimer.test.26829.fchk

                         Distributed Multipole Analysis

Standard DMA

Positions and radii in angstrom
Multipole moments in atomic units, ea_0^k for rank k

C          x =  2.081325  y = -0.338784  z =  0.082544 angstrom
           Maximum rank =  0   Radius =  0.650 angstrom
                   Q00  =  -0.238542

C          x =  2.542325  y = -0.683784  z = -1.347456 angstrom
           Maximum rank =  0   Radius =  0.650 angstrom
                   Q00  =  -0.246011

H          x =  2.460325  y =  0.639216  z =  0.355544 angstrom
           Maximum rank =  0   Radius =  0.325 angstrom
                   Q00  =   0.078458

H          x =  0.996325  y = -0.346784  z =  0.130544 angstrom
           Maximum rank =  0   Radius =  0.325 angstrom
                   Q00  =   0.088786

H          x =  2.451325  y = -1.078784  z =  0.793544 angstrom
           Maximum rank =  0   Radius =  0.325 angstrom
                   Q00  =   0.078668

H          x =  2.276325  y = -1.724784  z = -1.540456 angstrom
           Maximum rank =  0   Radius =  0.325 angstrom
                   Q00  =   0.075056

H          x =  3.635080  y = -0.582099  z = -1.421929 angstrom
           Maximum rank =  0   Radius =  0.325 angstrom
                   Q00  =   0.080836

H          x =  2.013339  y = -0.087512  z = -2.105502 angstrom
           Maximum rank =  0   Radius =  0.325 angstrom
                   Q00  =   0.080839

C          x = -1.574675  y =  0.341216  z =  0.512544 angstrom
           Maximum rank =  0   Radius =  0.650 angstrom
                   Q00  =  -0.246398

C          x = -3.047675  y =  0.681216  z =  0.751544 angstrom
           Maximum rank =  0   Radius =  0.650 angstrom
                   Q00  =  -0.230633

H          x = -1.470675  y = -0.372784  z = -0.303456 angstrom
           Maximum rank =  0   Radius =  0.325 angstrom
                   Q00  =   0.076051

H          x = -1.039675  y =  1.252216  z =  0.243544 angstrom
           Maximum rank =  0   Radius =  0.325 angstrom
                   Q00  =   0.080452

H          x = -1.138675  y = -0.075784  z =  1.419544 angstrom
           Maximum rank =  0   Radius =  0.325 angstrom
                   Q00  =   0.079146

H          x = -3.467675  y =  1.085216  z = -0.169456 angstrom
           Maximum rank =  0   Radius =  0.325 angstrom
                   Q00  =   0.080768

H          x = -3.081675  y =  1.464216  z =  1.507544 angstrom
           Maximum rank =  0   Radius =  0.325 angstrom
                   Q00  =   0.079253

H          x = -3.649826  y = -0.170695  z =  1.100346 angstrom
           Maximum rank =  0   Radius =  0.325 angstrom
                   Q00  =   0.083270

Total multipoles referred to origin at
           x =   0.000000,  y =    0.000000,  z =    0.000000 angstrom
                   Q00  =  -0.000000

Finished at 16:26:46 on 27 Apr 2020

  DMA results are available in the Python driver through the
	  variable('DMA DISTRIBUTED MULTIPOLES')
  and
	  variable('DMA TOTAL MULTIPOLES')
  commands.

    Psi4 stopped on: Monday, 27 April 2020 04:26PM
    Psi4 wall time for execution: 0:00:11.23

*** Psi4 exiting successfully. Buy a developer a beer!
