                               Psi4 1.3.2 release

  ==> Input File <==

--------------------------------------------------------------------------
import numpy as np
set {scf_type pk
basis cc-pvdz
d_convergence 10
gdma_switch   0
gdma_limit    0
gdma_origin   [ 0.0,  0.0,  0.0 ]
}
molecule test {
    units Angstrom
    0 1
    --
    0 1
    C                2.000538674228211     0.020278676565587    -2.708973043352103
    C                2.710538674228211     1.201278676565587    -3.370973043352103
    C                0.517538674228211     0.250278676565587    -2.531973043352103
    C               -0.006461325771789     0.553278676565587    -1.288973043352103
    C               -0.344461325771789     0.193278676565587    -3.618973043352103
    C               -1.356461325771789     0.794278676565587    -1.140973043352103
    C               -1.704461325771789     0.440278676565587    -3.489973043352103
    C               -2.204461325771789     0.756278676565587    -2.240973043352103
    O               -3.528461325771789     0.999278676565587    -2.058973043352103
    H                2.152538674228211    -0.879721323434413    -3.304973043352102
    H                2.450538674228212    -0.154721323434413    -1.731973043352103
    H                2.478538674228211     2.101278676565587    -2.800973043352102
    H                0.642538674228211     0.596278676565587    -0.427973043352103
    H                0.038538674228211    -0.081721323434413    -4.591973043352104
    H               -1.748461325771789     1.015278676565587    -0.160973043352103
    H               -2.368461325771789     0.386278676565587    -4.338973043352103
    H               -3.755461325771789     1.118278676565587    -1.132973043352103
    H                2.378888674228211     1.308558676565587    -4.414283043352103
    H                3.796478674228211     1.031738676565587    -3.326393043352103
    C               -0.765461325771789     1.537278676565587     4.100026956647898
    C                0.205538674228211    -1.409721323434413     1.975026956647897
    C                0.508538674228211    -0.125721323434413     2.481026956647897
    C               -0.593461325771789     0.260278676565587     3.339026956647897
    C               -1.486461325771789    -0.751721323434413     3.298026956647897
    C                2.262538674228211    -1.524721323434413     0.779026956647897
    C                1.074538674228211    -2.111721323434413     1.149026956647897
    C                2.590538674228211    -0.249721323434413     1.247026956647897
    C                1.733538674228211     0.452278676565587     2.108026956647897
    N               -1.014461325771789    -1.758721323434413     2.494026956647897
    H                2.935538674228211    -2.044721323434413     0.112026956647897
    H                0.804538674228211    -3.089721323434413     0.782026956647897
    H                3.514538674228211     0.205278676565587     0.939026956647897
    H                1.997538674228211     1.430278676565587     2.474026956647897
    H               -1.518461325771789    -2.617721323434413     2.306026956647897
    H               -2.426461325771789    -0.768721323434413     3.839026956647897
    H               -1.754461325771789     1.542278676565587     4.557026956647896
    H               -0.749461325771789     2.345278676565588     3.374026956647897
    H               -0.001251325771789     1.731028676565587     4.867126956647897

}
e, wfn = energy('scf', return_wfn=True)
gdma(wfn)
dmavals = variable('DMA DISTRIBUTED MULTIPOLES')
charges = np.array(dmavals)
print(charges)
np.save('SSI-179TYR-258TRP-1-dimer.npy', np.array(charges))--------------------------------------------------------------------------

*** tstart() called on ds3
*** at Tue Apr 28 10:10:12 2020

   => Loading Basis Set <=

    Name: CC-PVDZ
    Role: ORBITAL
    Keyword: BASIS
    atoms 1-8, 20-28   entry C          line   138 file /theoryfs2/ds/metcalf/miniconda2/envs/tf2gpu/share/psi4/basis/cc-pvdz.gbs
    atoms 9            entry O          line   198 file /theoryfs2/ds/metcalf/miniconda2/envs/tf2gpu/share/psi4/basis/cc-pvdz.gbs
    atoms 10-19, 30-38 entry H          line    22 file /theoryfs2/ds/metcalf/miniconda2/envs/tf2gpu/share/psi4/basis/cc-pvdz.gbs
    atoms 29           entry N          line   168 file /theoryfs2/ds/metcalf/miniconda2/envs/tf2gpu/share/psi4/basis/cc-pvdz.gbs

         ---------------------------------------------------------
                                   SCF
               by Justin Turney, Rob Parrish, Andy Simmonett
                          and Daniel G. A. Smith
                              RHF Reference
                        1 Threads,    500 MiB Core
         ---------------------------------------------------------

  ==> Geometry <==

    Molecular point group: c1
    Full point group: C1

    Geometry (in Angstrom), charge = 0, multiplicity = 1:

       Center              X                  Y                   Z               Mass
    ------------   -----------------  -----------------  -----------------  -----------------
         C            2.000538674228     0.020278676566    -2.708973043352    12.000000000000
         C            2.710538674228     1.201278676566    -3.370973043352    12.000000000000
         C            0.517538674228     0.250278676566    -2.531973043352    12.000000000000
         C           -0.006461325772     0.553278676566    -1.288973043352    12.000000000000
         C           -0.344461325772     0.193278676566    -3.618973043352    12.000000000000
         C           -1.356461325772     0.794278676566    -1.140973043352    12.000000000000
         C           -1.704461325772     0.440278676566    -3.489973043352    12.000000000000
         C           -2.204461325772     0.756278676566    -2.240973043352    12.000000000000
         O           -3.528461325772     0.999278676566    -2.058973043352    15.994914619570
         H            2.152538674228    -0.879721323434    -3.304973043352     1.007825032230
         H            2.450538674228    -0.154721323434    -1.731973043352     1.007825032230
         H            2.478538674228     2.101278676566    -2.800973043352     1.007825032230
         H            0.642538674228     0.596278676566    -0.427973043352     1.007825032230
         H            0.038538674228    -0.081721323434    -4.591973043352     1.007825032230
         H           -1.748461325772     1.015278676566    -0.160973043352     1.007825032230
         H           -2.368461325772     0.386278676566    -4.338973043352     1.007825032230
         H           -3.755461325772     1.118278676566    -1.132973043352     1.007825032230
         H            2.378888674228     1.308558676566    -4.414283043352     1.007825032230
         H            3.796478674228     1.031738676566    -3.326393043352     1.007825032230
         C           -0.765461325772     1.537278676566     4.100026956648    12.000000000000
         C            0.205538674228    -1.409721323434     1.975026956648    12.000000000000
         C            0.508538674228    -0.125721323434     2.481026956648    12.000000000000
         C           -0.593461325772     0.260278676566     3.339026956648    12.000000000000
         C           -1.486461325772    -0.751721323434     3.298026956648    12.000000000000
         C            2.262538674228    -1.524721323434     0.779026956648    12.000000000000
         C            1.074538674228    -2.111721323434     1.149026956648    12.000000000000
         C            2.590538674228    -0.249721323434     1.247026956648    12.000000000000
         C            1.733538674228     0.452278676566     2.108026956648    12.000000000000
         N           -1.014461325772    -1.758721323434     2.494026956648    14.003074004430
         H            2.935538674228    -2.044721323434     0.112026956648     1.007825032230
         H            0.804538674228    -3.089721323434     0.782026956648     1.007825032230
         H            3.514538674228     0.205278676566     0.939026956648     1.007825032230
         H            1.997538674228     1.430278676566     2.474026956648     1.007825032230
         H           -1.518461325772    -2.617721323434     2.306026956648     1.007825032230
         H           -2.426461325772    -0.768721323434     3.839026956648     1.007825032230
         H           -1.754461325772     1.542278676566     4.557026956648     1.007825032230
         H           -0.749461325772     2.345278676566     3.374026956648     1.007825032230
         H           -0.001251325772     1.731028676566     4.867126956648     1.007825032230

  Running in c1 symmetry.

  Rotational constants: A =      0.01606  B =      0.00848  C =      0.00655 [cm^-1]
  Rotational constants: A =    481.52672  B =    254.14849  C =    196.47947 [MHz]
  Nuclear repulsion = 1345.837795540281377

  Charge       = 0
  Multiplicity = 1
  Electrons    = 136
  Nalpha       = 68
  Nbeta        = 68

  ==> Algorithm <==

  SCF Algorithm Type is PK.
  DIIS enabled.
  MOM disabled.
  Fractional occupation disabled.
  Guess Type is SAD.
  Energy threshold   = 1.00e-06
  Density threshold  = 1.00e-10
  Integral threshold = 0.00e+00

  ==> Primary Basis <==

  Basis Set: CC-PVDZ
    Blend: CC-PVDZ
    Number of shells: 171
    Number of basis function: 361
    Number of Cartesian functions: 380
    Spherical Harmonics?: true
    Max angular momentum: 2

  ==> Pre-Iterations <==

   -------------------------------------------------------
    Irrep   Nso     Nmo     Nalpha   Nbeta   Ndocc  Nsocc
   -------------------------------------------------------
     A        361     361       0       0       0       0
   -------------------------------------------------------
    Total     361     361      68      68      68       0
   -------------------------------------------------------

  ==> Integral Setup <==

  Using Yoshimine PK algorithm.
  Sizing the integral batches needed.
  Building batch lookup table.
   Calculation information:
      Number of atoms:                  38
      Number of AO shells:             171
      Number of primitives:            513
      Number of atomic orbitals:       380
      Number of basis functions:       361

      Integral cutoff                 1.00e-12
      Number of threads:                 1

	Batch   1 pq = [       0,    9405] index = [             0,44231715] size =     44231715
	Batch   2 pq = [    9405,   13301] index = [      44231715,88464951] size =     44233236
	Batch   3 pq = [   13301,   16290] index = [      88464951,132690195] size =     44225244
	Batch   4 pq = [   16290,   18810] index = [     132690195,176917455] size =     44227260
	Batch   5 pq = [   18810,   21030] index = [     176917455,221140965] size =     44223510
	Batch   6 pq = [   21030,   23037] index = [     221140965,265363203] size =     44222238
	Batch   7 pq = [   23037,   24883] index = [     265363203,309594286] size =     44231083
	Batch   8 pq = [   24883,   26601] index = [     309594286,353819901] size =     44225615
	Batch   9 pq = [   26601,   28214] index = [     353819901,398029005] size =     44209104
	Batch  10 pq = [   28214,   29740] index = [     398029005,442248670] size =     44219665
	Batch  11 pq = [   29740,   31191] index = [     442248670,486454836] size =     44206166
	Batch  12 pq = [   31191,   32578] index = [     486454836,530679331] size =     44224495
	Batch  13 pq = [   32578,   33908] index = [     530679331,574893186] size =     44213855
	Batch  14 pq = [   33908,   35188] index = [     574893186,619115266] size =     44222080
	Batch  15 pq = [   35188,   36423] index = [     619115266,663335676] size =     44220410
	Batch  16 pq = [   36423,   37617] index = [     663335676,707538153] size =     44202477
	Batch  17 pq = [   37617,   38775] index = [     707538153,751769700] size =     44231547
	Batch  18 pq = [   38775,   39899] index = [     751769700,795985050] size =     44215350
	Batch  19 pq = [   39899,   40992] index = [     795985050,840192528] size =     44207478
	Batch  20 pq = [   40992,   42057] index = [     840192528,884416653] size =     44224125
	Batch  21 pq = [   42057,   43095] index = [     884416653,928611060] size =     44194407
	Batch  22 pq = [   43095,   44109] index = [     928611060,972823995] size =     44212935
	Batch  23 pq = [   44109,   45100] index = [     972823995,1017027550] size =     44203555
	Batch  24 pq = [   45100,   46070] index = [    1017027550,1061245485] size =     44217935
	Batch  25 pq = [   46070,   47020] index = [    1061245485,1105463710] size =     44218225
	Batch  26 pq = [   47020,   47951] index = [    1105463710,1149673176] size =     44209466
	Batch  27 pq = [   47951,   48864] index = [    1149673176,1193869680] size =     44196504
	Batch  28 pq = [   48864,   49761] index = [    1193869680,1238103441] size =     44233761
	Batch  29 pq = [   49761,   50642] index = [    1238103441,1282331403] size =     44227962
	Batch  30 pq = [   50642,   51508] index = [    1282331403,1326562786] size =     44231383
	Batch  31 pq = [   51508,   52359] index = [    1326562786,1370758620] size =     44195834
	Batch  32 pq = [   52359,   53197] index = [    1370758620,1414987003] size =     44228383
	Batch  33 pq = [   53197,   54022] index = [    1414987003,1459215253] size =     44228250
	Batch  34 pq = [   54022,   54834] index = [    1459215253,1503411195] size =     44195942
	Batch  35 pq = [   54834,   55634] index = [    1503411195,1547598795] size =     44187600
	Batch  36 pq = [   55634,   56423] index = [    1547598795,1591805676] size =     44206881
	Batch  37 pq = [   56423,   57201] index = [    1591805676,1636005801] size =     44200125
	Batch  38 pq = [   57201,   57969] index = [    1636005801,1680231465] size =     44225664
	Batch  39 pq = [   57969,   58727] index = [    1680231465,1724459628] size =     44228163
	Batch  40 pq = [   58727,   59475] index = [    1724459628,1768667550] size =     44207922
	Batch  41 pq = [   59475,   60214] index = [    1768667550,1812893005] size =     44225455
	Batch  42 pq = [   60214,   60944] index = [    1812893005,1857116040] size =     44223035
	Batch  43 pq = [   60944,   61665] index = [    1857116040,1901316945] size =     44200905
	Batch  44 pq = [   61665,   62378] index = [    1901316945,1945538631] size =     44221686
	Batch  45 pq = [   62378,   63083] index = [    1945538631,1989763986] size =     44225355
	Batch  46 pq = [   63083,   63780] index = [    1989763986,2033976090] size =     44212104
	Batch  47 pq = [   63780,   64469] index = [    2033976090,2078158215] size =     44182125
	Batch  48 pq = [   64469,   65151] index = [    2078158215,2122358976] size =     44200761
	Batch  49 pq = [   65151,   65341] index = [    2122358976,2134755811] size =     12396835
  ==> DiskJK: Disk-Based J/K Matrices <==

    J tasked:                  Yes
    K tasked:                  Yes
    wK tasked:                  No
    Memory [MiB]:              375
    Schwarz Cutoff:          1E-12

    OpenMP threads:              1

  Minimum eigenvalue in the overlap matrix is 2.3991345519E-04.
  Using Symmetric Orthogonalization.

  SCF Guess: Superposition of Atomic Densities via on-the-fly atomic UHF.

  ==> Iterations <==

                        Total Energy        Delta E     RMS |[F,P]|

   @RHF iter SAD:  -783.53260742419820   -7.83533e+02   0.00000e+00
   @RHF iter   1:  -783.79181838923080   -2.59211e-01   2.13621e-03 DIIS
   @RHF iter   2:  -784.13126269096165   -3.39444e-01   9.26346e-04 DIIS
   @RHF iter   3:  -784.18822847136425   -5.69658e-02   2.45906e-04 DIIS
   @RHF iter   4:  -784.19359330163866   -5.36483e-03   1.10839e-04 DIIS
   @RHF iter   5:  -784.19450671195011   -9.13410e-04   1.55406e-05 DIIS
   @RHF iter   6:  -784.19454531395240   -3.86020e-05   6.84316e-06 DIIS
   @RHF iter   7:  -784.19455193442684   -6.62047e-06   2.74796e-06 DIIS
   @RHF iter   8:  -784.19455361037978   -1.67595e-06   1.08977e-06 DIIS
   @RHF iter   9:  -784.19455394780573   -3.37426e-07   4.84488e-07 DIIS
   @RHF iter  10:  -784.19455401694643   -6.91407e-08   2.42812e-07 DIIS
   @RHF iter  11:  -784.19455403823986   -2.12934e-08   9.57173e-08 DIIS
   @RHF iter  12:  -784.19455404139376   -3.15390e-09   3.84417e-08 DIIS
   @RHF iter  13:  -784.19455404177825   -3.84489e-10   1.32836e-08 DIIS
   @RHF iter  14:  -784.19455404181508   -3.68345e-11   4.70102e-09 DIIS
   @RHF iter  15:  -784.19455404182725   -1.21645e-11   1.86977e-09 DIIS
   @RHF iter  16:  -784.19455404181622    1.10276e-11   8.97276e-10 DIIS
   @RHF iter  17:  -784.19455404182656   -1.03455e-11   4.49561e-10 DIIS
   @RHF iter  18:  -784.19455404182418    2.38742e-12   1.77494e-10 DIIS
   @RHF iter  19:  -784.19455404180906    1.51203e-11   8.31136e-11 DIIS
  Energy and wave function converged.

  ==> Post-Iterations <==

    Orbital Energies [Eh]
    ---------------------

    Doubly Occupied:

       1A    -20.573934     2A    -15.604939     3A    -11.287441
       4A    -11.269646     5A    -11.268980     6A    -11.239246
       7A    -11.234820     8A    -11.233524     9A    -11.231569
      10A    -11.228480    11A    -11.227821    12A    -11.226543
      13A    -11.223888    14A    -11.219584    15A    -11.218909
      16A    -11.217097    17A    -11.216436    18A    -11.215376
      19A    -11.214709    20A     -1.393547    21A     -1.301598
      22A     -1.145455    23A     -1.135604    24A     -1.079527
      25A     -1.049456    26A     -1.009365    27A     -1.002296
      28A     -0.998003    29A     -0.967872    30A     -0.936753
      31A     -0.853337    32A     -0.847065    33A     -0.830174
      34A     -0.809495    35A     -0.784978    36A     -0.758611
      37A     -0.725489    38A     -0.724481    39A     -0.670502
      40A     -0.661134    41A     -0.650595    42A     -0.638419
      43A     -0.607883    44A     -0.603496    45A     -0.598823
      46A     -0.593739    47A     -0.590227    48A     -0.578645
      49A     -0.574612    50A     -0.574422    51A     -0.558101
      52A     -0.555631    53A     -0.542868    54A     -0.542060
      55A     -0.536297    56A     -0.508295    57A     -0.502201
      58A     -0.487757    59A     -0.478679    60A     -0.476192
      61A     -0.464214    62A     -0.456855    63A     -0.454051
      64A     -0.377999    65A     -0.328900    66A     -0.302187
      67A     -0.292319    68A     -0.283699

    Virtual:

      69A      0.119052    70A      0.142556    71A      0.159870
      72A      0.167736    73A      0.172978    74A      0.180006
      75A      0.185817    76A      0.195786    77A      0.202745
      78A      0.213885    79A      0.222253    80A      0.224800
      81A      0.235212    82A      0.243590    83A      0.246894
      84A      0.258655    85A      0.272157    86A      0.274735
      87A      0.279243    88A      0.281845    89A      0.290883
      90A      0.302547    91A      0.324106    92A      0.345912
      93A      0.361894    94A      0.369961    95A      0.378463
      96A      0.394393    97A      0.405173    98A      0.414981
      99A      0.419376   100A      0.436310   101A      0.437904
     102A      0.472344   103A      0.476956   104A      0.482652
     105A      0.483647   106A      0.498697   107A      0.512156
     108A      0.524615   109A      0.533452   110A      0.589243
     111A      0.597733   112A      0.607466   113A      0.611127
     114A      0.621613   115A      0.627136   116A      0.636193
     117A      0.654811   118A      0.658214   119A      0.670780
     120A      0.680698   121A      0.690800   122A      0.699167
     123A      0.705719   124A      0.711202   125A      0.719233
     126A      0.723588   127A      0.729494   128A      0.732250
     129A      0.734416   130A      0.740662   131A      0.746702
     132A      0.755960   133A      0.763911   134A      0.766002
     135A      0.771768   136A      0.780270   137A      0.791362
     138A      0.793959   139A      0.801854   140A      0.812767
     141A      0.822346   142A      0.837241   143A      0.848844
     144A      0.856462   145A      0.861584   146A      0.866107
     147A      0.870040   148A      0.874120   149A      0.878500
     150A      0.882925   151A      0.884730   152A      0.888702
     153A      0.897658   154A      0.905109   155A      0.906502
     156A      0.913485   157A      0.921747   158A      0.923337
     159A      0.930816   160A      0.942048   161A      0.947010
     162A      0.950238   163A      0.957125   164A      0.966537
     165A      0.972200   166A      0.979789   167A      0.987178
     168A      0.994753   169A      1.007749   170A      1.019005
     171A      1.032053   172A      1.051923   173A      1.060697
     174A      1.066938   175A      1.082281   176A      1.096880
     177A      1.112546   178A      1.117628   179A      1.125998
     180A      1.140921   181A      1.150994   182A      1.160031
     183A      1.166152   184A      1.182953   185A      1.205560
     186A      1.207647   187A      1.216942   188A      1.221914
     189A      1.227256   190A      1.231726   191A      1.252683
     192A      1.257944   193A      1.261143   194A      1.266790
     195A      1.274609   196A      1.281008   197A      1.291196
     198A      1.294520   199A      1.305177   200A      1.319791
     201A      1.323568   202A      1.334365   203A      1.352807
     204A      1.358181   205A      1.359926   206A      1.365994
     207A      1.369786   208A      1.382874   209A      1.388176
     210A      1.421201   211A      1.441153   212A      1.455306
     213A      1.458468   214A      1.505103   215A      1.506186
     216A      1.542661   217A      1.557222   218A      1.571175
     219A      1.575234   220A      1.588279   221A      1.619025
     222A      1.626805   223A      1.628910   224A      1.644526
     225A      1.648772   226A      1.654779   227A      1.679582
     228A      1.686037   229A      1.691188   230A      1.710905
     231A      1.731943   232A      1.737491   233A      1.754762
     234A      1.766285   235A      1.774084   236A      1.783573
     237A      1.792495   238A      1.813661   239A      1.814793
     240A      1.820928   241A      1.837811   242A      1.858665
     243A      1.874118   244A      1.879299   245A      1.884876
     246A      1.888203   247A      1.898253   248A      1.901714
     249A      1.907878   250A      1.913232   251A      1.917217
     252A      1.922670   253A      1.927500   254A      1.932233
     255A      1.938576   256A      1.945836   257A      1.951486
     258A      1.962324   259A      1.963213   260A      1.971424
     261A      1.973663   262A      1.980784   263A      1.997879
     264A      2.007922   265A      2.008810   266A      2.015379
     267A      2.024721   268A      2.036081   269A      2.041829
     270A      2.051668   271A      2.060272   272A      2.075390
     273A      2.081768   274A      2.085692   275A      2.089469
     276A      2.091674   277A      2.101609   278A      2.103558
     279A      2.113043   280A      2.120694   281A      2.127383
     282A      2.135529   283A      2.148133   284A      2.159134
     285A      2.160359   286A      2.172664   287A      2.183123
     288A      2.198680   289A      2.216771   290A      2.219730
     291A      2.231600   292A      2.260172   293A      2.283672
     294A      2.291267   295A      2.297570   296A      2.300872
     297A      2.321398   298A      2.323879   299A      2.334580
     300A      2.340315   301A      2.347375   302A      2.367960
     303A      2.377020   304A      2.396042   305A      2.431484
     306A      2.448862   307A      2.465061   308A      2.466960
     309A      2.469984   310A      2.485375   311A      2.508576
     312A      2.529927   313A      2.540878   314A      2.554025
     315A      2.569362   316A      2.582970   317A      2.589386
     318A      2.605285   319A      2.638074   320A      2.644258
     321A      2.651707   322A      2.672093   323A      2.680671
     324A      2.692308   325A      2.772212   326A      2.781593
     327A      2.784510   328A      2.786364   329A      2.789127
     330A      2.800039   331A      2.819611   332A      2.823823
     333A      2.848596   334A      2.871499   335A      2.874961
     336A      2.882380   337A      2.894638   338A      2.910409
     339A      2.934714   340A      2.963003   341A      2.990337
     342A      3.011206   343A      3.032809   344A      3.040927
     345A      3.060120   346A      3.082746   347A      3.122390
     348A      3.134519   349A      3.194153   350A      3.204855
     351A      3.262235   352A      3.295368   353A      3.323235
     354A      3.360986   355A      3.384726   356A      3.595534
     357A      3.693408   358A      3.741807   359A      3.947838
     360A      4.012806   361A      4.207145

    Final Occupation by Irrep:
              A
    DOCC [    68 ]

  @RHF Final Energy:  -784.19455404180906

   => Energetics <=

    Nuclear Repulsion Energy =           1345.8377955402813768
    One-Electron Energy =               -3738.0709968525748081
    Two-Electron Energy =                1608.0386472704840344
    Total Energy =                       -784.1945540418091696

Computation Completed

Properties will be evaluated at   0.000000,   0.000000,   0.000000 [a0]

Properties computed using the SCF density matrix

  Nuclear Dipole Moment: [e a0]
     X:     8.2992      Y:     4.8611      Z:    -2.8118

  Electronic Dipole Moment: [e a0]
     X:    -8.6534      Y:    -5.4085      Z:     3.6977

  Dipole Moment: [e a0]
     X:    -0.3542      Y:    -0.5474      Z:     0.8859     Total:     1.0999

  Dipole Moment: [D]
     X:    -0.9003      Y:    -1.3913      Z:     2.2517     Total:     2.7958

*** tstop() called on ds3 at Tue Apr 28 13:20:18 2020
Module time:
	user time   =     633.64 seconds =      10.56 minutes
	system time =     580.02 seconds =       9.67 minutes
	total time  =      11406 seconds =     190.10 minutes
Total time:
	user time   =     633.64 seconds =      10.56 minutes
	system time =     580.02 seconds =       9.67 minutes
	total time  =      11406 seconds =     190.10 minutes
                                     G D M A

                                 by Anthony Stone

                           version 2.2.06, 22 June 2011

               Distributed Multipoles from Gaussian wavefunctions

Starting at 13:20:18 on 28 Apr 2020

Using SCF density matrix from file ./SSI/SSI-179TYR-258TRP-1-dimer.test.1302.fchk

                         Distributed Multipole Analysis

Standard DMA

Positions and radii in angstrom
Multipole moments in atomic units, ea_0^k for rank k

C          x =  2.000539  y =  0.020279  z = -2.708973 angstrom
           Maximum rank =  0   Radius =  0.650 angstrom
                   Q00  =  -0.028463

C          x =  2.710539  y =  1.201279  z = -3.370973 angstrom
           Maximum rank =  0   Radius =  0.650 angstrom
                   Q00  =  -0.235092

C          x =  0.517539  y =  0.250279  z = -2.531973 angstrom
           Maximum rank =  0   Radius =  0.650 angstrom
                   Q00  =  -0.163578

C          x = -0.006461  y =  0.553279  z = -1.288973 angstrom
           Maximum rank =  0   Radius =  0.650 angstrom
                   Q00  =  -0.028841

C          x = -0.344461  y =  0.193279  z = -3.618973 angstrom
           Maximum rank =  0   Radius =  0.650 angstrom
                   Q00  =   0.065695

C          x = -1.356461  y =  0.794279  z = -1.140973 angstrom
           Maximum rank =  0   Radius =  0.650 angstrom
                   Q00  =  -0.176137

C          x = -1.704461  y =  0.440279  z = -3.489973 angstrom
           Maximum rank =  0   Radius =  0.650 angstrom
                   Q00  =  -0.131589

C          x = -2.204461  y =  0.756279  z = -2.240973 angstrom
           Maximum rank =  0   Radius =  0.650 angstrom
                   Q00  =   0.275505

O          x = -3.528461  y =  0.999279  z = -2.058973 angstrom
           Maximum rank =  0   Radius =  0.650 angstrom
                   Q00  =  -0.641031

H          x =  2.152539  y = -0.879721  z = -3.304973 angstrom
           Maximum rank =  0   Radius =  0.325 angstrom
                   Q00  =   0.061124

H          x =  2.450539  y = -0.154721  z = -1.731973 angstrom
           Maximum rank =  0   Radius =  0.325 angstrom
                   Q00  =   0.068918

H          x =  2.478539  y =  2.101279  z = -2.800973 angstrom
           Maximum rank =  0   Radius =  0.325 angstrom
                   Q00  =   0.082900

H          x =  0.642539  y =  0.596279  z = -0.427973 angstrom
           Maximum rank =  0   Radius =  0.325 angstrom
                   Q00  =   0.086391

H          x =  0.038539  y = -0.081721  z = -4.591973 angstrom
           Maximum rank =  0   Radius =  0.325 angstrom
                   Q00  =   0.054364

H          x = -1.748461  y =  1.015279  z = -0.160973 angstrom
           Maximum rank =  0   Radius =  0.325 angstrom
                   Q00  =   0.065877

H          x = -2.368461  y =  0.386279  z = -4.338973 angstrom
           Maximum rank =  0   Radius =  0.325 angstrom
                   Q00  =   0.075759

H          x = -3.755461  y =  1.118279  z = -1.132973 angstrom
           Maximum rank =  0   Radius =  0.325 angstrom
                   Q00  =   0.404339

H          x =  2.378889  y =  1.308559  z = -4.414283 angstrom
           Maximum rank =  0   Radius =  0.325 angstrom
                   Q00  =   0.080186

H          x =  3.796479  y =  1.031739  z = -3.326393 angstrom
           Maximum rank =  0   Radius =  0.325 angstrom
                   Q00  =   0.074785

C          x = -0.765461  y =  1.537279  z =  4.100027 angstrom
           Maximum rank =  0   Radius =  0.650 angstrom
                   Q00  =  -0.200681

C          x =  0.205539  y = -1.409721  z =  1.975027 angstrom
           Maximum rank =  0   Radius =  0.650 angstrom
                   Q00  =   0.270818

C          x =  0.508539  y = -0.125721  z =  2.481027 angstrom
           Maximum rank =  0   Radius =  0.650 angstrom
                   Q00  =  -0.067646

C          x = -0.593461  y =  0.260279  z =  3.339027 angstrom
           Maximum rank =  0   Radius =  0.650 angstrom
                   Q00  =  -0.125797

C          x = -1.486461  y = -0.751721  z =  3.298027 angstrom
           Maximum rank =  0   Radius =  0.650 angstrom
                   Q00  =   0.078097

C          x =  2.262539  y = -1.524721  z =  0.779027 angstrom
           Maximum rank =  0   Radius =  0.650 angstrom
                   Q00  =  -0.072526

C          x =  1.074539  y = -2.111721  z =  1.149027 angstrom
           Maximum rank =  0   Radius =  0.650 angstrom
                   Q00  =  -0.111476

C          x =  2.590539  y = -0.249721  z =  1.247027 angstrom
           Maximum rank =  0   Radius =  0.650 angstrom
                   Q00  =  -0.059040

C          x =  1.733539  y =  0.452279  z =  2.108027 angstrom
           Maximum rank =  0   Radius =  0.650 angstrom
                   Q00  =  -0.098264

N          x = -1.014461  y = -1.758721  z =  2.494027 angstrom
           Maximum rank =  0   Radius =  0.650 angstrom
                   Q00  =  -0.500897

H          x =  2.935539  y = -2.044721  z =  0.112027 angstrom
           Maximum rank =  0   Radius =  0.325 angstrom
                   Q00  =   0.068219

H          x =  0.804539  y = -3.089721  z =  0.782027 angstrom
           Maximum rank =  0   Radius =  0.325 angstrom
                   Q00  =   0.076461

H          x =  3.514539  y =  0.205279  z =  0.939027 angstrom
           Maximum rank =  0   Radius =  0.325 angstrom
                   Q00  =   0.061838

H          x =  1.997539  y =  1.430279  z =  2.474027 angstrom
           Maximum rank =  0   Radius =  0.325 angstrom
                   Q00  =   0.072822

H          x = -1.518461  y = -2.617721  z =  2.306027 angstrom
           Maximum rank =  0   Radius =  0.325 angstrom
                   Q00  =   0.216868

H          x = -2.426461  y = -0.768721  z =  3.839027 angstrom
           Maximum rank =  0   Radius =  0.325 angstrom
                   Q00  =   0.102284

H          x = -1.754461  y =  1.542279  z =  4.557027 angstrom
           Maximum rank =  0   Radius =  0.325 angstrom
                   Q00  =   0.102211

H          x = -0.749461  y =  2.345279  z =  3.374027 angstrom
           Maximum rank =  0   Radius =  0.325 angstrom
                   Q00  =   0.095692

H          x = -0.001251  y =  1.731029  z =  4.867127 angstrom
           Maximum rank =  0   Radius =  0.325 angstrom
                   Q00  =   0.099900

Total multipoles referred to origin at
           x =   0.000000,  y =    0.000000,  z =    0.000000 angstrom
                   Q00  =  -0.000000

Finished at 13:20:18 on 28 Apr 2020

  DMA results are available in the Python driver through the
	  variable('DMA DISTRIBUTED MULTIPOLES')
  and
	  variable('DMA TOTAL MULTIPOLES')
  commands.

    Psi4 stopped on: Tuesday, 28 April 2020 01:20PM
    Psi4 wall time for execution: 3:10:05.52

*** Psi4 exiting successfully. Buy a developer a beer!
