                               Psi4 1.3.2 release

  ==> Input File <==

--------------------------------------------------------------------------
import numpy as np
set {scf_type pk
basis cc-pvdz
d_convergence 10
gdma_switch   0
gdma_limit    0
gdma_origin   [ 0.0,  0.0,  0.0 ]
}
molecule test {
    units Angstrom
    0 1
    --
    0 1
    C                1.277820230520740    -0.675770077565520     0.780025119373218
    C                2.578820230520740    -1.353770077565519     1.206025119373219
    H                1.209820230520740    -0.627770077565520    -0.305974880626782
    H                0.416820230520740    -1.225770077565520     1.151025119373218
    H                1.226820230520740     0.336229922434480     1.183025119373218
    H                2.703820230520740    -1.209770077565520     2.272025119373219
    H                3.441360230520740    -0.897850077565520     0.697935119373219
    H                2.529892230520740    -2.433786077565520     1.003115119373218
    C               -1.767179769479260     0.286229922434480    -1.162974880626781
    C               -2.091179769479260     1.742229922434480    -0.829974880626782
    H               -0.786179769479260     0.208229922434480    -1.631974880626782
    H               -1.744179769479260    -0.292770077565520    -0.240974880626781
    H               -2.519179769479260    -0.123770077565520    -1.837974880626781
    H               -1.339179769479260     2.108229922434480    -0.137974880626782
    H               -2.046995769479260     2.367929922434481    -1.733604880626781
    H               -3.072349769479260     1.803729922434480    -0.336494880626782

}
e, wfn = energy('scf', return_wfn=True)
gdma(wfn)
dmavals = variable('DMA DISTRIBUTED MULTIPOLES')
charges = np.array(dmavals)
print(charges)
np.save('SSI-031VAL-073VAL-1-dimer.npy', np.array(charges))--------------------------------------------------------------------------

*** tstart() called on ds3
*** at Sun Apr 26 22:15:20 2020

   => Loading Basis Set <=

    Name: CC-PVDZ
    Role: ORBITAL
    Keyword: BASIS
    atoms 1-2, 9-10  entry C          line   138 file /theoryfs2/ds/metcalf/miniconda2/envs/tf2gpu/share/psi4/basis/cc-pvdz.gbs
    atoms 3-8, 11-16 entry H          line    22 file /theoryfs2/ds/metcalf/miniconda2/envs/tf2gpu/share/psi4/basis/cc-pvdz.gbs

         ---------------------------------------------------------
                                   SCF
               by Justin Turney, Rob Parrish, Andy Simmonett
                          and Daniel G. A. Smith
                              RHF Reference
                        1 Threads,    500 MiB Core
         ---------------------------------------------------------

  ==> Geometry <==

    Molecular point group: c1
    Full point group: C1

    Geometry (in Angstrom), charge = 0, multiplicity = 1:

       Center              X                  Y                   Z               Mass
    ------------   -----------------  -----------------  -----------------  -----------------
         C            1.277820230521    -0.675770077566     0.780025119373    12.000000000000
         C            2.578820230521    -1.353770077566     1.206025119373    12.000000000000
         H            1.209820230521    -0.627770077566    -0.305974880627     1.007825032230
         H            0.416820230521    -1.225770077566     1.151025119373     1.007825032230
         H            1.226820230521     0.336229922434     1.183025119373     1.007825032230
         H            2.703820230521    -1.209770077566     2.272025119373     1.007825032230
         H            3.441360230521    -0.897850077566     0.697935119373     1.007825032230
         H            2.529892230521    -2.433786077566     1.003115119373     1.007825032230
         C           -1.767179769479     0.286229922434    -1.162974880627    12.000000000000
         C           -2.091179769479     1.742229922434    -0.829974880627    12.000000000000
         H           -0.786179769479     0.208229922434    -1.631974880627     1.007825032230
         H           -1.744179769479    -0.292770077566    -0.240974880627     1.007825032230
         H           -2.519179769479    -0.123770077566    -1.837974880627     1.007825032230
         H           -1.339179769479     2.108229922434    -0.137974880627     1.007825032230
         H           -2.046995769479     2.367929922434    -1.733604880627     1.007825032230
         H           -3.072349769479     1.803729922434    -0.336494880627     1.007825032230

  Running in c1 symmetry.

  Rotational constants: A =      0.62042  B =      0.04434  C =      0.04278 [cm^-1]
  Rotational constants: A =  18599.66537  B =   1329.14081  C =   1282.53282 [MHz]
  Nuclear repulsion =  121.179317312637878

  Charge       = 0
  Multiplicity = 1
  Electrons    = 36
  Nalpha       = 18
  Nbeta        = 18

  ==> Algorithm <==

  SCF Algorithm Type is PK.
  DIIS enabled.
  MOM disabled.
  Fractional occupation disabled.
  Guess Type is SAD.
  Energy threshold   = 1.00e-06
  Density threshold  = 1.00e-10
  Integral threshold = 0.00e+00

  ==> Primary Basis <==

  Basis Set: CC-PVDZ
    Blend: CC-PVDZ
    Number of shells: 60
    Number of basis function: 116
    Number of Cartesian functions: 120
    Spherical Harmonics?: true
    Max angular momentum: 2

  ==> Pre-Iterations <==

   -------------------------------------------------------
    Irrep   Nso     Nmo     Nalpha   Nbeta   Ndocc  Nsocc
   -------------------------------------------------------
     A        116     116       0       0       0       0
   -------------------------------------------------------
    Total     116     116      18      18      18       0
   -------------------------------------------------------

  ==> Integral Setup <==

  Using integral reordering PK algorithm.
  Sizing the integral batches needed.
  Building batch lookup table.
   Calculation information:
      Number of atoms:                  16
      Number of AO shells:              60
      Number of primitives:            148
      Number of atomic orbitals:       120
      Number of basis functions:       116

      Integral cutoff                 1.00e-12
      Number of threads:                 1

	Batch   1 pq = [       0,    6786] index = [             0,23028291] size =     23028291
  Task number: 3
  Buffer size: 11059200
  Buffer per thread: 2
  We computed 1384341 shell quartets total.
  Whereas there are 1675365 unique shell quartets.

  ==> DiskJK: Disk-Based J/K Matrices <==

    J tasked:                  Yes
    K tasked:                  Yes
    wK tasked:                  No
    Memory [MiB]:              375
    Schwarz Cutoff:          1E-12

    OpenMP threads:              1

  Minimum eigenvalue in the overlap matrix is 6.7843963802E-03.
  Using Symmetric Orthogonalization.

  SCF Guess: Superposition of Atomic Densities via on-the-fly atomic UHF.

  ==> Iterations <==

                        Total Energy        Delta E     RMS |[F,P]|

   @RHF iter SAD:  -157.35144651587066   -1.57351e+02   0.00000e+00
   @RHF iter   1:  -158.30712149130468   -9.55675e-01   4.22389e-03 DIIS
   @RHF iter   2:  -158.44101194364276   -1.33890e-01   1.80262e-03 DIIS
   @RHF iter   3:  -158.46456821857919   -2.35563e-02   3.49442e-04 DIIS
   @RHF iter   4:  -158.46639455149261   -1.82633e-03   3.84147e-05 DIIS
   @RHF iter   5:  -158.46641764307037   -2.30916e-05   6.29229e-06 DIIS
   @RHF iter   6:  -158.46641823918017   -5.96110e-07   8.66300e-07 DIIS
   @RHF iter   7:  -158.46641824744555   -8.26537e-09   2.67337e-07 DIIS
   @RHF iter   8:  -158.46641824803626   -5.90717e-10   3.89459e-08 DIIS
   @RHF iter   9:  -158.46641824805801   -2.17426e-11   7.72615e-09 DIIS
   @RHF iter  10:  -158.46641824805877   -7.67386e-13   1.83318e-09 DIIS
   @RHF iter  11:  -158.46641824805891   -1.42109e-13   4.04838e-10 DIIS
   @RHF iter  12:  -158.46641824805911   -1.98952e-13   1.28964e-10 DIIS
   @RHF iter  13:  -158.46641824805897    1.42109e-13   2.29862e-11 DIIS
  Energy and wave function converged.

  ==> Post-Iterations <==

    Orbital Energies [Eh]
    ---------------------

    Doubly Occupied:

       1A    -11.218736     2A    -11.218034     3A    -11.216318
       4A    -11.215394     5A     -1.019381     6A     -1.017028
       7A     -0.839724     8A     -0.834309     9A     -0.600211
      10A     -0.598904    11A     -0.596908    12A     -0.595243
      13A     -0.504327    14A     -0.497219    15A     -0.489465
      16A     -0.487829    17A     -0.482999    18A     -0.480231

    Virtual:

      19A      0.172522    20A      0.194617    21A      0.226370
      22A      0.228237    23A      0.232603    24A      0.259681
      25A      0.265655    26A      0.276657    27A      0.277777
      28A      0.306132    29A      0.317713    30A      0.351229
      31A      0.393807    32A      0.400575    33A      0.565295
      34A      0.592875    35A      0.594254    36A      0.602086
      37A      0.607282    38A      0.628130    39A      0.680081
      40A      0.688679    41A      0.699316    42A      0.763998
      43A      0.844215    44A      0.862958    45A      0.884646
      46A      0.886878    47A      0.893433    48A      0.895167
      49A      0.902088    50A      0.908100    51A      0.916691
      52A      0.928439    53A      0.950422    54A      0.958569
      55A      0.975028    56A      0.990047    57A      1.120767
      58A      1.126407    59A      1.131079    60A      1.147611
      61A      1.216738    62A      1.256320    63A      1.471592
      64A      1.473604    65A      1.482019    66A      1.494468
      67A      1.569810    68A      1.591197    69A      1.680769
      70A      1.682939    71A      1.697368    72A      1.699577
      73A      1.855604    74A      1.857794    75A      1.867559
      76A      1.882294    77A      1.897150    78A      1.912833
      79A      1.936642    80A      1.939026    81A      1.943656
      82A      1.945899    83A      1.952016    84A      1.954665
      85A      1.959133    86A      1.971436    87A      1.973573
      88A      2.054240    89A      2.099819    90A      2.114002
      91A      2.116504    92A      2.130985    93A      2.294139
      94A      2.302512    95A      2.316195    96A      2.347919
      97A      2.441182    98A      2.454058    99A      2.465839
     100A      2.467784   101A      2.562211   102A      2.565017
     103A      2.577138   104A      2.582491   105A      2.762883
     106A      2.766578   107A      2.783483   108A      2.798571
     109A      2.851103   110A      2.852565   111A      2.860711
     112A      2.865270   113A      2.942687   114A      2.949277
     115A      2.971178   116A      2.981939

    Final Occupation by Irrep:
              A
    DOCC [    18 ]

  @RHF Final Energy:  -158.46641824805897

   => Energetics <=

    Nuclear Repulsion Energy =            121.1793173126378775
    One-Electron Energy =                -451.4669468142499795
    Two-Electron Energy =                 171.8212112535531446
    Total Energy =                       -158.4664182480589716

Computation Completed

Properties will be evaluated at   0.000000,   0.000000,   0.000000 [a0]

Properties computed using the SCF density matrix

  Nuclear Dipole Moment: [e a0]
     X:     0.0192      Y:     0.0121      Z:     0.0770

  Electronic Dipole Moment: [e a0]
     X:    -0.0093      Y:    -0.0180      Z:    -0.0580

  Dipole Moment: [e a0]
     X:     0.0099      Y:    -0.0059      Z:     0.0190     Total:     0.0222

  Dipole Moment: [D]
     X:     0.0251      Y:    -0.0150      Z:     0.0482     Total:     0.0564

*** tstop() called on ds3 at Sun Apr 26 22:15:31 2020
Module time:
	user time   =       7.69 seconds =       0.13 minutes
	system time =       3.08 seconds =       0.05 minutes
	total time  =         11 seconds =       0.18 minutes
Total time:
	user time   =       7.69 seconds =       0.13 minutes
	system time =       3.08 seconds =       0.05 minutes
	total time  =         11 seconds =       0.18 minutes
                                     G D M A

                                 by Anthony Stone

                           version 2.2.06, 22 June 2011

               Distributed Multipoles from Gaussian wavefunctions

Starting at 22:15:31 on 26 Apr 2020

Using SCF density matrix from file ./SSI/SSI-031VAL-073VAL-1-dimer.test.9860.fchk

                         Distributed Multipole Analysis

Standard DMA

Positions and radii in angstrom
Multipole moments in atomic units, ea_0^k for rank k

C          x =  1.277820  y = -0.675770  z =  0.780025 angstrom
           Maximum rank =  0   Radius =  0.650 angstrom
                   Q00  =  -0.231322

C          x =  2.578820  y = -1.353770  z =  1.206025 angstrom
           Maximum rank =  0   Radius =  0.650 angstrom
                   Q00  =  -0.243497

H          x =  1.209820  y = -0.627770  z = -0.305975 angstrom
           Maximum rank =  0   Radius =  0.325 angstrom
                   Q00  =   0.079334

H          x =  0.416820  y = -1.225770  z =  1.151025 angstrom
           Maximum rank =  0   Radius =  0.325 angstrom
                   Q00  =   0.079547

H          x =  1.226820  y =  0.336230  z =  1.183025 angstrom
           Maximum rank =  0   Radius =  0.325 angstrom
                   Q00  =   0.077880

H          x =  2.703820  y = -1.209770  z =  2.272025 angstrom
           Maximum rank =  0   Radius =  0.325 angstrom
                   Q00  =   0.078992

H          x =  3.441360  y = -0.897850  z =  0.697935 angstrom
           Maximum rank =  0   Radius =  0.325 angstrom
                   Q00  =   0.080033

H          x =  2.529892  y = -2.433786  z =  1.003115 angstrom
           Maximum rank =  0   Radius =  0.325 angstrom
                   Q00  =   0.079720

C          x = -1.767180  y =  0.286230  z = -1.162975 angstrom
           Maximum rank =  0   Radius =  0.650 angstrom
                   Q00  =  -0.241354

C          x = -2.091180  y =  1.742230  z = -0.829975 angstrom
           Maximum rank =  0   Radius =  0.650 angstrom
                   Q00  =  -0.232140

H          x = -0.786180  y =  0.208230  z = -1.631975 angstrom
           Maximum rank =  0   Radius =  0.325 angstrom
                   Q00  =   0.079611

H          x = -1.744180  y = -0.292770  z = -0.240975 angstrom
           Maximum rank =  0   Radius =  0.325 angstrom
                   Q00  =   0.079706

H          x = -2.519180  y = -0.123770  z = -1.837975 angstrom
           Maximum rank =  0   Radius =  0.325 angstrom
                   Q00  =   0.077873

H          x = -1.339180  y =  2.108230  z = -0.137975 angstrom
           Maximum rank =  0   Radius =  0.325 angstrom
                   Q00  =   0.077821

H          x = -2.046996  y =  2.367930  z = -1.733605 angstrom
           Maximum rank =  0   Radius =  0.325 angstrom
                   Q00  =   0.078845

H          x = -3.072350  y =  1.803730  z = -0.336495 angstrom
           Maximum rank =  0   Radius =  0.325 angstrom
                   Q00  =   0.078949

Total multipoles referred to origin at
           x =   0.000000,  y =    0.000000,  z =    0.000000 angstrom
                   Q00  =  -0.000000

Finished at 22:15:31 on 26 Apr 2020

  DMA results are available in the Python driver through the
	  variable('DMA DISTRIBUTED MULTIPOLES')
  and
	  variable('DMA TOTAL MULTIPOLES')
  commands.

    Psi4 stopped on: Sunday, 26 April 2020 10:15PM
    Psi4 wall time for execution: 0:00:10.57

*** Psi4 exiting successfully. Buy a developer a beer!
