                               Psi4 1.3.2 release

  ==> Input File <==

--------------------------------------------------------------------------
import numpy as np
set {scf_type pk
basis cc-pvdz
d_convergence 10
gdma_switch   0
gdma_limit    0
gdma_origin   [ 0.0,  0.0,  0.0 ]
}
molecule test {
    units Angstrom
    0 1
    --
    0 1
    C                3.512227942101823    -1.097804981511616     1.609557429729509
    C                0.006227942101824    -0.916804981511616     0.260557429729509
    C                1.086227942101824    -0.322804981511616     0.967557429729509
    C                2.151227942101823    -1.286804981511616     1.008557429729509
    C                1.694227942101824    -2.379804981511616     0.331557429729509
    C               -1.326772057898176     1.026195018488384     0.544557429729509
    C               -1.195772057898176    -0.258804981511616     0.046557429729509
    C               -0.279772057898176     1.641195018488384     1.249557429729509
    C                0.929227942101824     0.978195018488384     1.464557429729509
    N                0.412227942101824    -2.168804981511616    -0.110442570270491
    H               -2.253772057898177     1.564195018488384     0.395557429729509
    H               -1.994772057898176    -0.735804981511616    -0.496442570270491
    H               -0.416772057898176     2.643195018488384     1.632557429729509
    H                1.740227942101824     1.456195018488384     1.985557429729509
    H               -0.167772057898176    -2.860804981511616    -0.598442570270491
    H                2.268227942101823    -3.275804981511616     0.139557429729509
    H                3.763227942101823    -1.950804981511616     2.241557429729509
    H                3.499227942101824    -0.202804981511616     2.233557429729509
    H                4.266747942101823    -0.976364981511616     0.818387829729509
    C               -3.079772057898177     1.856195018488384    -2.548442570270491
    C               -3.288772057898176     2.542195018488384    -3.886442570270491
    H               -2.703772057898176     0.845195018488384    -2.695442570270492
    H               -2.352772057898177     2.416195018488384    -1.965442570270491
    H               -4.003772057898177     1.825195018488384    -1.978442570270491
    H               -2.286772057898177     2.703195018488384    -4.287442570270491
    H               -3.720772057898176     3.527195018488384    -3.745442570270491
    H               -3.847012057898176     1.948175018488384    -4.625031570270490

}
e, wfn = energy('scf', return_wfn=True)
gdma(wfn)
dmavals = variable('DMA DISTRIBUTED MULTIPOLES')
charges = np.array(dmavals)
print(charges)
np.save('SSI-101TRP-177ILE-1-dimer.npy', np.array(charges))--------------------------------------------------------------------------

*** tstart() called on ds3
*** at Mon Apr 27 10:44:37 2020

   => Loading Basis Set <=

    Name: CC-PVDZ
    Role: ORBITAL
    Keyword: BASIS
    atoms 1-9, 20-21   entry C          line   138 file /theoryfs2/ds/metcalf/miniconda2/envs/tf2gpu/share/psi4/basis/cc-pvdz.gbs
    atoms 10           entry N          line   168 file /theoryfs2/ds/metcalf/miniconda2/envs/tf2gpu/share/psi4/basis/cc-pvdz.gbs
    atoms 11-19, 22-27 entry H          line    22 file /theoryfs2/ds/metcalf/miniconda2/envs/tf2gpu/share/psi4/basis/cc-pvdz.gbs

         ---------------------------------------------------------
                                   SCF
               by Justin Turney, Rob Parrish, Andy Simmonett
                          and Daniel G. A. Smith
                              RHF Reference
                        1 Threads,    500 MiB Core
         ---------------------------------------------------------

  ==> Geometry <==

    Molecular point group: c1
    Full point group: C1

    Geometry (in Angstrom), charge = 0, multiplicity = 1:

       Center              X                  Y                   Z               Mass
    ------------   -----------------  -----------------  -----------------  -----------------
         C            3.512227942102    -1.097804981512     1.609557429730    12.000000000000
         C            0.006227942102    -0.916804981512     0.260557429730    12.000000000000
         C            1.086227942102    -0.322804981512     0.967557429730    12.000000000000
         C            2.151227942102    -1.286804981512     1.008557429730    12.000000000000
         C            1.694227942102    -2.379804981512     0.331557429730    12.000000000000
         C           -1.326772057898     1.026195018488     0.544557429730    12.000000000000
         C           -1.195772057898    -0.258804981512     0.046557429730    12.000000000000
         C           -0.279772057898     1.641195018488     1.249557429730    12.000000000000
         C            0.929227942102     0.978195018488     1.464557429730    12.000000000000
         N            0.412227942102    -2.168804981512    -0.110442570270    14.003074004430
         H           -2.253772057898     1.564195018488     0.395557429730     1.007825032230
         H           -1.994772057898    -0.735804981512    -0.496442570270     1.007825032230
         H           -0.416772057898     2.643195018488     1.632557429730     1.007825032230
         H            1.740227942102     1.456195018488     1.985557429730     1.007825032230
         H           -0.167772057898    -2.860804981512    -0.598442570270     1.007825032230
         H            2.268227942102    -3.275804981512     0.139557429730     1.007825032230
         H            3.763227942102    -1.950804981512     2.241557429730     1.007825032230
         H            3.499227942102    -0.202804981512     2.233557429730     1.007825032230
         H            4.266747942102    -0.976364981512     0.818387829730     1.007825032230
         C           -3.079772057898     1.856195018488    -2.548442570270    12.000000000000
         C           -3.288772057898     2.542195018488    -3.886442570270    12.000000000000
         H           -2.703772057898     0.845195018488    -2.695442570270     1.007825032230
         H           -2.352772057898     2.416195018488    -1.965442570270     1.007825032230
         H           -4.003772057898     1.825195018488    -1.978442570270     1.007825032230
         H           -2.286772057898     2.703195018488    -4.287442570270     1.007825032230
         H           -3.720772057898     3.527195018488    -3.745442570270     1.007825032230
         H           -3.847012057898     1.948175018488    -4.625031570270     1.007825032230

  Running in c1 symmetry.

  Rotational constants: A =      0.05688  B =      0.01270  C =      0.01141 [cm^-1]
  Rotational constants: A =   1705.30753  B =    380.66736  C =    342.10793 [MHz]
  Nuclear repulsion =  638.438955088997659

  Charge       = 0
  Multiplicity = 1
  Electrons    = 88
  Nalpha       = 44
  Nbeta        = 44

  ==> Algorithm <==

  SCF Algorithm Type is PK.
  DIIS enabled.
  MOM disabled.
  Fractional occupation disabled.
  Guess Type is SAD.
  Energy threshold   = 1.00e-06
  Density threshold  = 1.00e-10
  Integral threshold = 0.00e+00

  ==> Primary Basis <==

  Basis Set: CC-PVDZ
    Blend: CC-PVDZ
    Number of shells: 117
    Number of basis function: 243
    Number of Cartesian functions: 255
    Spherical Harmonics?: true
    Max angular momentum: 2

  ==> Pre-Iterations <==

   -------------------------------------------------------
    Irrep   Nso     Nmo     Nalpha   Nbeta   Ndocc  Nsocc
   -------------------------------------------------------
     A        243     243       0       0       0       0
   -------------------------------------------------------
    Total     243     243      44      44      44       0
   -------------------------------------------------------

  ==> Integral Setup <==

  Using integral reordering PK algorithm.
  Sizing the integral batches needed.
  Building batch lookup table.
   Calculation information:
      Number of atoms:                  27
      Number of AO shells:             117
      Number of primitives:            339
      Number of atomic orbitals:       255
      Number of basis functions:       243

      Integral cutoff                 1.00e-12
      Number of threads:                 1

	Batch   1 pq = [       0,    9405] index = [             0,44231715] size =     44231715
	Batch   2 pq = [    9405,   13301] index = [      44231715,88464951] size =     44233236
	Batch   3 pq = [   13301,   16290] index = [      88464951,132690195] size =     44225244
	Batch   4 pq = [   16290,   18810] index = [     132690195,176917455] size =     44227260
	Batch   5 pq = [   18810,   21030] index = [     176917455,221140965] size =     44223510
	Batch   6 pq = [   21030,   23037] index = [     221140965,265363203] size =     44222238
	Batch   7 pq = [   23037,   24883] index = [     265363203,309594286] size =     44231083
	Batch   8 pq = [   24883,   26601] index = [     309594286,353819901] size =     44225615
	Batch   9 pq = [   26601,   28214] index = [     353819901,398029005] size =     44209104
	Batch  10 pq = [   28214,   29646] index = [     398029005,439457481] size =     41428476
  Task number: 40
  Buffer size: 11059200
  Buffer per thread: 2
  We computed 18548234 shell quartets total.
  Whereas there are 23829156 unique shell quartets.

  ==> DiskJK: Disk-Based J/K Matrices <==

    J tasked:                  Yes
    K tasked:                  Yes
    wK tasked:                  No
    Memory [MiB]:              375
    Schwarz Cutoff:          1E-12

    OpenMP threads:              1

  Minimum eigenvalue in the overlap matrix is 2.3965810616E-04.
  Using Symmetric Orthogonalization.

  SCF Guess: Superposition of Atomic Densities via on-the-fly atomic UHF.

  ==> Iterations <==

                        Total Energy        Delta E     RMS |[F,P]|

   @RHF iter SAD:  -479.05274246655858   -4.79053e+02   0.00000e+00
   @RHF iter   1:  -479.48514766331311   -4.32405e-01   2.61310e-03 DIIS
   @RHF iter   2:  -479.71879073162228   -2.33643e-01   1.16249e-03 DIIS
   @RHF iter   3:  -479.76093285342671   -4.21421e-02   3.04132e-04 DIIS
   @RHF iter   4:  -479.76474816482948   -3.81531e-03   1.40536e-04 DIIS
   @RHF iter   5:  -479.76540645961597   -6.58295e-04   2.00620e-05 DIIS
   @RHF iter   6:  -479.76543569675459   -2.92371e-05   9.18846e-06 DIIS
   @RHF iter   7:  -479.76544164542486   -5.94867e-06   3.86159e-06 DIIS
   @RHF iter   8:  -479.76544336405885   -1.71863e-06   1.54679e-06 DIIS
   @RHF iter   9:  -479.76544372357313   -3.59514e-07   6.82309e-07 DIIS
   @RHF iter  10:  -479.76544379397137   -7.03982e-08   3.12737e-07 DIIS
   @RHF iter  11:  -479.76544381109625   -1.71249e-08   1.17623e-07 DIIS
   @RHF iter  12:  -479.76544381348288   -2.38663e-09   3.84414e-08 DIIS
   @RHF iter  13:  -479.76544381364852   -1.65642e-10   1.02444e-08 DIIS
   @RHF iter  14:  -479.76544381365028   -1.76215e-12   4.30964e-09 DIIS
   @RHF iter  15:  -479.76544381365727   -6.99174e-12   2.27098e-09 DIIS
   @RHF iter  16:  -479.76544381365591    1.36424e-12   9.79491e-10 DIIS
   @RHF iter  17:  -479.76544381365244    3.46745e-12   4.13221e-10 DIIS
   @RHF iter  18:  -479.76544381366097   -8.52651e-12   1.62910e-10 DIIS
   @RHF iter  19:  -479.76544381365704    3.92220e-12   5.45472e-11 DIIS
  Energy and wave function converged.

  ==> Post-Iterations <==

    Orbital Energies [Eh]
    ---------------------

    Doubly Occupied:

       1A    -15.602137     2A    -11.262166     3A    -11.261545
       4A    -11.229545     5A    -11.228213     6A    -11.226928
       7A    -11.226807     8A    -11.220629     9A    -11.220038
      10A    -11.216882    11A    -11.214244    12A    -11.212111
      13A     -1.294765    14A     -1.126263    15A     -1.072089
      16A     -1.019088    17A     -0.995638    18A     -0.985516
      19A     -0.930704    20A     -0.838558    21A     -0.835803
      22A     -0.801284    23A     -0.751974    24A     -0.718243
      25A     -0.661085    26A     -0.641213    27A     -0.602967
      28A     -0.599617    29A     -0.593749    30A     -0.592133
      31A     -0.588690    32A     -0.566853    33A     -0.553345
      34A     -0.537100    35A     -0.525310    36A     -0.502289
      37A     -0.493507    38A     -0.487455    39A     -0.475957
      40A     -0.470363    41A     -0.459137    42A     -0.372288
      43A     -0.293783    44A     -0.272090

    Virtual:

      45A      0.125173    46A      0.170958    47A      0.176998
      48A      0.185905    49A      0.191624    50A      0.204969
      51A      0.217956    52A      0.225701    53A      0.228700
      54A      0.246690    55A      0.254447    56A      0.261171
      57A      0.277540    58A      0.291846    59A      0.293229
      60A      0.296970    61A      0.318772    62A      0.319554
      63A      0.371183    64A      0.386533    65A      0.394427
      66A      0.405965    67A      0.431507    68A      0.447737
      69A      0.470116    70A      0.481604    71A      0.505734
      72A      0.523626    73A      0.589211    74A      0.596498
      75A      0.602013    76A      0.624552    77A      0.630402
      78A      0.642775    79A      0.647803    80A      0.661736
      81A      0.667350    82A      0.695935    83A      0.705625
      84A      0.709657    85A      0.718810    86A      0.725230
      87A      0.739394    88A      0.742522    89A      0.750244
      90A      0.757147    91A      0.762585    92A      0.774225
      93A      0.787307    94A      0.794048    95A      0.802128
      96A      0.837308    97A      0.847064    98A      0.871114
      99A      0.877006   100A      0.886213   101A      0.890793
     102A      0.896021   103A      0.896822   104A      0.903914
     105A      0.906155   106A      0.923495   107A      0.924870
     108A      0.938698   109A      0.943498   110A      0.948815
     111A      0.954302   112A      0.969045   113A      0.986608
     114A      0.992649   115A      0.998943   116A      1.013189
     117A      1.058357   118A      1.078712   119A      1.089679
     120A      1.125154   121A      1.132767   122A      1.137749
     123A      1.143660   124A      1.152383   125A      1.154356
     126A      1.173702   127A      1.212043   128A      1.220603
     129A      1.229937   130A      1.239384   131A      1.245773
     132A      1.259895   133A      1.282733   134A      1.288486
     135A      1.302952   136A      1.328580   137A      1.339444
     138A      1.360778   139A      1.371264   140A      1.426832
     141A      1.452066   142A      1.469249   143A      1.486292
     144A      1.523811   145A      1.552036   146A      1.563007
     147A      1.599689   148A      1.602265   149A      1.632430
     150A      1.633991   151A      1.653019   152A      1.687310
     153A      1.687790   154A      1.699507   155A      1.702608
     156A      1.738262   157A      1.752041   158A      1.767039
     159A      1.787837   160A      1.814567   161A      1.826660
     162A      1.842003   163A      1.862857   164A      1.872760
     165A      1.883700   166A      1.888758   167A      1.892064
     168A      1.898786   169A      1.904788   170A      1.916217
     171A      1.928651   172A      1.938774   173A      1.948079
     174A      1.951476   175A      1.968452   176A      1.969495
     177A      1.978376   178A      1.995686   179A      2.001518
     180A      2.006218   181A      2.007065   182A      2.025691
     183A      2.044383   184A      2.069006   185A      2.082080
     186A      2.087016   187A      2.089520   188A      2.103753
     189A      2.114901   190A      2.130950   191A      2.141771
     192A      2.153487   193A      2.173046   194A      2.181056
     195A      2.192556   196A      2.230950   197A      2.265729
     198A      2.279231   199A      2.307288   200A      2.314553
     201A      2.317217   202A      2.340886   203A      2.350255
     204A      2.358195   205A      2.397770   206A      2.406726
     207A      2.448627   208A      2.453271   209A      2.466560
     210A      2.483808   211A      2.533972   212A      2.566394
     213A      2.587787   214A      2.593572   215A      2.596285
     216A      2.629521   217A      2.672561   218A      2.688200
     219A      2.737496   220A      2.769952   221A      2.772692
     222A      2.775013   223A      2.779767   224A      2.797739
     225A      2.808519   226A      2.811831   227A      2.844390
     228A      2.847744   229A      2.861254   230A      2.898451
     231A      2.923893   232A      2.954347   233A      2.971165
     234A      2.974929   235A      3.027510   236A      3.054857
     237A      3.072114   238A      3.117758   239A      3.208771
     240A      3.301306   241A      3.374323   242A      3.733507
     243A      3.951861

    Final Occupation by Irrep:
              A
    DOCC [    44 ]

  @RHF Final Energy:  -479.76544381365704

   => Energetics <=

    Nuclear Repulsion Energy =            638.4389550889976590
    One-Electron Energy =               -1914.8485962576914972
    Two-Electron Energy =                 796.6441973550366811
    Total Energy =                       -479.7654438136570434

Computation Completed

Properties will be evaluated at   0.000000,   0.000000,   0.000000 [a0]

Properties computed using the SCF density matrix

  Nuclear Dipole Moment: [e a0]
     X:    -7.6981      Y:     8.3745      Z:   -10.2607

  Electronic Dipole Moment: [e a0]
     X:     7.7247      Y:    -9.1187      Z:     9.9472

  Dipole Moment: [e a0]
     X:     0.0266      Y:    -0.7443      Z:    -0.3135     Total:     0.8080

  Dipole Moment: [D]
     X:     0.0676      Y:    -1.8917      Z:    -0.7968     Total:     2.0538

*** tstop() called on ds3 at Mon Apr 27 11:12:25 2020
Module time:
	user time   =     153.66 seconds =       2.56 minutes
	system time =      70.83 seconds =       1.18 minutes
	total time  =       1668 seconds =      27.80 minutes
Total time:
	user time   =     153.66 seconds =       2.56 minutes
	system time =      70.83 seconds =       1.18 minutes
	total time  =       1668 seconds =      27.80 minutes
                                     G D M A

                                 by Anthony Stone

                           version 2.2.06, 22 June 2011

               Distributed Multipoles from Gaussian wavefunctions

Starting at 11:12:25 on 27 Apr 2020

Using SCF density matrix from file ./SSI/SSI-101TRP-177ILE-1-dimer.test.2682.fchk

                         Distributed Multipole Analysis

Standard DMA

Positions and radii in angstrom
Multipole moments in atomic units, ea_0^k for rank k

C          x =  3.512228  y = -1.097805  z =  1.609557 angstrom
           Maximum rank =  0   Radius =  0.650 angstrom
                   Q00  =  -0.217565

C          x =  0.006228  y = -0.916805  z =  0.260557 angstrom
           Maximum rank =  0   Radius =  0.650 angstrom
                   Q00  =   0.291670

C          x =  1.086228  y = -0.322805  z =  0.967557 angstrom
           Maximum rank =  0   Radius =  0.650 angstrom
                   Q00  =  -0.046042

C          x =  2.151228  y = -1.286805  z =  1.008557 angstrom
           Maximum rank =  0   Radius =  0.650 angstrom
                   Q00  =  -0.124934

C          x =  1.694228  y = -2.379805  z =  0.331557 angstrom
           Maximum rank =  0   Radius =  0.650 angstrom
                   Q00  =   0.072175

C          x = -1.326772  y =  1.026195  z =  0.544557 angstrom
           Maximum rank =  0   Radius =  0.650 angstrom
                   Q00  =  -0.072285

C          x = -1.195772  y = -0.258805  z =  0.046557 angstrom
           Maximum rank =  0   Radius =  0.650 angstrom
                   Q00  =  -0.122093

C          x = -0.279772  y =  1.641195  z =  1.249557 angstrom
           Maximum rank =  0   Radius =  0.650 angstrom
                   Q00  =  -0.087648

C          x =  0.929228  y =  0.978195  z =  1.464557 angstrom
           Maximum rank =  0   Radius =  0.650 angstrom
                   Q00  =  -0.098937

N          x =  0.412228  y = -2.168805  z = -0.110443 angstrom
           Maximum rank =  0   Radius =  0.650 angstrom
                   Q00  =  -0.496987

H          x = -2.253772  y =  1.564195  z =  0.395557 angstrom
           Maximum rank =  0   Radius =  0.325 angstrom
                   Q00  =   0.066542

H          x = -1.994772  y = -0.735805  z = -0.496443 angstrom
           Maximum rank =  0   Radius =  0.325 angstrom
                   Q00  =   0.073732

H          x = -0.416772  y =  2.643195  z =  1.632557 angstrom
           Maximum rank =  0   Radius =  0.325 angstrom
                   Q00  =   0.059825

H          x =  1.740228  y =  1.456195  z =  1.985557 angstrom
           Maximum rank =  0   Radius =  0.325 angstrom
                   Q00  =   0.069823

H          x = -0.167772  y = -2.860805  z = -0.598443 angstrom
           Maximum rank =  0   Radius =  0.325 angstrom
                   Q00  =   0.220132

H          x =  2.268228  y = -3.275805  z =  0.139557 angstrom
           Maximum rank =  0   Radius =  0.325 angstrom
                   Q00  =   0.096268

H          x =  3.763228  y = -1.950805  z =  2.241557 angstrom
           Maximum rank =  0   Radius =  0.325 angstrom
                   Q00  =   0.105232

H          x =  3.499228  y = -0.202805  z =  2.233557 angstrom
           Maximum rank =  0   Radius =  0.325 angstrom
                   Q00  =   0.108088

H          x =  4.266748  y = -0.976365  z =  0.818388 angstrom
           Maximum rank =  0   Radius =  0.325 angstrom
                   Q00  =   0.100928

C          x = -3.079772  y =  1.856195  z = -2.548443 angstrom
           Maximum rank =  0   Radius =  0.650 angstrom
                   Q00  =  -0.227107

C          x = -3.288772  y =  2.542195  z = -3.886443 angstrom
           Maximum rank =  0   Radius =  0.650 angstrom
                   Q00  =  -0.239538

H          x = -2.703772  y =  0.845195  z = -2.695443 angstrom
           Maximum rank =  0   Radius =  0.325 angstrom
                   Q00  =   0.079300

H          x = -2.352772  y =  2.416195  z = -1.965443 angstrom
           Maximum rank =  0   Radius =  0.325 angstrom
                   Q00  =   0.084341

H          x = -4.003772  y =  1.825195  z = -1.978443 angstrom
           Maximum rank =  0   Radius =  0.325 angstrom
                   Q00  =   0.071579

H          x = -2.286772  y =  2.703195  z = -4.287443 angstrom
           Maximum rank =  0   Radius =  0.325 angstrom
                   Q00  =   0.072462

H          x = -3.720772  y =  3.527195  z = -3.745443 angstrom
           Maximum rank =  0   Radius =  0.325 angstrom
                   Q00  =   0.080845

H          x = -3.847012  y =  1.948175  z = -4.625032 angstrom
           Maximum rank =  0   Radius =  0.325 angstrom
                   Q00  =   0.080194

Total multipoles referred to origin at
           x =   0.000000,  y =    0.000000,  z =    0.000000 angstrom
                   Q00  =  -0.000000

Finished at 11:12:25 on 27 Apr 2020

  DMA results are available in the Python driver through the
	  variable('DMA DISTRIBUTED MULTIPOLES')
  and
	  variable('DMA TOTAL MULTIPOLES')
  commands.

    Psi4 stopped on: Monday, 27 April 2020 11:12AM
    Psi4 wall time for execution: 0:27:48.63

*** Psi4 exiting successfully. Buy a developer a beer!
