                               Psi4 1.3.2 release

  ==> Input File <==

--------------------------------------------------------------------------
import numpy as np
set {scf_type pk
basis cc-pvdz
d_convergence 10
gdma_switch   0
gdma_limit    0
gdma_origin   [ 0.0,  0.0,  0.0 ]
}
molecule test {
    units Angstrom
    0 1
    --
    0 1
    C                2.956940624945234     1.013146292070718    -2.497590461570073
    C                3.180940624945234     2.158146292070718    -3.480590461570073
    H                3.158940624945234     0.049146292070718    -2.964590461570073
    H                3.601940624945234     1.165146292070718    -1.635590461570073
    H                1.936940624945234     1.050146292070718    -2.140590461570073
    H                2.868940624945234     3.088146292070718    -3.006590461570073
    H                2.597047624945234     1.992144292070718    -4.397930461570073
    H                4.246867624945234     2.250111292070718    -3.736210461570073
    C                1.207940624945234    -2.442853707929282    -0.188590461570073
    C               -0.426059375054766    -0.480853707929282     0.338409538429927
    C                0.244940624945234    -1.705853707929282     0.669409538429927
    C               -1.268059375054766    -0.151853707929282     1.432409538429927
    C               -0.211059375054766    -2.073853707929282     1.894409538429927
    C               -0.395059375054766     0.374146292070718    -0.769590461570073
    C               -1.185059375054766     1.519146292070718    -0.759590461570073
    C               -2.008059375054766     1.819146292070718     0.338409538429927
    C               -2.056059375054766     0.990146292070718     1.447409538429927
    N               -1.115059375054766    -1.145853707929282     2.360409538429927
    H                0.181940624945234     0.102146292070718    -1.636590461570073
    H               -1.179059375054766     2.184146292070718    -1.614590461570073
    H               -2.616059375054766     2.715146292070719     0.316409538429927
    H                1.835940624945234    -3.086853707929281     0.430409538429927
    H                1.852940624945234    -1.716853707929282    -0.684590461570073
    H                0.094940624945234    -2.969853707929281     2.427409538429927
    H               -1.579059375054766    -1.204853707929282     3.261409538429927
    H               -2.690059375054766     1.219146292070718     2.293409538429927
    H                0.688512624945234    -3.044523707929281    -0.948980461570073

}
e, wfn = energy('scf', return_wfn=True)
gdma(wfn)
dmavals = variable('DMA DISTRIBUTED MULTIPOLES')
charges = np.array(dmavals)
print(charges)
np.save('SSI-002VAL-009TRP-1-dimer.npy', np.array(charges))--------------------------------------------------------------------------

*** tstart() called on ds3
*** at Tue Apr 28 01:54:25 2020

   => Loading Basis Set <=

    Name: CC-PVDZ
    Role: ORBITAL
    Keyword: BASIS
    atoms 1-2, 9-17  entry C          line   138 file /theoryfs2/ds/metcalf/miniconda2/envs/tf2gpu/share/psi4/basis/cc-pvdz.gbs
    atoms 3-8, 19-27 entry H          line    22 file /theoryfs2/ds/metcalf/miniconda2/envs/tf2gpu/share/psi4/basis/cc-pvdz.gbs
    atoms 18         entry N          line   168 file /theoryfs2/ds/metcalf/miniconda2/envs/tf2gpu/share/psi4/basis/cc-pvdz.gbs

         ---------------------------------------------------------
                                   SCF
               by Justin Turney, Rob Parrish, Andy Simmonett
                          and Daniel G. A. Smith
                              RHF Reference
                        1 Threads,    500 MiB Core
         ---------------------------------------------------------

  ==> Geometry <==

    Molecular point group: c1
    Full point group: C1

    Geometry (in Angstrom), charge = 0, multiplicity = 1:

       Center              X                  Y                   Z               Mass
    ------------   -----------------  -----------------  -----------------  -----------------
         C            2.956940624945     1.013146292071    -2.497590461570    12.000000000000
         C            3.180940624945     2.158146292071    -3.480590461570    12.000000000000
         H            3.158940624945     0.049146292071    -2.964590461570     1.007825032230
         H            3.601940624945     1.165146292071    -1.635590461570     1.007825032230
         H            1.936940624945     1.050146292071    -2.140590461570     1.007825032230
         H            2.868940624945     3.088146292071    -3.006590461570     1.007825032230
         H            2.597047624945     1.992144292071    -4.397930461570     1.007825032230
         H            4.246867624945     2.250111292071    -3.736210461570     1.007825032230
         C            1.207940624945    -2.442853707929    -0.188590461570    12.000000000000
         C           -0.426059375055    -0.480853707929     0.338409538430    12.000000000000
         C            0.244940624945    -1.705853707929     0.669409538430    12.000000000000
         C           -1.268059375055    -0.151853707929     1.432409538430    12.000000000000
         C           -0.211059375055    -2.073853707929     1.894409538430    12.000000000000
         C           -0.395059375055     0.374146292071    -0.769590461570    12.000000000000
         C           -1.185059375055     1.519146292071    -0.759590461570    12.000000000000
         C           -2.008059375055     1.819146292071     0.338409538430    12.000000000000
         C           -2.056059375055     0.990146292071     1.447409538430    12.000000000000
         N           -1.115059375055    -1.145853707929     2.360409538430    14.003074004430
         H            0.181940624945     0.102146292071    -1.636590461570     1.007825032230
         H           -1.179059375055     2.184146292071    -1.614590461570     1.007825032230
         H           -2.616059375055     2.715146292071     0.316409538430     1.007825032230
         H            1.835940624945    -3.086853707929     0.430409538430     1.007825032230
         H            1.852940624945    -1.716853707929    -0.684590461570     1.007825032230
         H            0.094940624945    -2.969853707929     2.427409538430     1.007825032230
         H           -1.579059375055    -1.204853707929     3.261409538430     1.007825032230
         H           -2.690059375055     1.219146292071     2.293409538430     1.007825032230
         H            0.688512624945    -3.044523707929    -0.948980461570     1.007825032230

  Running in c1 symmetry.

  Rotational constants: A =      0.03882  B =      0.01718  C =      0.01245 [cm^-1]
  Rotational constants: A =   1163.72946  B =    515.07987  C =    373.20595 [MHz]
  Nuclear repulsion =  645.333253490542802

  Charge       = 0
  Multiplicity = 1
  Electrons    = 88
  Nalpha       = 44
  Nbeta        = 44

  ==> Algorithm <==

  SCF Algorithm Type is PK.
  DIIS enabled.
  MOM disabled.
  Fractional occupation disabled.
  Guess Type is SAD.
  Energy threshold   = 1.00e-06
  Density threshold  = 1.00e-10
  Integral threshold = 0.00e+00

  ==> Primary Basis <==

  Basis Set: CC-PVDZ
    Blend: CC-PVDZ
    Number of shells: 117
    Number of basis function: 243
    Number of Cartesian functions: 255
    Spherical Harmonics?: true
    Max angular momentum: 2

  ==> Pre-Iterations <==

   -------------------------------------------------------
    Irrep   Nso     Nmo     Nalpha   Nbeta   Ndocc  Nsocc
   -------------------------------------------------------
     A        243     243       0       0       0       0
   -------------------------------------------------------
    Total     243     243      44      44      44       0
   -------------------------------------------------------

  ==> Integral Setup <==

  Using integral reordering PK algorithm.
  Sizing the integral batches needed.
  Building batch lookup table.
   Calculation information:
      Number of atoms:                  27
      Number of AO shells:             117
      Number of primitives:            339
      Number of atomic orbitals:       255
      Number of basis functions:       243

      Integral cutoff                 1.00e-12
      Number of threads:                 1

	Batch   1 pq = [       0,    9405] index = [             0,44231715] size =     44231715
	Batch   2 pq = [    9405,   13301] index = [      44231715,88464951] size =     44233236
	Batch   3 pq = [   13301,   16290] index = [      88464951,132690195] size =     44225244
	Batch   4 pq = [   16290,   18810] index = [     132690195,176917455] size =     44227260
	Batch   5 pq = [   18810,   21030] index = [     176917455,221140965] size =     44223510
	Batch   6 pq = [   21030,   23037] index = [     221140965,265363203] size =     44222238
	Batch   7 pq = [   23037,   24883] index = [     265363203,309594286] size =     44231083
	Batch   8 pq = [   24883,   26601] index = [     309594286,353819901] size =     44225615
	Batch   9 pq = [   26601,   28214] index = [     353819901,398029005] size =     44209104
	Batch  10 pq = [   28214,   29646] index = [     398029005,439457481] size =     41428476
  Task number: 40
  Buffer size: 11059200
  Buffer per thread: 2
  We computed 21668681 shell quartets total.
  Whereas there are 23829156 unique shell quartets.

  ==> DiskJK: Disk-Based J/K Matrices <==

    J tasked:                  Yes
    K tasked:                  Yes
    wK tasked:                  No
    Memory [MiB]:              375
    Schwarz Cutoff:          1E-12

    OpenMP threads:              1

  Minimum eigenvalue in the overlap matrix is 2.3920820510E-04.
  Using Symmetric Orthogonalization.

  SCF Guess: Superposition of Atomic Densities via on-the-fly atomic UHF.

  ==> Iterations <==

                        Total Energy        Delta E     RMS |[F,P]|

   @RHF iter SAD:  -479.08407701497191   -4.79084e+02   0.00000e+00
   @RHF iter   1:  -479.48719175127007   -4.03115e-01   2.61469e-03 DIIS
   @RHF iter   2:  -479.72065035520114   -2.33459e-01   1.16388e-03 DIIS
   @RHF iter   3:  -479.76291376127335   -4.22634e-02   3.04292e-04 DIIS
   @RHF iter   4:  -479.76673927290454   -3.82551e-03   1.40230e-04 DIIS
   @RHF iter   5:  -479.76739604219381   -6.56769e-04   2.01596e-05 DIIS
   @RHF iter   6:  -479.76742596219140   -2.99200e-05   9.36006e-06 DIIS
   @RHF iter   7:  -479.76743219597563   -6.23378e-06   3.91823e-06 DIIS
   @RHF iter   8:  -479.76743403884575   -1.84287e-06   1.56696e-06 DIIS
   @RHF iter   9:  -479.76743441218429   -3.73339e-07   7.01647e-07 DIIS
   @RHF iter  10:  -479.76743448740717   -7.52229e-08   3.16318e-07 DIIS
   @RHF iter  11:  -479.76743450475203   -1.73449e-08   1.15895e-07 DIIS
   @RHF iter  12:  -479.76743450699098   -2.23895e-09   3.65856e-08 DIIS
   @RHF iter  13:  -479.76743450713849   -1.47509e-10   9.20859e-09 DIIS
   @RHF iter  14:  -479.76743450714952   -1.10276e-11   3.54010e-09 DIIS
   @RHF iter  15:  -479.76743450715389   -4.37694e-12   1.91012e-09 DIIS
   @RHF iter  16:  -479.76743450715088    3.01270e-12   9.18946e-10 DIIS
   @RHF iter  17:  -479.76743450714940    1.47793e-12   3.49301e-10 DIIS
   @RHF iter  18:  -479.76743450714974   -3.41061e-13   1.49566e-10 DIIS
   @RHF iter  19:  -479.76743450714906    6.82121e-13   4.63465e-11 DIIS
  Energy and wave function converged.

  ==> Post-Iterations <==

    Orbital Energies [Eh]
    ---------------------

    Doubly Occupied:

       1A    -15.600320     2A    -11.263178     3A    -11.262405
       4A    -11.230400     5A    -11.229396     6A    -11.229134
       7A    -11.224801     8A    -11.221532     9A    -11.219024
      10A    -11.215753    11A    -11.215196    12A    -11.211365
      13A     -1.294534    14A     -1.127915    15A     -1.074806
      16A     -1.016768    17A     -0.997649    18A     -0.986881
      19A     -0.931200    20A     -0.839734    21A     -0.833417
      22A     -0.803611    23A     -0.751488    24A     -0.719219
      25A     -0.662591    26A     -0.641412    27A     -0.605404
      28A     -0.598751    29A     -0.596251    30A     -0.592280
      31A     -0.586664    32A     -0.567751    33A     -0.552220
      34A     -0.537946    35A     -0.526652    36A     -0.497190
      37A     -0.494556    38A     -0.485742    39A     -0.481473
      40A     -0.469196    41A     -0.459783    42A     -0.372087
      43A     -0.294606    44A     -0.274880

    Virtual:

      45A      0.124954    46A      0.169380    47A      0.177855
      48A      0.181419    49A      0.193614    50A      0.206990
      51A      0.219383    52A      0.224280    53A      0.238101
      54A      0.249094    55A      0.254315    56A      0.265156
      57A      0.275620    58A      0.278990    59A      0.289410
      60A      0.298888    61A      0.303068    62A      0.337829
      63A      0.375794    64A      0.391982    65A      0.405522
      66A      0.416282    67A      0.426866    68A      0.449525
      69A      0.472666    70A      0.480604    71A      0.503683
      72A      0.513830    73A      0.594017    74A      0.601495
      75A      0.605836    76A      0.616268    77A      0.626697
      78A      0.638925    79A      0.652098    80A      0.663942
      81A      0.673576    82A      0.697482    83A      0.701383
      84A      0.707539    85A      0.722695    86A      0.733292
      87A      0.738218    88A      0.742171    89A      0.744170
      90A      0.761276    91A      0.769884    92A      0.777467
      93A      0.785740    94A      0.791545    95A      0.800347
      96A      0.838939    97A      0.850083    98A      0.861305
      99A      0.882033   100A      0.885653   101A      0.888171
     102A      0.896003   103A      0.899244   104A      0.900019
     105A      0.905940   106A      0.915864   107A      0.918477
     108A      0.921946   109A      0.941935   110A      0.956582
     111A      0.959709   112A      0.985412   113A      1.003348
     114A      1.011845   115A      1.023528   116A      1.042472
     117A      1.072243   118A      1.088586   119A      1.097334
     120A      1.122536   121A      1.127649   122A      1.138094
     123A      1.139443   124A      1.143941   125A      1.162433
     126A      1.173527   127A      1.213730   128A      1.224404
     129A      1.231736   130A      1.238007   131A      1.251452
     132A      1.272501   133A      1.286229   134A      1.304695
     135A      1.319209   136A      1.328176   137A      1.332909
     138A      1.363489   139A      1.373527   140A      1.409868
     141A      1.447299   142A      1.480725   143A      1.486133
     144A      1.527527   145A      1.564328   146A      1.576788
     147A      1.598764   148A      1.613937   149A      1.632964
     150A      1.643644   151A      1.648879   152A      1.684221
     153A      1.689702   154A      1.694941   155A      1.710037
     156A      1.738848   157A      1.760180   158A      1.773670
     159A      1.787794   160A      1.805994   161A      1.821946
     162A      1.835766   163A      1.862374   164A      1.871749
     165A      1.885522   166A      1.889435   167A      1.896035
     168A      1.903479   169A      1.916655   170A      1.923758
     171A      1.929391   172A      1.940581   173A      1.946161
     174A      1.950287   175A      1.962191   176A      1.965970
     177A      1.970255   178A      1.980062   179A      1.996789
     180A      2.011834   181A      2.017743   182A      2.037429
     183A      2.056926   184A      2.070379   185A      2.083870
     186A      2.091293   187A      2.103941   188A      2.109142
     189A      2.113915   190A      2.122243   191A      2.132084
     192A      2.145563   193A      2.170548   194A      2.171864
     195A      2.177439   196A      2.231484   197A      2.259114
     198A      2.282272   199A      2.295079   200A      2.309676
     201A      2.319931   202A      2.325565   203A      2.342407
     204A      2.357276   205A      2.399310   206A      2.425799
     207A      2.451260   208A      2.462545   209A      2.467379
     210A      2.474774   211A      2.536351   212A      2.580415
     213A      2.583547   214A      2.585778   215A      2.607651
     216A      2.644039   217A      2.668852   218A      2.683909
     219A      2.710297   220A      2.764164   221A      2.770748
     222A      2.778041   223A      2.790039   224A      2.800916
     225A      2.815486   226A      2.826784   227A      2.854333
     228A      2.863437   229A      2.872838   230A      2.879424
     231A      2.912293   232A      2.952720   233A      2.970456
     234A      2.990529   235A      3.044044   236A      3.051874
     237A      3.073841   238A      3.124103   239A      3.204241
     240A      3.310499   241A      3.384624   242A      3.743334
     243A      3.950261

    Final Occupation by Irrep:
              A
    DOCC [    44 ]

  @RHF Final Energy:  -479.76743450714906

   => Energetics <=

    Nuclear Repulsion Energy =            645.3332534905428020
    One-Electron Energy =               -1928.6070489857729626
    Two-Electron Energy =                 803.5063609880810418
    Total Energy =                       -479.7674345071491189

Computation Completed

Properties will be evaluated at   0.000000,   0.000000,   0.000000 [a0]

Properties computed using the SCF density matrix

  Nuclear Dipole Moment: [e a0]
     X:    14.0660      Y:     3.5587      Z:   -13.1663

  Electronic Dipole Moment: [e a0]
     X:   -14.2125      Y:    -3.9836      Z:    13.8856

  Dipole Moment: [e a0]
     X:    -0.1466      Y:    -0.4250      Z:     0.7193     Total:     0.8482

  Dipole Moment: [D]
     X:    -0.3725      Y:    -1.0801      Z:     1.8283     Total:     2.1560

*** tstop() called on ds3 at Tue Apr 28 01:58:09 2020
Module time:
	user time   =     161.05 seconds =       2.68 minutes
	system time =      68.35 seconds =       1.14 minutes
	total time  =        224 seconds =       3.73 minutes
Total time:
	user time   =     161.05 seconds =       2.68 minutes
	system time =      68.35 seconds =       1.14 minutes
	total time  =        224 seconds =       3.73 minutes
                                     G D M A

                                 by Anthony Stone

                           version 2.2.06, 22 June 2011

               Distributed Multipoles from Gaussian wavefunctions

Starting at 1:58:9 on 28 Apr 2020

Using SCF density matrix from file ./SSI/SSI-002VAL-009TRP-1-dimer.test.9721.fchk

                         Distributed Multipole Analysis

Standard DMA

Positions and radii in angstrom
Multipole moments in atomic units, ea_0^k for rank k

C          x =  2.956941  y =  1.013146  z = -2.497590 angstrom
           Maximum rank =  0   Radius =  0.650 angstrom
                   Q00  =  -0.233739

C          x =  3.180941  y =  2.158146  z = -3.480590 angstrom
           Maximum rank =  0   Radius =  0.650 angstrom
                   Q00  =  -0.243726

H          x =  3.158941  y =  0.049146  z = -2.964590 angstrom
           Maximum rank =  0   Radius =  0.325 angstrom
                   Q00  =   0.076327

H          x =  3.601941  y =  1.165146  z = -1.635590 angstrom
           Maximum rank =  0   Radius =  0.325 angstrom
                   Q00  =   0.080232

H          x =  1.936941  y =  1.050146  z = -2.140590 angstrom
           Maximum rank =  0   Radius =  0.325 angstrom
                   Q00  =   0.087557

H          x =  2.868941  y =  3.088146  z = -3.006590 angstrom
           Maximum rank =  0   Radius =  0.325 angstrom
                   Q00  =   0.080085

H          x =  2.597048  y =  1.992144  z = -4.397930 angstrom
           Maximum rank =  0   Radius =  0.325 angstrom
                   Q00  =   0.076753

H          x =  4.246868  y =  2.250111  z = -3.736210 angstrom
           Maximum rank =  0   Radius =  0.325 angstrom
                   Q00  =   0.077059

C          x =  1.207941  y = -2.442854  z = -0.188590 angstrom
           Maximum rank =  0   Radius =  0.650 angstrom
                   Q00  =  -0.210570

C          x = -0.426059  y = -0.480854  z =  0.338410 angstrom
           Maximum rank =  0   Radius =  0.650 angstrom
                   Q00  =  -0.056411

C          x =  0.244941  y = -1.705854  z =  0.669410 angstrom
           Maximum rank =  0   Radius =  0.650 angstrom
                   Q00  =  -0.116385

C          x = -1.268059  y = -0.151854  z =  1.432410 angstrom
           Maximum rank =  0   Radius =  0.650 angstrom
                   Q00  =   0.276860

C          x = -0.211059  y = -2.073854  z =  1.894410 angstrom
           Maximum rank =  0   Radius =  0.650 angstrom
                   Q00  =   0.070467

C          x = -0.395059  y =  0.374146  z = -0.769590 angstrom
           Maximum rank =  0   Radius =  0.650 angstrom
                   Q00  =  -0.105515

C          x = -1.185059  y =  1.519146  z = -0.759590 angstrom
           Maximum rank =  0   Radius =  0.650 angstrom
                   Q00  =  -0.109875

C          x = -2.008059  y =  1.819146  z =  0.338410 angstrom
           Maximum rank =  0   Radius =  0.650 angstrom
                   Q00  =  -0.028857

C          x = -2.056059  y =  0.990146  z =  1.447410 angstrom
           Maximum rank =  0   Radius =  0.650 angstrom
                   Q00  =  -0.118556

N          x = -1.115059  y = -1.145854  z =  2.360410 angstrom
           Maximum rank =  0   Radius =  0.650 angstrom
                   Q00  =  -0.496606

H          x =  0.181941  y =  0.102146  z = -1.636590 angstrom
           Maximum rank =  0   Radius =  0.325 angstrom
                   Q00  =   0.074272

H          x = -1.179059  y =  2.184146  z = -1.614590 angstrom
           Maximum rank =  0   Radius =  0.325 angstrom
                   Q00  =   0.060608

H          x = -2.616059  y =  2.715146  z =  0.316410 angstrom
           Maximum rank =  0   Radius =  0.325 angstrom
                   Q00  =   0.064444

H          x =  1.835941  y = -3.086854  z =  0.430410 angstrom
           Maximum rank =  0   Radius =  0.325 angstrom
                   Q00  =   0.103837

H          x =  1.852941  y = -1.716854  z = -0.684590 angstrom
           Maximum rank =  0   Radius =  0.325 angstrom
                   Q00  =   0.104437

H          x =  0.094941  y = -2.969854  z =  2.427410 angstrom
           Maximum rank =  0   Radius =  0.325 angstrom
                   Q00  =   0.099913

H          x = -1.579059  y = -1.204854  z =  3.261410 angstrom
           Maximum rank =  0   Radius =  0.325 angstrom
                   Q00  =   0.216654

H          x = -2.690059  y =  1.219146  z =  2.293410 angstrom
           Maximum rank =  0   Radius =  0.325 angstrom
                   Q00  =   0.073104

H          x =  0.688513  y = -3.044524  z = -0.948980 angstrom
           Maximum rank =  0   Radius =  0.325 angstrom
                   Q00  =   0.097631

Total multipoles referred to origin at
           x =   0.000000,  y =    0.000000,  z =    0.000000 angstrom
                   Q00  =  -0.000000

Finished at 1:58:9 on 28 Apr 2020

  DMA results are available in the Python driver through the
	  variable('DMA DISTRIBUTED MULTIPOLES')
  and
	  variable('DMA TOTAL MULTIPOLES')
  commands.

    Psi4 stopped on: Tuesday, 28 April 2020 01:58AM
    Psi4 wall time for execution: 0:03:44.22

*** Psi4 exiting successfully. Buy a developer a beer!
