                               Psi4 1.3.2 release

  ==> Input File <==

--------------------------------------------------------------------------
import numpy as np
set {scf_type pk
basis cc-pvdz
d_convergence 10
gdma_switch   0
gdma_limit    0
gdma_origin   [ 0.0,  0.0,  0.0 ]
}
molecule test {
    units Angstrom
    0 1
    --
    0 1
    C                2.972839147374262    -1.027156330423057     1.378065285262100
    C               -1.181160852625739    -0.919156330423057     0.179065285262100
    C               -0.858160852625738    -1.001156330423057     1.488065285262100
    C               -0.161160852625738    -0.855156330423057    -0.760934714737900
    C                0.495839147374262    -1.058156330423057     1.890065285262100
    C                1.169839147374262    -0.905156330423057    -0.381934714737900
    C                1.524839147374262    -0.986156330423057     0.951065285262100
    H               -2.216160852625739    -0.894156330423057    -0.132934714737900
    H               -1.642160852625738    -1.050156330423057     2.233065285262100
    H               -0.418160852625738    -0.787156330423057    -1.806934714737900
    H                0.732839147374262    -1.157156330423057     2.939065285262100
    H                1.936839147374262    -0.864156330423057    -1.142934714737900
    H                3.130839147374262    -0.269156330423057     2.145065285262100
    H                3.585839147374262    -0.763156330423057     0.521065285262100
    H                3.312199147374262    -2.001326330423057     1.759935285262100
    C               -1.999160852625738     2.333843669576943    -1.682934714737900
    C               -1.744160852625738     3.580843669576943    -2.545934714737900
    H               -2.983160852625738     1.926843669576943    -1.906934714737900
    H               -1.244160852625739     1.580843669576943    -1.903934714737900
    H               -1.919160852625738     2.593843669576943    -0.627934714737900
    H               -0.761160852625738     3.954843669576943    -2.257934714737901
    H               -2.460180852625738     4.389053669576942    -2.335914714737900
    H               -1.668420852625738     3.311853669576943    -3.609844714737900

}
e, wfn = energy('scf', return_wfn=True)
gdma(wfn)
dmavals = variable('DMA DISTRIBUTED MULTIPOLES')
charges = np.array(dmavals)
print(charges)
np.save('SSI-013PHE-036VAL-1-dimer.npy', np.array(charges))--------------------------------------------------------------------------

*** tstart() called on ds3
*** at Mon Apr 27 17:30:43 2020

   => Loading Basis Set <=

    Name: CC-PVDZ
    Role: ORBITAL
    Keyword: BASIS
    atoms 1-7, 16-17  entry C          line   138 file /theoryfs2/ds/metcalf/miniconda2/envs/tf2gpu/share/psi4/basis/cc-pvdz.gbs
    atoms 8-15, 18-23 entry H          line    22 file /theoryfs2/ds/metcalf/miniconda2/envs/tf2gpu/share/psi4/basis/cc-pvdz.gbs

         ---------------------------------------------------------
                                   SCF
               by Justin Turney, Rob Parrish, Andy Simmonett
                          and Daniel G. A. Smith
                              RHF Reference
                        1 Threads,    500 MiB Core
         ---------------------------------------------------------

  ==> Geometry <==

    Molecular point group: c1
    Full point group: C1

    Geometry (in Angstrom), charge = 0, multiplicity = 1:

       Center              X                  Y                   Z               Mass
    ------------   -----------------  -----------------  -----------------  -----------------
         C            2.972839147374    -1.027156330423     1.378065285262    12.000000000000
         C           -1.181160852626    -0.919156330423     0.179065285262    12.000000000000
         C           -0.858160852626    -1.001156330423     1.488065285262    12.000000000000
         C           -0.161160852626    -0.855156330423    -0.760934714738    12.000000000000
         C            0.495839147374    -1.058156330423     1.890065285262    12.000000000000
         C            1.169839147374    -0.905156330423    -0.381934714738    12.000000000000
         C            1.524839147374    -0.986156330423     0.951065285262    12.000000000000
         H           -2.216160852626    -0.894156330423    -0.132934714738     1.007825032230
         H           -1.642160852626    -1.050156330423     2.233065285262     1.007825032230
         H           -0.418160852626    -0.787156330423    -1.806934714738     1.007825032230
         H            0.732839147374    -1.157156330423     2.939065285262     1.007825032230
         H            1.936839147374    -0.864156330423    -1.142934714738     1.007825032230
         H            3.130839147374    -0.269156330423     2.145065285262     1.007825032230
         H            3.585839147374    -0.763156330423     0.521065285262     1.007825032230
         H            3.312199147374    -2.001326330423     1.759935285262     1.007825032230
         C           -1.999160852626     2.333843669577    -1.682934714738    12.000000000000
         C           -1.744160852626     3.580843669577    -2.545934714738    12.000000000000
         H           -2.983160852626     1.926843669577    -1.906934714738     1.007825032230
         H           -1.244160852626     1.580843669577    -1.903934714738     1.007825032230
         H           -1.919160852626     2.593843669577    -0.627934714738     1.007825032230
         H           -0.761160852626     3.954843669577    -2.257934714738     1.007825032230
         H           -2.460180852626     4.389053669577    -2.335914714738     1.007825032230
         H           -1.668420852626     3.311853669577    -3.609844714738     1.007825032230

  Running in c1 symmetry.

  Rotational constants: A =      0.08270  B =      0.02021  C =      0.01822 [cm^-1]
  Rotational constants: A =   2479.25920  B =    605.75638  C =    546.23822 [MHz]
  Nuclear repulsion =  400.645241810939183

  Charge       = 0
  Multiplicity = 1
  Electrons    = 68
  Nalpha       = 34
  Nbeta        = 34

  ==> Algorithm <==

  SCF Algorithm Type is PK.
  DIIS enabled.
  MOM disabled.
  Fractional occupation disabled.
  Guess Type is SAD.
  Energy threshold   = 1.00e-06
  Density threshold  = 1.00e-10
  Integral threshold = 0.00e+00

  ==> Primary Basis <==

  Basis Set: CC-PVDZ
    Blend: CC-PVDZ
    Number of shells: 96
    Number of basis function: 196
    Number of Cartesian functions: 205
    Spherical Harmonics?: true
    Max angular momentum: 2

  ==> Pre-Iterations <==

   -------------------------------------------------------
    Irrep   Nso     Nmo     Nalpha   Nbeta   Ndocc  Nsocc
   -------------------------------------------------------
     A        196     196       0       0       0       0
   -------------------------------------------------------
    Total     196     196      34      34      34       0
   -------------------------------------------------------

  ==> Integral Setup <==

  Using integral reordering PK algorithm.
  Sizing the integral batches needed.
  Building batch lookup table.
   Calculation information:
      Number of atoms:                  23
      Number of AO shells:              96
      Number of primitives:            268
      Number of atomic orbitals:       205
      Number of basis functions:       196

      Integral cutoff                 1.00e-12
      Number of threads:                 1

	Batch   1 pq = [       0,    9405] index = [             0,44231715] size =     44231715
	Batch   2 pq = [    9405,   13301] index = [      44231715,88464951] size =     44233236
	Batch   3 pq = [   13301,   16290] index = [      88464951,132690195] size =     44225244
	Batch   4 pq = [   16290,   18810] index = [     132690195,176917455] size =     44227260
	Batch   5 pq = [   18810,   19306] index = [     176917455,186370471] size =      9453016
  Task number: 17
  Buffer size: 11059200
  Buffer per thread: 2
  We computed 8633373 shell quartets total.
  Whereas there are 10841496 unique shell quartets.

  ==> DiskJK: Disk-Based J/K Matrices <==

    J tasked:                  Yes
    K tasked:                  Yes
    wK tasked:                  No
    Memory [MiB]:              375
    Schwarz Cutoff:          1E-12

    OpenMP threads:              1

  Minimum eigenvalue in the overlap matrix is 2.9851553695E-04.
  Using Symmetric Orthogonalization.

  SCF Guess: Superposition of Atomic Densities via on-the-fly atomic UHF.

  ==> Iterations <==

                        Total Energy        Delta E     RMS |[F,P]|

   @RHF iter SAD:  -347.91952638711820   -3.47920e+02   0.00000e+00
   @RHF iter   1:  -348.76275391817967   -8.43228e-01   2.91047e-03 DIIS
   @RHF iter   2:  -348.95654131085763   -1.93787e-01   1.21208e-03 DIIS
   @RHF iter   3:  -348.98717936242173   -3.06381e-02   2.57785e-04 DIIS
   @RHF iter   4:  -348.98965319288300   -2.47383e-03   4.82578e-05 DIIS
   @RHF iter   5:  -348.98971886057177   -6.56677e-05   1.52523e-05 DIIS
   @RHF iter   6:  -348.98972498835946   -6.12779e-06   4.09944e-06 DIIS
   @RHF iter   7:  -348.98972550473343   -5.16374e-07   1.42898e-06 DIIS
   @RHF iter   8:  -348.98972558229946   -7.75660e-08   4.13802e-07 DIIS
   @RHF iter   9:  -348.98972560000777   -1.77083e-08   1.92155e-07 DIIS
   @RHF iter  10:  -348.98972560470014   -4.69237e-09   8.67320e-08 DIIS
   @RHF iter  11:  -348.98972560574271   -1.04257e-09   2.75367e-08 DIIS
   @RHF iter  12:  -348.98972560581160   -6.88942e-11   1.15463e-08 DIIS
   @RHF iter  13:  -348.98972560581888   -7.27596e-12   3.97089e-09 DIIS
   @RHF iter  14:  -348.98972560581819    6.82121e-13   9.22687e-10 DIIS
   @RHF iter  15:  -348.98972560581984   -1.64846e-12   3.54384e-10 DIIS
   @RHF iter  16:  -348.98972560582058   -7.38964e-13   1.64708e-10 DIIS
   @RHF iter  17:  -348.98972560581927    1.30740e-12   6.81907e-11 DIIS
  Energy and wave function converged.

  ==> Post-Iterations <==

    Orbital Energies [Eh]
    ---------------------

    Doubly Occupied:

       1A    -11.239714     2A    -11.232350     3A    -11.232215
       4A    -11.230830     5A    -11.229995     6A    -11.228282
       7A    -11.225748     8A    -11.216550     9A    -11.212672
      10A     -1.156304    11A     -1.049192    12A     -1.012814
      13A     -1.008306    14A     -0.934420    15A     -0.833895
      16A     -0.827138    17A     -0.793878    18A     -0.693206
      19A     -0.633104    20A     -0.627910    21A     -0.596400
      22A     -0.591441    23A     -0.579326    24A     -0.576127
      25A     -0.565260    26A     -0.536886    27A     -0.497514
      28A     -0.488924    29A     -0.486866    30A     -0.483246
      31A     -0.479644    32A     -0.477176    33A     -0.333110
      34A     -0.322906

    Virtual:

      35A      0.132553    36A      0.147655    37A      0.176849
      38A      0.192126    39A      0.203885    40A      0.217644
      41A      0.231696    42A      0.246891    43A      0.256739
      44A      0.259595    45A      0.270752    46A      0.273078
      47A      0.279907    48A      0.289560    49A      0.296513
      50A      0.329953    51A      0.370543    52A      0.375176
      53A      0.401411    54A      0.454346    55A      0.468467
      56A      0.476188    57A      0.502434    58A      0.563169
      59A      0.583861    60A      0.597806    61A      0.602339
      62A      0.614068    63A      0.630384    64A      0.662672
      65A      0.682368    66A      0.687323    67A      0.704147
      68A      0.710817    69A      0.726254    70A      0.738633
      71A      0.747248    72A      0.753487    73A      0.758587
      74A      0.764737    75A      0.776715    76A      0.799185
      77A      0.824086    78A      0.859525    79A      0.861627
      80A      0.869787    81A      0.878277    82A      0.893562
      83A      0.894972    84A      0.896617    85A      0.898896
      86A      0.911068    87A      0.917023    88A      0.923855
      89A      0.929192    90A      0.941588    91A      0.943776
      92A      0.952992    93A      0.994969    94A      1.002333
      95A      1.014991    96A      1.067744    97A      1.121184
      98A      1.127738    99A      1.135915   100A      1.137839
     101A      1.155638   102A      1.172620   103A      1.195150
     104A      1.214966   105A      1.246548   106A      1.253588
     107A      1.255000   108A      1.275728   109A      1.299454
     110A      1.311291   111A      1.330192   112A      1.341513
     113A      1.416268   114A      1.470107   115A      1.485767
     116A      1.507480   117A      1.527101   118A      1.547043
     119A      1.590460   120A      1.609254   121A      1.676103
     122A      1.678901   123A      1.689646   124A      1.695395
     125A      1.733696   126A      1.745799   127A      1.773035
     128A      1.792869   129A      1.814026   130A      1.855683
     131A      1.868315   132A      1.874265   133A      1.880926
     134A      1.890524   135A      1.899837   136A      1.910808
     137A      1.921295   138A      1.928162   139A      1.937329
     140A      1.945834   141A      1.948122   142A      1.958423
     143A      1.966176   144A      1.971442   145A      1.973888
     146A      1.991415   147A      2.010267   148A      2.023485
     149A      2.041975   150A      2.056445   151A      2.082575
     152A      2.085985   153A      2.117590   154A      2.130721
     155A      2.145238   156A      2.164746   157A      2.170714
     158A      2.196196   159A      2.196529   160A      2.249040
     161A      2.277019   162A      2.294196   163A      2.297845
     164A      2.307082   165A      2.308935   166A      2.342267
     167A      2.359952   168A      2.443961   169A      2.454814
     170A      2.475125   171A      2.482854   172A      2.516764
     173A      2.542609   174A      2.558892   175A      2.584095
     176A      2.634206   177A      2.734623   178A      2.755917
     179A      2.762658   180A      2.775757   181A      2.794686
     182A      2.801373   183A      2.820566   184A      2.837779
     185A      2.852121   186A      2.870765   187A      2.880687
     188A      2.943698   189A      2.972743   190A      2.990103
     191A      3.027033   192A      3.033096   193A      3.169464
     194A      3.210481   195A      3.311541   196A      3.985055

    Final Occupation by Irrep:
              A
    DOCC [    34 ]

  @RHF Final Energy:  -348.98972560581927

   => Energetics <=

    Nuclear Repulsion Energy =            400.6452418109391829
    One-Electron Energy =               -1264.0032321909329767
    Two-Electron Energy =                 514.3682647741744631
    Total Energy =                       -348.9897256058193307

Computation Completed

Properties will be evaluated at   0.000000,   0.000000,   0.000000 [a0]

Properties computed using the SCF density matrix

  Nuclear Dipole Moment: [e a0]
     X:    -2.4507      Y:     9.3474      Z:    -5.7440

  Electronic Dipole Moment: [e a0]
     X:     2.6036      Y:    -9.3912      Z:     5.8262

  Dipole Moment: [e a0]
     X:     0.1529      Y:    -0.0438      Z:     0.0822     Total:     0.1791

  Dipole Moment: [D]
     X:     0.3887      Y:    -0.1113      Z:     0.2090     Total:     0.4551

*** tstop() called on ds3 at Mon Apr 27 17:32:13 2020
Module time:
	user time   =      60.52 seconds =       1.01 minutes
	system time =      27.07 seconds =       0.45 minutes
	total time  =         90 seconds =       1.50 minutes
Total time:
	user time   =      60.52 seconds =       1.01 minutes
	system time =      27.07 seconds =       0.45 minutes
	total time  =         90 seconds =       1.50 minutes
                                     G D M A

                                 by Anthony Stone

                           version 2.2.06, 22 June 2011

               Distributed Multipoles from Gaussian wavefunctions

Starting at 17:32:13 on 27 Apr 2020

Using SCF density matrix from file ./SSI/SSI-013PHE-036VAL-1-dimer.test.26106.fchk

                         Distributed Multipole Analysis

Standard DMA

Positions and radii in angstrom
Multipole moments in atomic units, ea_0^k for rank k

C          x =  2.972839  y = -1.027156  z =  1.378065 angstrom
           Maximum rank =  0   Radius =  0.650 angstrom
                   Q00  =  -0.217046

C          x = -1.181161  y = -0.919156  z =  0.179065 angstrom
           Maximum rank =  0   Radius =  0.650 angstrom
                   Q00  =  -0.079647

C          x = -0.858161  y = -1.001156  z =  1.488065 angstrom
           Maximum rank =  0   Radius =  0.650 angstrom
                   Q00  =  -0.074929

C          x = -0.161161  y = -0.855156  z = -0.760935 angstrom
           Maximum rank =  0   Radius =  0.650 angstrom
                   Q00  =  -0.006283

C          x =  0.495839  y = -1.058156  z =  1.890065 angstrom
           Maximum rank =  0   Radius =  0.650 angstrom
                   Q00  =  -0.036861

C          x =  1.169839  y = -0.905156  z = -0.381935 angstrom
           Maximum rank =  0   Radius =  0.650 angstrom
                   Q00  =  -0.094556

C          x =  1.524839  y = -0.986156  z =  0.951065 angstrom
           Maximum rank =  0   Radius =  0.650 angstrom
                   Q00  =  -0.093635

H          x = -2.216161  y = -0.894156  z = -0.132935 angstrom
           Maximum rank =  0   Radius =  0.325 angstrom
                   Q00  =   0.060304

H          x = -1.642161  y = -1.050156  z =  2.233065 angstrom
           Maximum rank =  0   Radius =  0.325 angstrom
                   Q00  =   0.060977

H          x = -0.418161  y = -0.787156  z = -1.806935 angstrom
           Maximum rank =  0   Radius =  0.325 angstrom
                   Q00  =   0.062682

H          x =  0.732839  y = -1.157156  z =  2.939065 angstrom
           Maximum rank =  0   Radius =  0.325 angstrom
                   Q00  =   0.055727

H          x =  1.936839  y = -0.864156  z = -1.142935 angstrom
           Maximum rank =  0   Radius =  0.325 angstrom
                   Q00  =   0.055512

H          x =  3.130839  y = -0.269156  z =  2.145065 angstrom
           Maximum rank =  0   Radius =  0.325 angstrom
                   Q00  =   0.103461

H          x =  3.585839  y = -0.763156  z =  0.521065 angstrom
           Maximum rank =  0   Radius =  0.325 angstrom
                   Q00  =   0.097674

H          x =  3.312199  y = -2.001326  z =  1.759935 angstrom
           Maximum rank =  0   Radius =  0.325 angstrom
                   Q00  =   0.106057

C          x = -1.999161  y =  2.333844  z = -1.682935 angstrom
           Maximum rank =  0   Radius =  0.650 angstrom
                   Q00  =  -0.232359

C          x = -1.744161  y =  3.580844  z = -2.545935 angstrom
           Maximum rank =  0   Radius =  0.650 angstrom
                   Q00  =  -0.242806

H          x = -2.983161  y =  1.926844  z = -1.906935 angstrom
           Maximum rank =  0   Radius =  0.325 angstrom
                   Q00  =   0.073681

H          x = -1.244161  y =  1.580844  z = -1.903935 angstrom
           Maximum rank =  0   Radius =  0.325 angstrom
                   Q00  =   0.083286

H          x = -1.919161  y =  2.593844  z = -0.627935 angstrom
           Maximum rank =  0   Radius =  0.325 angstrom
                   Q00  =   0.083771

H          x = -0.761161  y =  3.954844  z = -2.257935 angstrom
           Maximum rank =  0   Radius =  0.325 angstrom
                   Q00  =   0.073518

H          x = -2.460181  y =  4.389054  z = -2.335915 angstrom
           Maximum rank =  0   Radius =  0.325 angstrom
                   Q00  =   0.082123

H          x = -1.668421  y =  3.311854  z = -3.609845 angstrom
           Maximum rank =  0   Radius =  0.325 angstrom
                   Q00  =   0.079349

Total multipoles referred to origin at
           x =   0.000000,  y =    0.000000,  z =    0.000000 angstrom
                   Q00  =  -0.000000

Finished at 17:32:13 on 27 Apr 2020

  DMA results are available in the Python driver through the
	  variable('DMA DISTRIBUTED MULTIPOLES')
  and
	  variable('DMA TOTAL MULTIPOLES')
  commands.

    Psi4 stopped on: Monday, 27 April 2020 05:32PM
    Psi4 wall time for execution: 0:01:29.65

*** Psi4 exiting successfully. Buy a developer a beer!
