                               Psi4 1.3.2 release

  ==> Input File <==

--------------------------------------------------------------------------
import numpy as np
set {scf_type pk
basis cc-pvdz
d_convergence 10
gdma_switch   0
gdma_limit    0
gdma_origin   [ 0.0,  0.0,  0.0 ]
}
molecule test {
    units Angstrom
    1 1
    --
    1 1
    C                1.847514071784078     1.570828901873570    -1.060804743652775
    C                1.351514071784078     0.660828901873570    -2.179804743652775
    N                3.096514071784078     1.031828901873570    -0.444804743652775
    H                2.044514071784078     2.568828901873570    -1.463804743652775
    H                1.060514071784078     1.664828901873570    -0.303804743652775
    H                1.086514071784078    -0.311171098126430    -1.760804743652775
    H                2.154514071784078     0.504828901873570    -2.904804743652774
    H                3.847514071784078     0.966828901873570    -1.121804743652775
    H                3.417514071784078     1.634828901873570     0.304195256347225
    H                2.950514071784078     0.108828901873570    -0.051804743652775
    H                0.475594071784078     1.064658901873570    -2.708661743652774
    C               -1.664485928215922    -2.346171098126430    -1.618804743652775
    C               -1.549485928215922     0.784828901873570     0.582195256347225
    C               -0.562485928215922     0.426828901873570     1.505195256347225
    C               -1.915485928215922    -0.108171098126430    -0.427804743652775
    C               -1.311485928215922    -1.369171098126430    -0.518804743652775
    C                0.050514071784078    -0.826171098126430     1.417195256347225
    C               -0.331485928215922    -1.715171098126430     0.418195256347225
    O               -0.191485928215922     1.316828901873570     2.475195256347225
    H               -2.031485928215921     1.743828901873570     0.670195256347225
    H               -2.656485928215922     0.201828901873570    -1.140804743652775
    H                0.810514071784078    -1.110171098126430     2.132195256347226
    H                0.485514071784078     0.962828901873570     3.057195256347226
    H               -1.270485928215922    -3.337171098126430    -1.381804743652775
    H               -1.129485928215922    -1.999171098126430    -2.504804743652775
    H                0.147514071784078    -2.685171098126430     0.362195256347225
    H               -2.733980928215922    -2.428611098126430    -1.862495743652775

}
e, wfn = energy('scf', return_wfn=True)
gdma(wfn)
dmavals = variable('DMA DISTRIBUTED MULTIPOLES')
charges = np.array(dmavals)
print(charges)
np.save('SSI-024LYS-069TYR-2-dimer.npy', np.array(charges))--------------------------------------------------------------------------

*** tstart() called on ds3
*** at Mon Apr 27 06:41:53 2020

   => Loading Basis Set <=

    Name: CC-PVDZ
    Role: ORBITAL
    Keyword: BASIS
    atoms 1-2, 12-18  entry C          line   138 file /theoryfs2/ds/metcalf/miniconda2/envs/tf2gpu/share/psi4/basis/cc-pvdz.gbs
    atoms 3           entry N          line   168 file /theoryfs2/ds/metcalf/miniconda2/envs/tf2gpu/share/psi4/basis/cc-pvdz.gbs
    atoms 4-11, 20-27 entry H          line    22 file /theoryfs2/ds/metcalf/miniconda2/envs/tf2gpu/share/psi4/basis/cc-pvdz.gbs
    atoms 19          entry O          line   198 file /theoryfs2/ds/metcalf/miniconda2/envs/tf2gpu/share/psi4/basis/cc-pvdz.gbs

         ---------------------------------------------------------
                                   SCF
               by Justin Turney, Rob Parrish, Andy Simmonett
                          and Daniel G. A. Smith
                              RHF Reference
                        1 Threads,    500 MiB Core
         ---------------------------------------------------------

  ==> Geometry <==

    Molecular point group: c1
    Full point group: C1

    Geometry (in Angstrom), charge = 1, multiplicity = 1:

       Center              X                  Y                   Z               Mass
    ------------   -----------------  -----------------  -----------------  -----------------
         C            1.847514071784     1.570828901874    -1.060804743653    12.000000000000
         C            1.351514071784     0.660828901874    -2.179804743653    12.000000000000
         N            3.096514071784     1.031828901874    -0.444804743653    14.003074004430
         H            2.044514071784     2.568828901874    -1.463804743653     1.007825032230
         H            1.060514071784     1.664828901874    -0.303804743653     1.007825032230
         H            1.086514071784    -0.311171098126    -1.760804743653     1.007825032230
         H            2.154514071784     0.504828901874    -2.904804743653     1.007825032230
         H            3.847514071784     0.966828901874    -1.121804743653     1.007825032230
         H            3.417514071784     1.634828901874     0.304195256347     1.007825032230
         H            2.950514071784     0.108828901874    -0.051804743653     1.007825032230
         H            0.475594071784     1.064658901874    -2.708661743653     1.007825032230
         C           -1.664485928216    -2.346171098126    -1.618804743653    12.000000000000
         C           -1.549485928216     0.784828901874     0.582195256347    12.000000000000
         C           -0.562485928216     0.426828901874     1.505195256347    12.000000000000
         C           -1.915485928216    -0.108171098126    -0.427804743653    12.000000000000
         C           -1.311485928216    -1.369171098126    -0.518804743653    12.000000000000
         C            0.050514071784    -0.826171098126     1.417195256347    12.000000000000
         C           -0.331485928216    -1.715171098126     0.418195256347    12.000000000000
         O           -0.191485928216     1.316828901874     2.475195256347    15.994914619570
         H           -2.031485928216     1.743828901874     0.670195256347     1.007825032230
         H           -2.656485928216     0.201828901874    -1.140804743653     1.007825032230
         H            0.810514071784    -1.110171098126     2.132195256347     1.007825032230
         H            0.485514071784     0.962828901874     3.057195256347     1.007825032230
         H           -1.270485928216    -3.337171098126    -1.381804743653     1.007825032230
         H           -1.129485928216    -1.999171098126    -2.504804743653     1.007825032230
         H            0.147514071784    -2.685171098126     0.362195256347     1.007825032230
         H           -2.733980928216    -2.428611098126    -1.862495743653     1.007825032230

  Running in c1 symmetry.

  Rotational constants: A =      0.03636  B =      0.02659  C =      0.01943 [cm^-1]
  Rotational constants: A =   1089.99021  B =    797.22638  C =    582.44299 [MHz]
  Nuclear repulsion =  621.101755522978465

  Charge       = 1
  Multiplicity = 1
  Electrons    = 84
  Nalpha       = 42
  Nbeta        = 42

  ==> Algorithm <==

  SCF Algorithm Type is PK.
  DIIS enabled.
  MOM disabled.
  Fractional occupation disabled.
  Guess Type is SAD.
  Energy threshold   = 1.00e-06
  Density threshold  = 1.00e-10
  Integral threshold = 0.00e+00

  ==> Primary Basis <==

  Basis Set: CC-PVDZ
    Blend: CC-PVDZ
    Number of shells: 114
    Number of basis function: 234
    Number of Cartesian functions: 245
    Spherical Harmonics?: true
    Max angular momentum: 2

  ==> Pre-Iterations <==

   -------------------------------------------------------
    Irrep   Nso     Nmo     Nalpha   Nbeta   Ndocc  Nsocc
   -------------------------------------------------------
     A        234     234       0       0       0       0
   -------------------------------------------------------
    Total     234     234      42      42      42       0
   -------------------------------------------------------

  ==> Integral Setup <==

  Using integral reordering PK algorithm.
  Sizing the integral batches needed.
  Building batch lookup table.
   Calculation information:
      Number of atoms:                  27
      Number of AO shells:             114
      Number of primitives:            322
      Number of atomic orbitals:       245
      Number of basis functions:       234

      Integral cutoff                 1.00e-12
      Number of threads:                 1

	Batch   1 pq = [       0,    9405] index = [             0,44231715] size =     44231715
	Batch   2 pq = [    9405,   13301] index = [      44231715,88464951] size =     44233236
	Batch   3 pq = [   13301,   16290] index = [      88464951,132690195] size =     44225244
	Batch   4 pq = [   16290,   18810] index = [     132690195,176917455] size =     44227260
	Batch   5 pq = [   18810,   21030] index = [     176917455,221140965] size =     44223510
	Batch   6 pq = [   21030,   23037] index = [     221140965,265363203] size =     44222238
	Batch   7 pq = [   23037,   24883] index = [     265363203,309594286] size =     44231083
	Batch   8 pq = [   24883,   26601] index = [     309594286,353819901] size =     44225615
	Batch   9 pq = [   26601,   27495] index = [     353819901,378001260] size =     24181359
  Task number: 35
  Buffer size: 11059200
  Buffer per thread: 2
  We computed 23410607 shell quartets total.
  Whereas there are 21487290 unique shell quartets.
     8.95 percent of shell quartets recomputed by reordering.

  ==> DiskJK: Disk-Based J/K Matrices <==

    J tasked:                  Yes
    K tasked:                  Yes
    wK tasked:                  No
    Memory [MiB]:              375
    Schwarz Cutoff:          1E-12

    OpenMP threads:              1

  Minimum eigenvalue in the overlap matrix is 3.2626416426E-04.
  Using Symmetric Orthogonalization.

  SCF Guess: Superposition of Atomic Densities via on-the-fly atomic UHF.

  ==> Iterations <==

                        Total Energy        Delta E     RMS |[F,P]|

   @RHF iter SAD:  -478.45937542727427   -4.78459e+02   0.00000e+00
   @RHF iter   1:  -478.99373287473804   -5.34357e-01   2.70358e-03 DIIS
   @RHF iter   2:  -479.22489076453780   -2.31158e-01   1.08373e-03 DIIS
   @RHF iter   3:  -479.25718259597909   -3.22918e-02   2.96738e-04 DIIS
   @RHF iter   4:  -479.26064924808685   -3.46665e-03   1.14656e-04 DIIS
   @RHF iter   5:  -479.26107367493603   -4.24427e-04   2.19100e-05 DIIS
   @RHF iter   6:  -479.26109780497529   -2.41300e-05   6.69121e-06 DIIS
   @RHF iter   7:  -479.26110007673719   -2.27176e-06   2.27804e-06 DIIS
   @RHF iter   8:  -479.26110040838222   -3.31645e-07   8.03073e-07 DIIS
   @RHF iter   9:  -479.26110046278353   -5.44013e-08   3.49103e-07 DIIS
   @RHF iter  10:  -479.26110047438334   -1.15998e-08   1.56683e-07 DIIS
   @RHF iter  11:  -479.26110047863648   -4.25314e-09   6.87362e-08 DIIS
   @RHF iter  12:  -479.26110047936771   -7.31234e-10   2.80268e-08 DIIS
   @RHF iter  13:  -479.26110047945156   -8.38440e-11   8.83441e-09 DIIS
   @RHF iter  14:  -479.26110047945798   -6.42331e-12   2.43295e-09 DIIS
   @RHF iter  15:  -479.26110047945838   -3.97904e-13   9.67550e-10 DIIS
   @RHF iter  16:  -479.26110047945991   -1.53477e-12   3.78800e-10 DIIS
   @RHF iter  17:  -479.26110047946213   -2.21689e-12   1.83620e-10 DIIS
   @RHF iter  18:  -479.26110047946031    1.81899e-12   9.64811e-11 DIIS
  Energy and wave function converged.

  ==> Post-Iterations <==

    Orbital Energies [Eh]
    ---------------------

    Doubly Occupied:

       1A    -20.697889     2A    -15.897033     3A    -11.468296
       4A    -11.417020     5A    -11.392516     6A    -11.353946
       7A    -11.351767     8A    -11.351201     9A    -11.347698
      10A    -11.344942    11A    -11.327437    12A     -1.515797
      13A     -1.513259    14A     -1.263316    15A     -1.207319
      16A     -1.145991    17A     -1.132635    18A     -1.045863
      19A     -1.032170    20A     -0.972791    21A     -0.959305
      22A     -0.956562    23A     -0.914393    24A     -0.850487
      25A     -0.845762    26A     -0.785073    27A     -0.779709
      28A     -0.753717    29A     -0.715416    30A     -0.713802
      31A     -0.701204    32A     -0.700556    33A     -0.686555
      34A     -0.678742    35A     -0.678150    36A     -0.664581
      37A     -0.630502    38A     -0.605367    39A     -0.596946
      40A     -0.578537    41A     -0.455662    42A     -0.414462

    Virtual:

      43A     -0.043418    44A      0.010432    45A      0.021624
      46A      0.022934    47A      0.042022    48A      0.053184
      49A      0.072267    50A      0.082578    51A      0.098542
      52A      0.110056    53A      0.116884    54A      0.124354
      55A      0.140297    56A      0.147283    57A      0.165766
      58A      0.167071    59A      0.178168    60A      0.192601
      61A      0.210391    62A      0.214584    63A      0.261017
      64A      0.266020    65A      0.322808    66A      0.348738
      67A      0.366908    68A      0.381993    69A      0.386939
      70A      0.394876    71A      0.404982    72A      0.421237
      73A      0.444561    74A      0.455271    75A      0.506700
      76A      0.528740    77A      0.539129    78A      0.554536
      79A      0.581047    80A      0.582179    81A      0.594775
      82A      0.607610    83A      0.623716    84A      0.627235
      85A      0.629337    86A      0.650264    87A      0.654028
      88A      0.658114    89A      0.671736    90A      0.679353
      91A      0.690477    92A      0.705112    93A      0.714638
      94A      0.732927    95A      0.741324    96A      0.748031
      97A      0.764595    98A      0.767938    99A      0.773130
     100A      0.780187   101A      0.784617   102A      0.792681
     103A      0.796815   104A      0.812561   105A      0.822407
     106A      0.829539   107A      0.839922   108A      0.844610
     109A      0.870842   110A      0.876452   111A      0.890334
     112A      0.902691   113A      0.924732   114A      0.944995
     115A      0.946604   116A      0.950169   117A      1.014117
     118A      1.028852   119A      1.052584   120A      1.063371
     121A      1.093213   122A      1.114707   123A      1.129748
     124A      1.137149   125A      1.149944   126A      1.175699
     127A      1.183255   128A      1.193631   129A      1.203509
     130A      1.209286   131A      1.236578   132A      1.243010
     133A      1.279504   134A      1.288615   135A      1.328416
     136A      1.364291   137A      1.383490   138A      1.401455
     139A      1.433690   140A      1.464038   141A      1.471587
     142A      1.478684   143A      1.495346   144A      1.513385
     145A      1.546835   146A      1.571947   147A      1.594168
     148A      1.604213   149A      1.623545   150A      1.637303
     151A      1.658479   152A      1.677929   153A      1.694779
     154A      1.707663   155A      1.713375   156A      1.727427
     157A      1.749126   158A      1.760568   159A      1.773923
     160A      1.786413   161A      1.787577   162A      1.796167
     163A      1.804553   164A      1.806536   165A      1.815192
     166A      1.827319   167A      1.832904   168A      1.847367
     169A      1.861144   170A      1.867847   171A      1.870485
     172A      1.895690   173A      1.903928   174A      1.919417
     175A      1.928156   176A      1.947656   177A      1.949515
     178A      1.969230   179A      1.971154   180A      1.985045
     181A      2.006024   182A      2.022771   183A      2.030722
     184A      2.053846   185A      2.060715   186A      2.091545
     187A      2.117384   188A      2.147748   189A      2.155456
     190A      2.164355   191A      2.169053   192A      2.188575
     193A      2.205717   194A      2.243497   195A      2.271693
     196A      2.296846   197A      2.318133   198A      2.331240
     199A      2.352905   200A      2.361624   201A      2.365784
     202A      2.397531   203A      2.428357   204A      2.444982
     205A      2.471733   206A      2.510528   207A      2.517131
     208A      2.542270   209A      2.555990   210A      2.616380
     211A      2.633533   212A      2.651716   213A      2.665740
     214A      2.679418   215A      2.697466   216A      2.709095
     217A      2.740724   218A      2.760230   219A      2.791328
     220A      2.803934   221A      2.867533   222A      2.874828
     223A      2.907337   224A      2.972751   225A      3.029214
     226A      3.109979   227A      3.132869   228A      3.136843
     229A      3.166344   230A      3.233347   231A      3.459208
     232A      3.556116   233A      3.850907   234A      4.078976

    Final Occupation by Irrep:
              A
    DOCC [    42 ]

  @RHF Final Energy:  -479.26110047946031

   => Energetics <=

    Nuclear Repulsion Energy =            621.1017555229784648
    One-Electron Energy =               -1869.8369611080643153
    Two-Electron Energy =                 769.4741051056255401
    Total Energy =                       -479.2611004794603105

Computation Completed

Properties will be evaluated at   0.000000,   0.000000,   0.000000 [a0]

Properties computed using the SCF density matrix

  Nuclear Dipole Moment: [e a0]
     X:     8.1075      Y:    -0.4179      Z:    -9.9984

  Electronic Dipole Moment: [e a0]
     X:    -3.1480      Y:     1.7035      Z:     8.8632

  Dipole Moment: [e a0]
     X:     4.9595      Y:     1.2856      Z:    -1.1352     Total:     5.2477

  Dipole Moment: [D]
     X:    12.6058      Y:     3.2676      Z:    -2.8855     Total:    13.3383

*** tstop() called on ds3 at Mon Apr 27 06:47:08 2020
Module time:
	user time   =     171.66 seconds =       2.86 minutes
	system time =      56.94 seconds =       0.95 minutes
	total time  =        315 seconds =       5.25 minutes
Total time:
	user time   =     171.66 seconds =       2.86 minutes
	system time =      56.94 seconds =       0.95 minutes
	total time  =        315 seconds =       5.25 minutes
                                     G D M A

                                 by Anthony Stone

                           version 2.2.06, 22 June 2011

               Distributed Multipoles from Gaussian wavefunctions

Starting at 6:47:8 on 27 Apr 2020

Using SCF density matrix from file ./SSI/SSI-024LYS-069TYR-2-dimer.test.425.fchk

                         Distributed Multipole Analysis

Standard DMA

Positions and radii in angstrom
Multipole moments in atomic units, ea_0^k for rank k

C          x =  1.847514  y =  1.570829  z = -1.060805 angstrom
           Maximum rank =  0   Radius =  0.650 angstrom
                   Q00  =  -0.035845

C          x =  1.351514  y =  0.660829  z = -2.179805 angstrom
           Maximum rank =  0   Radius =  0.650 angstrom
                   Q00  =  -0.217877

N          x =  3.096514  y =  1.031829  z = -0.444805 angstrom
           Maximum rank =  0   Radius =  0.650 angstrom
                   Q00  =  -0.138231

H          x =  2.044514  y =  2.568829  z = -1.463805 angstrom
           Maximum rank =  0   Radius =  0.325 angstrom
                   Q00  =   0.122719

H          x =  1.060514  y =  1.664829  z = -0.303805 angstrom
           Maximum rank =  0   Radius =  0.325 angstrom
                   Q00  =   0.148105

H          x =  1.086514  y = -0.311171  z = -1.760805 angstrom
           Maximum rank =  0   Radius =  0.325 angstrom
                   Q00  =   0.111398

H          x =  2.154514  y =  0.504829  z = -2.904805 angstrom
           Maximum rank =  0   Radius =  0.325 angstrom
                   Q00  =   0.088814

H          x =  3.847514  y =  0.966829  z = -1.121805 angstrom
           Maximum rank =  0   Radius =  0.325 angstrom
                   Q00  =   0.253842

H          x =  3.417514  y =  1.634829  z =  0.304195 angstrom
           Maximum rank =  0   Radius =  0.325 angstrom
                   Q00  =   0.254860

H          x =  2.950514  y =  0.108829  z = -0.051805 angstrom
           Maximum rank =  0   Radius =  0.325 angstrom
                   Q00  =   0.255602

H          x =  0.475594  y =  1.064659  z = -2.708662 angstrom
           Maximum rank =  0   Radius =  0.325 angstrom
                   Q00  =   0.153318

C          x = -1.664486  y = -2.346171  z = -1.618805 angstrom
           Maximum rank =  0   Radius =  0.650 angstrom
                   Q00  =  -0.192649

C          x = -1.549486  y =  0.784829  z =  0.582195 angstrom
           Maximum rank =  0   Radius =  0.650 angstrom
                   Q00  =  -0.125992

C          x = -0.562486  y =  0.426829  z =  1.505195 angstrom
           Maximum rank =  0   Radius =  0.650 angstrom
                   Q00  =   0.309779

C          x = -1.915486  y = -0.108171  z = -0.427805 angstrom
           Maximum rank =  0   Radius =  0.650 angstrom
                   Q00  =  -0.013286

C          x = -1.311486  y = -1.369171  z = -0.518805 angstrom
           Maximum rank =  0   Radius =  0.650 angstrom
                   Q00  =  -0.139530

C          x =  0.050514  y = -0.826171  z =  1.417195 angstrom
           Maximum rank =  0   Radius =  0.650 angstrom
                   Q00  =  -0.234614

C          x = -0.331486  y = -1.715171  z =  0.418195 angstrom
           Maximum rank =  0   Radius =  0.650 angstrom
                   Q00  =   0.013055

O          x = -0.191486  y =  1.316829  z =  2.475195 angstrom
           Maximum rank =  0   Radius =  0.650 angstrom
                   Q00  =  -0.676260

H          x = -2.031486  y =  1.743829  z =  0.670195 angstrom
           Maximum rank =  0   Radius =  0.325 angstrom
                   Q00  =   0.097833

H          x = -2.656486  y =  0.201829  z = -1.140805 angstrom
           Maximum rank =  0   Radius =  0.325 angstrom
                   Q00  =   0.082565

H          x =  0.810514  y = -1.110171  z =  2.132195 angstrom
           Maximum rank =  0   Radius =  0.325 angstrom
                   Q00  =   0.073968

H          x =  0.485514  y =  0.962829  z =  3.057195 angstrom
           Maximum rank =  0   Radius =  0.325 angstrom
                   Q00  =   0.408816

H          x = -1.270486  y = -3.337171  z = -1.381805 angstrom
           Maximum rank =  0   Radius =  0.325 angstrom
                   Q00  =   0.107869

H          x = -1.129486  y = -1.999171  z = -2.504805 angstrom
           Maximum rank =  0   Radius =  0.325 angstrom
                   Q00  =   0.086437

H          x =  0.147514  y = -2.685171  z =  0.362195 angstrom
           Maximum rank =  0   Radius =  0.325 angstrom
                   Q00  =   0.081918

H          x = -2.733981  y = -2.428611  z = -1.862496 angstrom
           Maximum rank =  0   Radius =  0.325 angstrom
                   Q00  =   0.123385

Total multipoles referred to origin at
           x =   0.000000,  y =    0.000000,  z =    0.000000 angstrom
                   Q00  =   1.000000

Finished at 6:47:8 on 27 Apr 2020

  DMA results are available in the Python driver through the
	  variable('DMA DISTRIBUTED MULTIPOLES')
  and
	  variable('DMA TOTAL MULTIPOLES')
  commands.

    Psi4 stopped on: Monday, 27 April 2020 06:47AM
    Psi4 wall time for execution: 0:05:14.45

*** Psi4 exiting successfully. Buy a developer a beer!
