                               Psi4 1.3.2 release

  ==> Input File <==

--------------------------------------------------------------------------
import numpy as np
set {scf_type pk
basis cc-pvdz
d_convergence 10
gdma_switch   0
gdma_limit    0
gdma_origin   [ 0.0,  0.0,  0.0 ]
}
molecule test {
    units Angstrom
    0 1
    --
    0 1
    C                0.617752231940177    -1.286881511644606    -2.183114884257184
    C               -0.242247768059823    -0.980881511644606    -0.975114884257183
    O               -1.076247768059823    -0.047881511644606    -0.949114884257183
    N               -0.014247768059823    -1.774881511644606     0.056885115742817
    H               -0.013247768059823    -1.223881511644606    -3.071114884257183
    H                1.018752231940177    -2.300881511644606    -2.134114884257183
    H               -0.582247768059823    -1.663881511644606     0.880885115742817
    H                0.650752231940177    -2.533881511644606    -0.011114884257183
    H                1.440922231940177    -0.564171511644606    -2.283574884257183
    C               -0.312247768059823     1.850118488355394     1.618885115742817
    C                1.000752231940176     2.227118488355394     2.305885115742816
    H               -0.430247768059823     2.386118488355394     0.675885115742817
    H               -0.319247768059823     0.783118488355394     1.401885115742817
    H               -1.149247768059823     2.077118488355394     2.281885115742816
    H                1.806752231940177     2.126118488355394     1.578885115742817
    H                0.981262231940176     3.256948488355394     2.691981115742816
    H                1.205622231940176     1.532918488355394     3.134207115742816

}
e, wfn = energy('scf', return_wfn=True)
gdma(wfn)
dmavals = variable('DMA DISTRIBUTED MULTIPOLES')
charges = np.array(dmavals)
print(charges)
np.save('SSI-014GLN-093VAL-1-dimer.npy', np.array(charges))--------------------------------------------------------------------------

*** tstart() called on ds3
*** at Mon Apr 27 16:20:04 2020

   => Loading Basis Set <=

    Name: CC-PVDZ
    Role: ORBITAL
    Keyword: BASIS
    atoms 1-2, 10-11 entry C          line   138 file /theoryfs2/ds/metcalf/miniconda2/envs/tf2gpu/share/psi4/basis/cc-pvdz.gbs
    atoms 3          entry O          line   198 file /theoryfs2/ds/metcalf/miniconda2/envs/tf2gpu/share/psi4/basis/cc-pvdz.gbs
    atoms 4          entry N          line   168 file /theoryfs2/ds/metcalf/miniconda2/envs/tf2gpu/share/psi4/basis/cc-pvdz.gbs
    atoms 5-9, 12-17 entry H          line    22 file /theoryfs2/ds/metcalf/miniconda2/envs/tf2gpu/share/psi4/basis/cc-pvdz.gbs

         ---------------------------------------------------------
                                   SCF
               by Justin Turney, Rob Parrish, Andy Simmonett
                          and Daniel G. A. Smith
                              RHF Reference
                        1 Threads,    500 MiB Core
         ---------------------------------------------------------

  ==> Geometry <==

    Molecular point group: c1
    Full point group: C1

    Geometry (in Angstrom), charge = 0, multiplicity = 1:

       Center              X                  Y                   Z               Mass
    ------------   -----------------  -----------------  -----------------  -----------------
         C            0.617752231940    -1.286881511645    -2.183114884257    12.000000000000
         C           -0.242247768060    -0.980881511645    -0.975114884257    12.000000000000
         O           -1.076247768060    -0.047881511645    -0.949114884257    15.994914619570
         N           -0.014247768060    -1.774881511645     0.056885115743    14.003074004430
         H           -0.013247768060    -1.223881511645    -3.071114884257     1.007825032230
         H            1.018752231940    -2.300881511645    -2.134114884257     1.007825032230
         H           -0.582247768060    -1.663881511645     0.880885115743     1.007825032230
         H            0.650752231940    -2.533881511645    -0.011114884257     1.007825032230
         H            1.440922231940    -0.564171511645    -2.283574884257     1.007825032230
         C           -0.312247768060     1.850118488355     1.618885115743    12.000000000000
         C            1.000752231940     2.227118488355     2.305885115743    12.000000000000
         H           -0.430247768060     2.386118488355     0.675885115743     1.007825032230
         H           -0.319247768060     0.783118488355     1.401885115743     1.007825032230
         H           -1.149247768060     2.077118488355     2.281885115743     1.007825032230
         H            1.806752231940     2.126118488355     1.578885115743     1.007825032230
         H            0.981262231940     3.256948488355     2.691981115743     1.007825032230
         H            1.205622231940     1.532918488355     3.134207115743     1.007825032230

  Running in c1 symmetry.

  Rotational constants: A =      0.17918  B =      0.03815  C =      0.03712 [cm^-1]
  Rotational constants: A =   5371.82078  B =   1143.82505  C =   1112.89343 [MHz]
  Nuclear repulsion =  233.288934917602489

  Charge       = 0
  Multiplicity = 1
  Electrons    = 50
  Nalpha       = 25
  Nbeta        = 25

  ==> Algorithm <==

  SCF Algorithm Type is PK.
  DIIS enabled.
  MOM disabled.
  Fractional occupation disabled.
  Guess Type is SAD.
  Energy threshold   = 1.00e-06
  Density threshold  = 1.00e-10
  Integral threshold = 0.00e+00

  ==> Primary Basis <==

  Basis Set: CC-PVDZ
    Blend: CC-PVDZ
    Number of shells: 69
    Number of basis function: 139
    Number of Cartesian functions: 145
    Spherical Harmonics?: true
    Max angular momentum: 2

  ==> Pre-Iterations <==

   -------------------------------------------------------
    Irrep   Nso     Nmo     Nalpha   Nbeta   Ndocc  Nsocc
   -------------------------------------------------------
     A        139     139       0       0       0       0
   -------------------------------------------------------
    Total     139     139      25      25      25       0
   -------------------------------------------------------

  ==> Integral Setup <==

  Using integral reordering PK algorithm.
  Sizing the integral batches needed.
  Building batch lookup table.
   Calculation information:
      Number of atoms:                  17
      Number of AO shells:              69
      Number of primitives:            187
      Number of atomic orbitals:       145
      Number of basis functions:       139

      Integral cutoff                 1.00e-12
      Number of threads:                 1

	Batch   1 pq = [       0,    9730] index = [             0,47341315] size =     47341315
  Task number: 5
  Buffer size: 11059200
  Buffer per thread: 2
  We computed 2418767 shell quartets total.
  Whereas there are 2917320 unique shell quartets.

  ==> DiskJK: Disk-Based J/K Matrices <==

    J tasked:                  Yes
    K tasked:                  Yes
    wK tasked:                  No
    Memory [MiB]:              375
    Schwarz Cutoff:          1E-12

    OpenMP threads:              1

  Minimum eigenvalue in the overlap matrix is 4.5449071769E-03.
  Using Symmetric Orthogonalization.

  SCF Guess: Superposition of Atomic Densities via on-the-fly atomic UHF.

  ==> Iterations <==

                        Total Energy        Delta E     RMS |[F,P]|

   @RHF iter SAD:  -285.90101247718519   -2.85901e+02   0.00000e+00
   @RHF iter   1:  -286.99185703350548   -1.09084e+00   4.63615e-03 DIIS
   @RHF iter   2:  -287.16649732545613   -1.74640e-01   2.63946e-03 DIIS
   @RHF iter   3:  -287.21815644699348   -5.16591e-02   5.64869e-04 DIIS
   @RHF iter   4:  -287.22168618174834   -3.52973e-03   2.21798e-04 DIIS
   @RHF iter   5:  -287.22231384838204   -6.27667e-04   3.41126e-05 DIIS
   @RHF iter   6:  -287.22234271857042   -2.88702e-05   1.49805e-05 DIIS
   @RHF iter   7:  -287.22234719884062   -4.48027e-06   5.95295e-06 DIIS
   @RHF iter   8:  -287.22234821413429   -1.01529e-06   2.23417e-06 DIIS
   @RHF iter   9:  -287.22234836560074   -1.51466e-07   5.87921e-07 DIIS
   @RHF iter  10:  -287.22234837382678   -8.22604e-09   1.95746e-07 DIIS
   @RHF iter  11:  -287.22234837475469   -9.27912e-10   4.35518e-08 DIIS
   @RHF iter  12:  -287.22234837480175   -4.70664e-11   9.47674e-09 DIIS
   @RHF iter  13:  -287.22234837480380   -2.04636e-12   1.76807e-09 DIIS
   @RHF iter  14:  -287.22234837480278    1.02318e-12   7.10442e-10 DIIS
   @RHF iter  15:  -287.22234837480346   -6.82121e-13   2.52040e-10 DIIS
   @RHF iter  16:  -287.22234837480249    9.66338e-13   7.74939e-11 DIIS
  Energy and wave function converged.

  ==> Post-Iterations <==

    Orbital Energies [Eh]
    ---------------------

    Doubly Occupied:

       1A    -20.505577     2A    -15.595738     3A    -11.353157
       4A    -11.245776     5A    -11.208653     6A    -11.198349
       7A     -1.356789     8A     -1.222840     9A     -1.004259
      10A     -1.002842    11A     -0.822257    12A     -0.806124
      13A     -0.733981    14A     -0.654301    15A     -0.613707
      16A     -0.585035    17A     -0.582234    18A     -0.567603
      19A     -0.557351    20A     -0.523758    21A     -0.486014
      22A     -0.471437    23A     -0.470119    24A     -0.410692
      25A     -0.404013

    Virtual:

      26A      0.158986    27A      0.187765    28A      0.198889
      29A      0.213071    30A      0.225370    31A      0.256209
      32A      0.263139    33A      0.268015    34A      0.280699
      35A      0.283491    36A      0.305501    37A      0.344892
      38A      0.382128    39A      0.411189    40A      0.464325
      41A      0.558661    42A      0.606082    43A      0.610039
      44A      0.619404    45A      0.632953    46A      0.663142
      47A      0.682367    48A      0.692504    49A      0.704236
      50A      0.719995    51A      0.741963    52A      0.796073
      53A      0.851614    54A      0.855792    55A      0.859365
      56A      0.881392    57A      0.896452    58A      0.899788
      59A      0.905501    60A      0.922751    61A      0.929958
      62A      0.933980    63A      0.941060    64A      0.976076
      65A      0.999524    66A      1.036927    67A      1.060835
      68A      1.111438    69A      1.138557    70A      1.149160
      71A      1.164975    72A      1.258003    73A      1.357737
      74A      1.372964    75A      1.385456    76A      1.415126
      77A      1.432317    78A      1.449393    79A      1.482908
      80A      1.500870    81A      1.504640    82A      1.596191
      83A      1.626426    84A      1.653312    85A      1.691407
      86A      1.698157    87A      1.742649    88A      1.820091
      89A      1.844640    90A      1.867518    91A      1.874249
      92A      1.887073    93A      1.897955    94A      1.902799
      95A      1.927023    96A      1.935634    97A      1.955486
      98A      1.961856    99A      1.965187   100A      1.979404
     101A      1.985067   102A      2.003973   103A      2.052315
     104A      2.067768   105A      2.117329   106A      2.127721
     107A      2.146842   108A      2.215671   109A      2.283756
     110A      2.316331   111A      2.327473   112A      2.411782
     113A      2.437183   114A      2.454997   115A      2.473042
     116A      2.477246   117A      2.541831   118A      2.558145
     119A      2.575740   120A      2.603411   121A      2.625167
     122A      2.736655   123A      2.758948   124A      2.769611
     125A      2.787572   126A      2.807864   127A      2.847498
     128A      2.859843   129A      2.875181   130A      2.953896
     131A      2.973628   132A      2.994256   133A      3.087498
     134A      3.132084   135A      3.276842   136A      3.482994
     137A      3.523364   138A      3.832301   139A      3.889775

    Final Occupation by Irrep:
              A
    DOCC [    25 ]

  @RHF Final Energy:  -287.22234837480249

   => Energetics <=

    Nuclear Repulsion Energy =            233.2889349176024893
    One-Electron Energy =                -852.2573476986773358
    Two-Electron Energy =                 331.7460644062724100
    Total Energy =                       -287.2223483748024933

Computation Completed

Properties will be evaluated at   0.000000,   0.000000,   0.000000 [a0]

Properties computed using the SCF density matrix

  Nuclear Dipole Moment: [e a0]
     X:     4.3164      Y:     3.6382      Z:     4.8192

  Electronic Dipole Moment: [e a0]
     X:    -3.3194      Y:    -5.1069      Z:    -4.7026

  Dipole Moment: [e a0]
     X:     0.9970      Y:    -1.4686      Z:     0.1166     Total:     1.7789

  Dipole Moment: [D]
     X:     2.5342      Y:    -3.7329      Z:     0.2965     Total:     4.5216

*** tstop() called on ds3 at Mon Apr 27 16:20:30 2020
Module time:
	user time   =      17.81 seconds =       0.30 minutes
	system time =       8.52 seconds =       0.14 minutes
	total time  =         26 seconds =       0.43 minutes
Total time:
	user time   =      17.81 seconds =       0.30 minutes
	system time =       8.52 seconds =       0.14 minutes
	total time  =         26 seconds =       0.43 minutes
                                     G D M A

                                 by Anthony Stone

                           version 2.2.06, 22 June 2011

               Distributed Multipoles from Gaussian wavefunctions

Starting at 16:20:30 on 27 Apr 2020

Using SCF density matrix from file ./SSI/SSI-014GLN-093VAL-1-dimer.test.26462.fchk

                         Distributed Multipole Analysis

Standard DMA

Positions and radii in angstrom
Multipole moments in atomic units, ea_0^k for rank k

C          x =  0.617752  y = -1.286882  z = -2.183115 angstrom
           Maximum rank =  0   Radius =  0.650 angstrom
                   Q00  =  -0.264640

C          x = -0.242248  y = -0.980882  z = -0.975115 angstrom
           Maximum rank =  0   Radius =  0.650 angstrom
                   Q00  =   0.803601

O          x = -1.076248  y = -0.047882  z = -0.949115 angstrom
           Maximum rank =  0   Radius =  0.650 angstrom
                   Q00  =  -0.789775

N          x = -0.014248  y = -1.774882  z =  0.056885 angstrom
           Maximum rank =  0   Radius =  0.650 angstrom
                   Q00  =  -0.513256

H          x = -0.013248  y = -1.223882  z = -3.071115 angstrom
           Maximum rank =  0   Radius =  0.325 angstrom
                   Q00  =   0.132325

H          x =  1.018752  y = -2.300882  z = -2.134115 angstrom
           Maximum rank =  0   Radius =  0.325 angstrom
                   Q00  =   0.075518

H          x = -0.582248  y = -1.663882  z =  0.880885 angstrom
           Maximum rank =  0   Radius =  0.325 angstrom
                   Q00  =   0.221884

H          x =  0.650752  y = -2.533882  z = -0.011115 angstrom
           Maximum rank =  0   Radius =  0.325 angstrom
                   Q00  =   0.210168

H          x =  1.440922  y = -0.564172  z = -2.283575 angstrom
           Maximum rank =  0   Radius =  0.325 angstrom
                   Q00  =   0.132587

C          x = -0.312248  y =  1.850118  z =  1.618885 angstrom
           Maximum rank =  0   Radius =  0.650 angstrom
                   Q00  =  -0.218992

C          x =  1.000752  y =  2.227118  z =  2.305885 angstrom
           Maximum rank =  0   Radius =  0.650 angstrom
                   Q00  =  -0.237190

H          x = -0.430248  y =  2.386118  z =  0.675885 angstrom
           Maximum rank =  0   Radius =  0.325 angstrom
                   Q00  =   0.089872

H          x = -0.319248  y =  0.783118  z =  1.401885 angstrom
           Maximum rank =  0   Radius =  0.325 angstrom
                   Q00  =   0.072254

H          x = -1.149248  y =  2.077118  z =  2.281885 angstrom
           Maximum rank =  0   Radius =  0.325 angstrom
                   Q00  =   0.068255

H          x =  1.806752  y =  2.126118  z =  1.578885 angstrom
           Maximum rank =  0   Radius =  0.325 angstrom
                   Q00  =   0.071439

H          x =  0.981262  y =  3.256948  z =  2.691981 angstrom
           Maximum rank =  0   Radius =  0.325 angstrom
                   Q00  =   0.078230

H          x =  1.205622  y =  1.532918  z =  3.134207 angstrom
           Maximum rank =  0   Radius =  0.325 angstrom
                   Q00  =   0.067721

Total multipoles referred to origin at
           x =   0.000000,  y =    0.000000,  z =    0.000000 angstrom
                   Q00  =  -0.000000

Finished at 16:20:30 on 27 Apr 2020

  DMA results are available in the Python driver through the
	  variable('DMA DISTRIBUTED MULTIPOLES')
  and
	  variable('DMA TOTAL MULTIPOLES')
  commands.

    Psi4 stopped on: Monday, 27 April 2020 04:20PM
    Psi4 wall time for execution: 0:00:25.78

*** Psi4 exiting successfully. Buy a developer a beer!
