                               Psi4 1.3.2 release

  ==> Input File <==

--------------------------------------------------------------------------
import numpy as np
set {scf_type pk
basis cc-pvdz
d_convergence 10
gdma_switch   0
gdma_limit    0
gdma_origin   [ 0.0,  0.0,  0.0 ]
}
molecule test {
    units Angstrom
    0 1
    --
    0 1
    C               -2.229688387329432     0.031467689236182    -2.160723008310057
    C                0.771311612670568    -1.230532310763818    -0.165723008310056
    C               -0.020688387329432    -0.789532310763818    -1.234723008310056
    C                0.234311612670568    -1.300532310763818     1.116276991689944
    C               -1.357688387329431    -0.426532310763818    -1.021723008310056
    C               -1.090688387329432    -0.937532310763818     1.334276991689944
    C               -1.885688387329431    -0.508532310763818     0.269276991689944
    H                1.797311612670569    -1.516532310763817    -0.340723008310056
    H                0.405311612670568    -0.721532310763818    -2.225723008310057
    H                0.845311612670569    -1.643532310763818     1.941276991689943
    H               -1.513688387329432    -0.999532310763818     2.327276991689943
    H               -1.652688387329431     0.721467689236182    -2.778723008310056
    H               -3.085688387329431     0.581467689236182    -1.765723008310056
    H               -2.916688387329431    -0.238532310763817     0.451276991689944
    H               -2.591126687329432    -0.797672310763818    -2.786733008310057
    C                3.064311612670569     1.701467689236183     0.784276991689944
    C                1.975311612670569     2.728467689236183     1.056276991689944
    H                2.657311612670568     0.704467689236182     0.936276991689944
    H                3.383311612670568     1.799467689236182    -0.244723008310056
    H                3.936311612670568     1.854467689236182     1.416276991689944
    H                2.399311612670569     3.720467689236183     0.890276991689944
    H                1.615451612670568     2.661087689236183     2.093566991689944
    H                1.140355612670569     2.587747689236183     0.354106991689944

}
e, wfn = energy('scf', return_wfn=True)
gdma(wfn)
dmavals = variable('DMA DISTRIBUTED MULTIPOLES')
charges = np.array(dmavals)
print(charges)
np.save('SSI-038PHE-061VAL-2-dimer.npy', np.array(charges))--------------------------------------------------------------------------

*** tstart() called on ds3
*** at Tue Apr 28 14:22:59 2020

   => Loading Basis Set <=

    Name: CC-PVDZ
    Role: ORBITAL
    Keyword: BASIS
    atoms 1-7, 16-17  entry C          line   138 file /theoryfs2/ds/metcalf/miniconda2/envs/tf2gpu/share/psi4/basis/cc-pvdz.gbs
    atoms 8-15, 18-23 entry H          line    22 file /theoryfs2/ds/metcalf/miniconda2/envs/tf2gpu/share/psi4/basis/cc-pvdz.gbs

         ---------------------------------------------------------
                                   SCF
               by Justin Turney, Rob Parrish, Andy Simmonett
                          and Daniel G. A. Smith
                              RHF Reference
                        1 Threads,    500 MiB Core
         ---------------------------------------------------------

  ==> Geometry <==

    Molecular point group: c1
    Full point group: C1

    Geometry (in Angstrom), charge = 0, multiplicity = 1:

       Center              X                  Y                   Z               Mass
    ------------   -----------------  -----------------  -----------------  -----------------
         C           -2.229688387329     0.031467689236    -2.160723008310    12.000000000000
         C            0.771311612671    -1.230532310764    -0.165723008310    12.000000000000
         C           -0.020688387329    -0.789532310764    -1.234723008310    12.000000000000
         C            0.234311612671    -1.300532310764     1.116276991690    12.000000000000
         C           -1.357688387329    -0.426532310764    -1.021723008310    12.000000000000
         C           -1.090688387329    -0.937532310764     1.334276991690    12.000000000000
         C           -1.885688387329    -0.508532310764     0.269276991690    12.000000000000
         H            1.797311612671    -1.516532310764    -0.340723008310     1.007825032230
         H            0.405311612671    -0.721532310764    -2.225723008310     1.007825032230
         H            0.845311612671    -1.643532310764     1.941276991690     1.007825032230
         H           -1.513688387329    -0.999532310764     2.327276991690     1.007825032230
         H           -1.652688387329     0.721467689236    -2.778723008310     1.007825032230
         H           -3.085688387329     0.581467689236    -1.765723008310     1.007825032230
         H           -2.916688387329    -0.238532310764     0.451276991690     1.007825032230
         H           -2.591126687329    -0.797672310764    -2.786733008310     1.007825032230
         C            3.064311612671     1.701467689236     0.784276991690    12.000000000000
         C            1.975311612671     2.728467689236     1.056276991690    12.000000000000
         H            2.657311612671     0.704467689236     0.936276991690     1.007825032230
         H            3.383311612671     1.799467689236    -0.244723008310     1.007825032230
         H            3.936311612671     1.854467689236     1.416276991690     1.007825032230
         H            2.399311612671     3.720467689236     0.890276991690     1.007825032230
         H            1.615451612671     2.661087689236     2.093566991690     1.007825032230
         H            1.140355612671     2.587747689236     0.354106991690     1.007825032230

  Running in c1 symmetry.

  Rotational constants: A =      0.06623  B =      0.02640  C =      0.02385 [cm^-1]
  Rotational constants: A =   1985.37774  B =    791.32433  C =    715.00487 [MHz]
  Nuclear repulsion =  408.977147500277511

  Charge       = 0
  Multiplicity = 1
  Electrons    = 68
  Nalpha       = 34
  Nbeta        = 34

  ==> Algorithm <==

  SCF Algorithm Type is PK.
  DIIS enabled.
  MOM disabled.
  Fractional occupation disabled.
  Guess Type is SAD.
  Energy threshold   = 1.00e-06
  Density threshold  = 1.00e-10
  Integral threshold = 0.00e+00

  ==> Primary Basis <==

  Basis Set: CC-PVDZ
    Blend: CC-PVDZ
    Number of shells: 96
    Number of basis function: 196
    Number of Cartesian functions: 205
    Spherical Harmonics?: true
    Max angular momentum: 2

  ==> Pre-Iterations <==

   -------------------------------------------------------
    Irrep   Nso     Nmo     Nalpha   Nbeta   Ndocc  Nsocc
   -------------------------------------------------------
     A        196     196       0       0       0       0
   -------------------------------------------------------
    Total     196     196      34      34      34       0
   -------------------------------------------------------

  ==> Integral Setup <==

  Using integral reordering PK algorithm.
  Sizing the integral batches needed.
  Building batch lookup table.
   Calculation information:
      Number of atoms:                  23
      Number of AO shells:              96
      Number of primitives:            268
      Number of atomic orbitals:       205
      Number of basis functions:       196

      Integral cutoff                 1.00e-12
      Number of threads:                 1

	Batch   1 pq = [       0,    9405] index = [             0,44231715] size =     44231715
	Batch   2 pq = [    9405,   13301] index = [      44231715,88464951] size =     44233236
	Batch   3 pq = [   13301,   16290] index = [      88464951,132690195] size =     44225244
	Batch   4 pq = [   16290,   18810] index = [     132690195,176917455] size =     44227260
	Batch   5 pq = [   18810,   19306] index = [     176917455,186370471] size =      9453016
  Task number: 17
  Buffer size: 11059200
  Buffer per thread: 2
  We computed 9790700 shell quartets total.
  Whereas there are 10841496 unique shell quartets.

  ==> DiskJK: Disk-Based J/K Matrices <==

    J tasked:                  Yes
    K tasked:                  Yes
    wK tasked:                  No
    Memory [MiB]:              375
    Schwarz Cutoff:          1E-12

    OpenMP threads:              1

  Minimum eigenvalue in the overlap matrix is 3.2019235021E-04.
  Using Symmetric Orthogonalization.

  SCF Guess: Superposition of Atomic Densities via on-the-fly atomic UHF.

  ==> Iterations <==

                        Total Energy        Delta E     RMS |[F,P]|

   @RHF iter SAD:  -347.82906575330503   -3.47829e+02   0.00000e+00
   @RHF iter   1:  -348.76810554805274   -9.39040e-01   2.89730e-03 DIIS
   @RHF iter   2:  -348.96038024934387   -1.92275e-01   1.20896e-03 DIIS
   @RHF iter   3:  -348.99089604743170   -3.05158e-02   2.58363e-04 DIIS
   @RHF iter   4:  -348.99337928262560   -2.48324e-03   5.07056e-05 DIIS
   @RHF iter   5:  -348.99344830923678   -6.90266e-05   1.66571e-05 DIIS
   @RHF iter   6:  -348.99345518483710   -6.87560e-06   4.60120e-06 DIIS
   @RHF iter   7:  -348.99345578912084   -6.04284e-07   1.31727e-06 DIIS
   @RHF iter   8:  -348.99345584692986   -5.78090e-08   3.33808e-07 DIIS
   @RHF iter   9:  -348.99345585544000   -8.51014e-09   1.48537e-07 DIIS
   @RHF iter  10:  -348.99345585766150   -2.22150e-09   7.37072e-08 DIIS
   @RHF iter  11:  -348.99345585838563   -7.24128e-10   2.51895e-08 DIIS
   @RHF iter  12:  -348.99345585845970   -7.40670e-11   9.89346e-09 DIIS
   @RHF iter  13:  -348.99345585846726   -7.56017e-12   4.08878e-09 DIIS
   @RHF iter  14:  -348.99345585846766   -3.97904e-13   1.11626e-09 DIIS
   @RHF iter  15:  -348.99345585847004   -2.38742e-12   4.53384e-10 DIIS
   @RHF iter  16:  -348.99345585846760    2.44427e-12   1.96284e-10 DIIS
   @RHF iter  17:  -348.99345585846999   -2.38742e-12   7.60765e-11 DIIS
  Energy and wave function converged.

  ==> Post-Iterations <==

    Orbital Energies [Eh]
    ---------------------

    Doubly Occupied:

       1A    -11.242988     2A    -11.237702     3A    -11.236582
       4A    -11.233421     5A    -11.232251     6A    -11.231773
       7A    -11.230433     8A    -11.211422     9A    -11.207871
      10A     -1.150863    11A     -1.044594    12A     -1.013612
      13A     -1.010213    14A     -0.931261    15A     -0.829735
      16A     -0.825122    17A     -0.794780    18A     -0.690592
      19A     -0.632024    20A     -0.630192    21A     -0.593869
      22A     -0.591439    23A     -0.582351    24A     -0.577269
      25A     -0.562689    26A     -0.535978    27A     -0.495428
      28A     -0.487108    29A     -0.486048    30A     -0.481580
      31A     -0.478669    32A     -0.476097    33A     -0.331316
      34A     -0.322358

    Virtual:

      35A      0.132517    36A      0.140357    37A      0.175872
      38A      0.196316    39A      0.204309    40A      0.215901
      41A      0.238948    42A      0.243473    43A      0.255146
      44A      0.262684    45A      0.266449    46A      0.272932
      47A      0.281075    48A      0.289830    49A      0.295003
      50A      0.325469    51A      0.363611    52A      0.374507
      53A      0.402562    54A      0.451752    55A      0.463278
      56A      0.475293    57A      0.492411    58A      0.564607
      59A      0.589746    60A      0.598119    61A      0.603878
      62A      0.611734    63A      0.636519    64A      0.668577
      65A      0.677512    66A      0.684786    67A      0.690726
      68A      0.706853    69A      0.731678    70A      0.738610
      71A      0.741002    72A      0.749836    73A      0.755551
      74A      0.765295    75A      0.783361    76A      0.810997
      77A      0.847733    78A      0.849421    79A      0.858010
      80A      0.863581    81A      0.873211    82A      0.881937
      83A      0.893368    84A      0.899146    85A      0.901308
      86A      0.907990    87A      0.912969    88A      0.924012
      89A      0.926440    90A      0.936355    91A      0.940297
      92A      0.963611    93A      0.980881    94A      0.999580
      95A      1.015754    96A      1.074727    97A      1.117669
      98A      1.129022    99A      1.136066   100A      1.137788
     101A      1.151561   102A      1.163543   103A      1.190230
     104A      1.230858   105A      1.241574   106A      1.245063
     107A      1.253312   108A      1.279454   109A      1.294767
     110A      1.304826   111A      1.319320   112A      1.321196
     113A      1.411559   114A      1.481131   115A      1.491111
     116A      1.506137   117A      1.519096   118A      1.555879
     119A      1.568339   120A      1.601996   121A      1.677587
     122A      1.686388   123A      1.693262   124A      1.701859
     125A      1.731210   126A      1.748060   127A      1.766370
     128A      1.791138   129A      1.808589   130A      1.857484
     131A      1.863851   132A      1.870974   133A      1.889662
     134A      1.896629   135A      1.899173   136A      1.908259
     137A      1.912971   138A      1.920762   139A      1.939736
     140A      1.946459   141A      1.955158   142A      1.960404
     143A      1.963567   144A      1.967742   145A      1.971577
     146A      1.979744   147A      1.989981   148A      2.001366
     149A      2.034690   150A      2.057300   151A      2.073515
     152A      2.102636   153A      2.106426   154A      2.132947
     155A      2.134894   156A      2.152736   157A      2.158908
     158A      2.169601   159A      2.180510   160A      2.246294
     161A      2.271697   162A      2.287257   163A      2.295850
     164A      2.303911   165A      2.318867   166A      2.322680
     167A      2.328664   168A      2.455655   169A      2.465346
     170A      2.468509   171A      2.479425   172A      2.501216
     173A      2.532420   174A      2.568046   175A      2.591695
     176A      2.620204   177A      2.731370   178A      2.748676
     179A      2.764563   180A      2.771618   181A      2.778836
     182A      2.803841   183A      2.815881   184A      2.842947
     185A      2.861031   186A      2.866073   187A      2.866911
     188A      2.958932   189A      2.971378   190A      2.982275
     191A      3.006716   192A      3.022668   193A      3.150123
     194A      3.190720   195A      3.288380   196A      3.955098

    Final Occupation by Irrep:
              A
    DOCC [    34 ]

  @RHF Final Energy:  -348.99345585846999

   => Energetics <=

    Nuclear Repulsion Energy =            408.9771475002775105
    One-Electron Energy =               -1280.7019490644481721
    Two-Electron Energy =                 522.7313457057007327
    Total Energy =                       -348.9934558584699289

Computation Completed

Properties will be evaluated at   0.000000,   0.000000,   0.000000 [a0]

Properties computed using the SCF density matrix

  Nuclear Dipole Moment: [e a0]
     X:     6.0187      Y:     8.1685      Z:     0.2512

  Electronic Dipole Moment: [e a0]
     X:    -6.1455      Y:    -8.1851      Z:    -0.3774

  Dipole Moment: [e a0]
     X:    -0.1268      Y:    -0.0167      Z:    -0.1262     Total:     0.1797

  Dipole Moment: [D]
     X:    -0.3224      Y:    -0.0424      Z:    -0.3207     Total:     0.4568

*** tstop() called on ds3 at Tue Apr 28 14:24:42 2020
Module time:
	user time   =      71.94 seconds =       1.20 minutes
	system time =      30.46 seconds =       0.51 minutes
	total time  =        103 seconds =       1.72 minutes
Total time:
	user time   =      71.94 seconds =       1.20 minutes
	system time =      30.46 seconds =       0.51 minutes
	total time  =        103 seconds =       1.72 minutes
                                     G D M A

                                 by Anthony Stone

                           version 2.2.06, 22 June 2011

               Distributed Multipoles from Gaussian wavefunctions

Starting at 14:24:42 on 28 Apr 2020

Using SCF density matrix from file ./SSI/SSI-038PHE-061VAL-2-dimer.test.17912.fchk

                         Distributed Multipole Analysis

Standard DMA

Positions and radii in angstrom
Multipole moments in atomic units, ea_0^k for rank k

C          x = -2.229688  y =  0.031468  z = -2.160723 angstrom
           Maximum rank =  0   Radius =  0.650 angstrom
                   Q00  =  -0.201537

C          x =  0.771312  y = -1.230532  z = -0.165723 angstrom
           Maximum rank =  0   Radius =  0.650 angstrom
                   Q00  =  -0.077114

C          x = -0.020688  y = -0.789532  z = -1.234723 angstrom
           Maximum rank =  0   Radius =  0.650 angstrom
                   Q00  =  -0.072931

C          x =  0.234312  y = -1.300532  z =  1.116277 angstrom
           Maximum rank =  0   Radius =  0.650 angstrom
                   Q00  =  -0.098529

C          x = -1.357688  y = -0.426532  z = -1.021723 angstrom
           Maximum rank =  0   Radius =  0.650 angstrom
                   Q00  =  -0.097941

C          x = -1.090688  y = -0.937532  z =  1.334277 angstrom
           Maximum rank =  0   Radius =  0.650 angstrom
                   Q00  =  -0.015755

C          x = -1.885688  y = -0.508532  z =  0.269277 angstrom
           Maximum rank =  0   Radius =  0.650 angstrom
                   Q00  =  -0.049706

H          x =  1.797312  y = -1.516532  z = -0.340723 angstrom
           Maximum rank =  0   Radius =  0.325 angstrom
                   Q00  =   0.067565

H          x =  0.405312  y = -0.721532  z = -2.225723 angstrom
           Maximum rank =  0   Radius =  0.325 angstrom
                   Q00  =   0.058536

H          x =  0.845312  y = -1.643532  z =  1.941277 angstrom
           Maximum rank =  0   Radius =  0.325 angstrom
                   Q00  =   0.061803

H          x = -1.513688  y = -0.999532  z =  2.327277 angstrom
           Maximum rank =  0   Radius =  0.325 angstrom
                   Q00  =   0.065797

H          x = -1.652688  y =  0.721468  z = -2.778723 angstrom
           Maximum rank =  0   Radius =  0.325 angstrom
                   Q00  =   0.098559

H          x = -3.085688  y =  0.581468  z = -1.765723 angstrom
           Maximum rank =  0   Radius =  0.325 angstrom
                   Q00  =   0.097744

H          x = -2.916688  y = -0.238532  z =  0.451277 angstrom
           Maximum rank =  0   Radius =  0.325 angstrom
                   Q00  =   0.058969

H          x = -2.591127  y = -0.797672  z = -2.786733 angstrom
           Maximum rank =  0   Radius =  0.325 angstrom
                   Q00  =   0.105444

C          x =  3.064312  y =  1.701468  z =  0.784277 angstrom
           Maximum rank =  0   Radius =  0.650 angstrom
                   Q00  =  -0.237695

C          x =  1.975312  y =  2.728468  z =  1.056277 angstrom
           Maximum rank =  0   Radius =  0.650 angstrom
                   Q00  =  -0.227818

H          x =  2.657312  y =  0.704468  z =  0.936277 angstrom
           Maximum rank =  0   Radius =  0.325 angstrom
                   Q00  =   0.083195

H          x =  3.383312  y =  1.799468  z = -0.244723 angstrom
           Maximum rank =  0   Radius =  0.325 angstrom
                   Q00  =   0.074098

H          x =  3.936312  y =  1.854468  z =  1.416277 angstrom
           Maximum rank =  0   Radius =  0.325 angstrom
                   Q00  =   0.074668

H          x =  2.399312  y =  3.720468  z =  0.890277 angstrom
           Maximum rank =  0   Radius =  0.325 angstrom
                   Q00  =   0.070317

H          x =  1.615452  y =  2.661088  z =  2.093567 angstrom
           Maximum rank =  0   Radius =  0.325 angstrom
                   Q00  =   0.077736

H          x =  1.140356  y =  2.587748  z =  0.354107 angstrom
           Maximum rank =  0   Radius =  0.325 angstrom
                   Q00  =   0.084596

Total multipoles referred to origin at
           x =   0.000000,  y =    0.000000,  z =    0.000000 angstrom
                   Q00  =  -0.000000

Finished at 14:24:42 on 28 Apr 2020

  DMA results are available in the Python driver through the
	  variable('DMA DISTRIBUTED MULTIPOLES')
  and
	  variable('DMA TOTAL MULTIPOLES')
  commands.

    Psi4 stopped on: Tuesday, 28 April 2020 02:24PM
    Psi4 wall time for execution: 0:01:43.40

*** Psi4 exiting successfully. Buy a developer a beer!
