                               Psi4 1.3.2 release

  ==> Input File <==

--------------------------------------------------------------------------
import numpy as np
set {scf_type pk
basis cc-pvdz
d_convergence 10
gdma_switch   0
gdma_limit    0
gdma_origin   [ 0.0,  0.0,  0.0 ]
}
molecule test {
    units Angstrom
    0 1
    --
    0 1
    C                2.936503728577060     1.529034980762770     1.583445831977598
    C                0.759503728577060    -1.093965019237231    -0.064554168022401
    C                1.161503728577060     0.268034980762770     0.098445831977599
    C                2.246503728577060     0.293034980762770     1.066445831977599
    C                2.455503728577060    -1.005965019237230     1.441445831977599
    C               -0.907496271422940    -0.482965019237230    -1.679554168022401
    C               -0.266496271422940    -1.479965019237230    -0.930554168022401
    C               -0.535496271422940     0.871034980762770    -1.548554168022401
    C                0.487503728577060     1.255034980762770    -0.658554168022402
    N                1.560503728577060    -1.849965019237231     0.766445831977599
    H               -1.697496271422940    -0.754965019237230    -2.365554168022402
    H               -0.530496271422940    -2.529965019237230    -1.000554168022401
    H               -1.034496271422940     1.633034980762770    -2.131554168022401
    H                0.754503728577060     2.301034980762770    -0.581554168022401
    H                1.495503728577060    -2.858965019237230     0.858445831977598
    H                3.227503728577060    -1.233965019237230     2.173445831977598
    H                2.857503728577060     2.292034980762769     0.800445831977599
    H                3.987503728577060     1.286034980762770     1.728445831977598
    H                2.548313728577060     1.891434980762770     2.546755831977598
    C               -3.710496271422940     0.884034980762770    -0.357554168022401
    C               -5.180496271422940     0.582034980762770     0.063445831977599
    H               -3.060496271422940     0.871034980762770     0.518445831977599
    H               -3.365496271422940     0.129034980762770    -1.062554168022401
    H               -3.650496271422940     1.865034980762770    -0.830554168022401
    H               -5.240496271422940    -0.420965019237230     0.492445831977599
    H               -5.564756271422939     1.325634980762770     0.777165831977598
    H               -5.818846271422940     0.626834980762770    -0.831264168022401

}
e, wfn = energy('scf', return_wfn=True)
gdma(wfn)
dmavals = variable('DMA DISTRIBUTED MULTIPOLES')
charges = np.array(dmavals)
print(charges)
np.save('SSI-138TRP-243LEU-1-dimer.npy', np.array(charges))--------------------------------------------------------------------------

*** tstart() called on ds3
*** at Mon Apr 27 22:08:31 2020

   => Loading Basis Set <=

    Name: CC-PVDZ
    Role: ORBITAL
    Keyword: BASIS
    atoms 1-9, 20-21   entry C          line   138 file /theoryfs2/ds/metcalf/miniconda2/envs/tf2gpu/share/psi4/basis/cc-pvdz.gbs
    atoms 10           entry N          line   168 file /theoryfs2/ds/metcalf/miniconda2/envs/tf2gpu/share/psi4/basis/cc-pvdz.gbs
    atoms 11-19, 22-27 entry H          line    22 file /theoryfs2/ds/metcalf/miniconda2/envs/tf2gpu/share/psi4/basis/cc-pvdz.gbs

         ---------------------------------------------------------
                                   SCF
               by Justin Turney, Rob Parrish, Andy Simmonett
                          and Daniel G. A. Smith
                              RHF Reference
                        1 Threads,    500 MiB Core
         ---------------------------------------------------------

  ==> Geometry <==

    Molecular point group: c1
    Full point group: C1

    Geometry (in Angstrom), charge = 0, multiplicity = 1:

       Center              X                  Y                   Z               Mass
    ------------   -----------------  -----------------  -----------------  -----------------
         C            2.936503728577     1.529034980763     1.583445831978    12.000000000000
         C            0.759503728577    -1.093965019237    -0.064554168022    12.000000000000
         C            1.161503728577     0.268034980763     0.098445831978    12.000000000000
         C            2.246503728577     0.293034980763     1.066445831978    12.000000000000
         C            2.455503728577    -1.005965019237     1.441445831978    12.000000000000
         C           -0.907496271423    -0.482965019237    -1.679554168022    12.000000000000
         C           -0.266496271423    -1.479965019237    -0.930554168022    12.000000000000
         C           -0.535496271423     0.871034980763    -1.548554168022    12.000000000000
         C            0.487503728577     1.255034980763    -0.658554168022    12.000000000000
         N            1.560503728577    -1.849965019237     0.766445831978    14.003074004430
         H           -1.697496271423    -0.754965019237    -2.365554168022     1.007825032230
         H           -0.530496271423    -2.529965019237    -1.000554168022     1.007825032230
         H           -1.034496271423     1.633034980763    -2.131554168022     1.007825032230
         H            0.754503728577     2.301034980763    -0.581554168022     1.007825032230
         H            1.495503728577    -2.858965019237     0.858445831978     1.007825032230
         H            3.227503728577    -1.233965019237     2.173445831978     1.007825032230
         H            2.857503728577     2.292034980763     0.800445831978     1.007825032230
         H            3.987503728577     1.286034980763     1.728445831978     1.007825032230
         H            2.548313728577     1.891434980763     2.546755831978     1.007825032230
         C           -3.710496271423     0.884034980763    -0.357554168022    12.000000000000
         C           -5.180496271423     0.582034980763     0.063445831978    12.000000000000
         H           -3.060496271423     0.871034980763     0.518445831978     1.007825032230
         H           -3.365496271423     0.129034980763    -1.062554168022     1.007825032230
         H           -3.650496271423     1.865034980763    -0.830554168022     1.007825032230
         H           -5.240496271423    -0.420965019237     0.492445831978     1.007825032230
         H           -5.564756271423     1.325634980763     0.777165831978     1.007825032230
         H           -5.818846271423     0.626834980763    -0.831264168022     1.007825032230

  Running in c1 symmetry.

  Rotational constants: A =      0.04960  B =      0.01445  C =      0.01348 [cm^-1]
  Rotational constants: A =   1486.90608  B =    433.32603  C =    404.16571 [MHz]
  Nuclear repulsion =  645.030550157109133

  Charge       = 0
  Multiplicity = 1
  Electrons    = 88
  Nalpha       = 44
  Nbeta        = 44

  ==> Algorithm <==

  SCF Algorithm Type is PK.
  DIIS enabled.
  MOM disabled.
  Fractional occupation disabled.
  Guess Type is SAD.
  Energy threshold   = 1.00e-06
  Density threshold  = 1.00e-10
  Integral threshold = 0.00e+00

  ==> Primary Basis <==

  Basis Set: CC-PVDZ
    Blend: CC-PVDZ
    Number of shells: 117
    Number of basis function: 243
    Number of Cartesian functions: 255
    Spherical Harmonics?: true
    Max angular momentum: 2

  ==> Pre-Iterations <==

   -------------------------------------------------------
    Irrep   Nso     Nmo     Nalpha   Nbeta   Ndocc  Nsocc
   -------------------------------------------------------
     A        243     243       0       0       0       0
   -------------------------------------------------------
    Total     243     243      44      44      44       0
   -------------------------------------------------------

  ==> Integral Setup <==

  Using integral reordering PK algorithm.
  Sizing the integral batches needed.
  Building batch lookup table.
   Calculation information:
      Number of atoms:                  27
      Number of AO shells:             117
      Number of primitives:            339
      Number of atomic orbitals:       255
      Number of basis functions:       243

      Integral cutoff                 1.00e-12
      Number of threads:                 1

	Batch   1 pq = [       0,    9405] index = [             0,44231715] size =     44231715
	Batch   2 pq = [    9405,   13301] index = [      44231715,88464951] size =     44233236
	Batch   3 pq = [   13301,   16290] index = [      88464951,132690195] size =     44225244
	Batch   4 pq = [   16290,   18810] index = [     132690195,176917455] size =     44227260
	Batch   5 pq = [   18810,   21030] index = [     176917455,221140965] size =     44223510
	Batch   6 pq = [   21030,   23037] index = [     221140965,265363203] size =     44222238
	Batch   7 pq = [   23037,   24883] index = [     265363203,309594286] size =     44231083
	Batch   8 pq = [   24883,   26601] index = [     309594286,353819901] size =     44225615
	Batch   9 pq = [   26601,   28214] index = [     353819901,398029005] size =     44209104
	Batch  10 pq = [   28214,   29646] index = [     398029005,439457481] size =     41428476
  Task number: 40
  Buffer size: 11059200
  Buffer per thread: 2
  We computed 20475496 shell quartets total.
  Whereas there are 23829156 unique shell quartets.

  ==> DiskJK: Disk-Based J/K Matrices <==

    J tasked:                  Yes
    K tasked:                  Yes
    wK tasked:                  No
    Memory [MiB]:              375
    Schwarz Cutoff:          1E-12

    OpenMP threads:              1

  Minimum eigenvalue in the overlap matrix is 2.6437406661E-04.
  Using Symmetric Orthogonalization.

  SCF Guess: Superposition of Atomic Densities via on-the-fly atomic UHF.

  ==> Iterations <==

                        Total Energy        Delta E     RMS |[F,P]|

   @RHF iter SAD:  -478.73257008693855   -4.78733e+02   0.00000e+00
   @RHF iter   1:  -479.48780035657097   -7.55230e-01   2.54713e-03 DIIS
   @RHF iter   2:  -479.71386098987006   -2.26061e-01   1.11853e-03 DIIS
   @RHF iter   3:  -479.75322147892848   -3.93605e-02   3.02953e-04 DIIS
   @RHF iter   4:  -479.75703754842164   -3.81607e-03   1.39702e-04 DIIS
   @RHF iter   5:  -479.75769490634599   -6.57358e-04   2.01197e-05 DIIS
   @RHF iter   6:  -479.75772649907947   -3.15927e-05   9.54221e-06 DIIS
   @RHF iter   7:  -479.75773335468602   -6.85561e-06   4.19928e-06 DIIS
   @RHF iter   8:  -479.75773553811939   -2.18343e-06   1.67316e-06 DIIS
   @RHF iter   9:  -479.75773598340976   -4.45290e-07   7.48714e-07 DIIS
   @RHF iter  10:  -479.75773607213830   -8.87285e-08   3.54928e-07 DIIS
   @RHF iter  11:  -479.75773609328439   -2.11461e-08   1.25859e-07 DIIS
   @RHF iter  12:  -479.75773609591101   -2.62662e-09   4.47660e-08 DIIS
   @RHF iter  13:  -479.75773609611076   -1.99748e-10   1.46326e-08 DIIS
   @RHF iter  14:  -479.75773609612673   -1.59730e-11   6.20555e-09 DIIS
   @RHF iter  15:  -479.75773609613469   -7.95808e-12   2.80253e-09 DIIS
   @RHF iter  16:  -479.75773609613606   -1.36424e-12   1.17377e-09 DIIS
   @RHF iter  17:  -479.75773609613674   -6.82121e-13   5.16843e-10 DIIS
   @RHF iter  18:  -479.75773609613486    1.87583e-12   1.88408e-10 DIIS
   @RHF iter  19:  -479.75773609613668   -1.81899e-12   6.82645e-11 DIIS
  Energy and wave function converged.

  ==> Post-Iterations <==

    Orbital Energies [Eh]
    ---------------------

    Doubly Occupied:

       1A    -15.603115     2A    -11.268161     3A    -11.267497
       4A    -11.235274     5A    -11.234491     6A    -11.233212
       7A    -11.229906     8A    -11.225351     9A    -11.224154
      10A    -11.222591    11A    -11.213693    12A    -11.207490
      13A     -1.282671    14A     -1.119794    15A     -1.070044
      16A     -1.001399    17A     -0.991944    18A     -0.983256
      19A     -0.931092    20A     -0.836314    21A     -0.828604
      22A     -0.801847    23A     -0.747565    24A     -0.715347
      25A     -0.663272    26A     -0.638240    27A     -0.600453
      28A     -0.588626    29A     -0.587622    30A     -0.585678
      31A     -0.582476    32A     -0.566651    33A     -0.550779
      34A     -0.535916    35A     -0.526693    36A     -0.494473
      37A     -0.488851    38A     -0.481182    39A     -0.475835
      40A     -0.469252    41A     -0.452215    42A     -0.370451
      43A     -0.292454    44A     -0.275362

    Virtual:

      45A      0.121470    46A      0.165073    47A      0.180827
      48A      0.184603    49A      0.191963    50A      0.209928
      51A      0.214987    52A      0.227124    53A      0.229093
      54A      0.250249    55A      0.260661    56A      0.263484
      57A      0.275648    58A      0.280277    59A      0.292023
      60A      0.294981    61A      0.316436    62A      0.342200
      63A      0.365514    64A      0.378363    65A      0.394998
      66A      0.402250    67A      0.424401    68A      0.434138
      69A      0.465668    70A      0.473699    71A      0.505347
      72A      0.508669    73A      0.588669    74A      0.596087
      75A      0.599971    76A      0.603430    77A      0.610078
      78A      0.636367    79A      0.641798    80A      0.659671
      81A      0.668957    82A      0.686833    83A      0.704509
      84A      0.705127    85A      0.718271    86A      0.724334
      87A      0.735931    88A      0.740277    89A      0.752490
      90A      0.757569    91A      0.761783    92A      0.773810
      93A      0.784537    94A      0.792504    95A      0.814078
      96A      0.848224    97A      0.861638    98A      0.868441
      99A      0.874456   100A      0.884017   101A      0.891021
     102A      0.895070   103A      0.901905   104A      0.904337
     105A      0.908388   106A      0.923318   107A      0.930378
     108A      0.936882   109A      0.945866   110A      0.951058
     111A      0.954501   112A      0.975182   113A      0.984762
     114A      0.985128   115A      1.001045   116A      1.012484
     117A      1.057902   118A      1.080329   119A      1.090093
     120A      1.118827   121A      1.125796   122A      1.127956
     123A      1.136844   124A      1.152404   125A      1.165185
     126A      1.185349   127A      1.204551   128A      1.219430
     129A      1.233033   130A      1.236827   131A      1.240210
     132A      1.269139   133A      1.278692   134A      1.282196
     135A      1.304385   136A      1.324674   137A      1.340755
     138A      1.353080   139A      1.362778   140A      1.420972
     141A      1.443786   142A      1.479631   143A      1.482931
     144A      1.508553   145A      1.534134   146A      1.563156
     147A      1.590005   148A      1.597237   149A      1.610964
     150A      1.637072   151A      1.646452   152A      1.685424
     153A      1.689606   154A      1.697551   155A      1.702173
     156A      1.737614   157A      1.759749   158A      1.768045
     159A      1.778571   160A      1.811039   161A      1.825706
     162A      1.832011   163A      1.857608   164A      1.874858
     165A      1.881336   166A      1.886404   167A      1.889474
     168A      1.896906   169A      1.911086   170A      1.914776
     171A      1.923342   172A      1.929264   173A      1.933461
     174A      1.947848   175A      1.955141   176A      1.961340
     177A      1.969472   178A      1.985514   179A      1.990181
     180A      2.000784   181A      2.014962   182A      2.028550
     183A      2.047404   184A      2.061362   185A      2.080150
     186A      2.083793   187A      2.088295   188A      2.104741
     189A      2.107464   190A      2.109043   191A      2.123507
     192A      2.139188   193A      2.155304   194A      2.161928
     195A      2.177280   196A      2.222656   197A      2.253303
     198A      2.272448   199A      2.294788   200A      2.300872
     201A      2.311276   202A      2.327963   203A      2.333450
     204A      2.372601   205A      2.386309   206A      2.405752
     207A      2.438926   208A      2.449269   209A      2.460503
     210A      2.477876   211A      2.518982   212A      2.557475
     213A      2.571826   214A      2.574312   215A      2.581467
     216A      2.611057   217A      2.642859   218A      2.665615
     219A      2.708954   220A      2.760143   221A      2.760933
     222A      2.771406   223A      2.771664   224A      2.786181
     225A      2.803276   226A      2.830913   227A      2.837737
     228A      2.848245   229A      2.868842   230A      2.872257
     231A      2.898349   232A      2.947182   233A      2.959748
     234A      2.967759   235A      2.986184   236A      3.014084
     237A      3.056181   238A      3.086955   239A      3.181671
     240A      3.259376   241A      3.345348   242A      3.714591
     243A      3.906329

    Final Occupation by Irrep:
              A
    DOCC [    44 ]

  @RHF Final Energy:  -479.75773609613668

   => Energetics <=

    Nuclear Repulsion Energy =            645.0305501571091327
    One-Electron Energy =               -1928.1739834813831749
    Two-Electron Energy =                 803.3856972281374738
    Total Energy =                       -479.7577360961366821

Computation Completed

Properties will be evaluated at   0.000000,   0.000000,   0.000000 [a0]

Properties computed using the SCF density matrix

  Nuclear Dipole Moment: [e a0]
     X:   -14.1531      Y:     6.0261      Z:     1.0215

  Electronic Dipole Moment: [e a0]
     X:    14.5473      Y:    -6.6149      Z:    -0.6437

  Dipole Moment: [e a0]
     X:     0.3942      Y:    -0.5888      Z:     0.3778     Total:     0.8030

  Dipole Moment: [D]
     X:     1.0021      Y:    -1.4965      Z:     0.9602     Total:     2.0410

*** tstop() called on ds3 at Mon Apr 27 22:12:38 2020
Module time:
	user time   =     164.16 seconds =       2.74 minutes
	system time =      72.21 seconds =       1.20 minutes
	total time  =        247 seconds =       4.12 minutes
Total time:
	user time   =     164.16 seconds =       2.74 minutes
	system time =      72.21 seconds =       1.20 minutes
	total time  =        247 seconds =       4.12 minutes
                                     G D M A

                                 by Anthony Stone

                           version 2.2.06, 22 June 2011

               Distributed Multipoles from Gaussian wavefunctions

Starting at 22:12:38 on 27 Apr 2020

Using SCF density matrix from file ./SSI/SSI-138TRP-243LEU-1-dimer.test.333.fchk

                         Distributed Multipole Analysis

Standard DMA

Positions and radii in angstrom
Multipole moments in atomic units, ea_0^k for rank k

C          x =  2.936504  y =  1.529035  z =  1.583446 angstrom
           Maximum rank =  0   Radius =  0.650 angstrom
                   Q00  =  -0.209019

C          x =  0.759504  y = -1.093965  z = -0.064554 angstrom
           Maximum rank =  0   Radius =  0.650 angstrom
                   Q00  =   0.288685

C          x =  1.161504  y =  0.268035  z =  0.098446 angstrom
           Maximum rank =  0   Radius =  0.650 angstrom
                   Q00  =  -0.055655

C          x =  2.246504  y =  0.293035  z =  1.066446 angstrom
           Maximum rank =  0   Radius =  0.650 angstrom
                   Q00  =  -0.121829

C          x =  2.455504  y = -1.005965  z =  1.441446 angstrom
           Maximum rank =  0   Radius =  0.650 angstrom
                   Q00  =   0.075583

C          x = -0.907496  y = -0.482965  z = -1.679554 angstrom
           Maximum rank =  0   Radius =  0.650 angstrom
                   Q00  =  -0.074622

C          x = -0.266496  y = -1.479965  z = -0.930554 angstrom
           Maximum rank =  0   Radius =  0.650 angstrom
                   Q00  =  -0.126913

C          x = -0.535496  y =  0.871035  z = -1.548554 angstrom
           Maximum rank =  0   Radius =  0.650 angstrom
                   Q00  =  -0.082928

C          x =  0.487504  y =  1.255035  z = -0.658554 angstrom
           Maximum rank =  0   Radius =  0.650 angstrom
                   Q00  =  -0.096657

N          x =  1.560504  y = -1.849965  z =  0.766446 angstrom
           Maximum rank =  0   Radius =  0.650 angstrom
                   Q00  =  -0.511943

H          x = -1.697496  y = -0.754965  z = -2.365554 angstrom
           Maximum rank =  0   Radius =  0.325 angstrom
                   Q00  =   0.068503

H          x = -0.530496  y = -2.529965  z = -1.000554 angstrom
           Maximum rank =  0   Radius =  0.325 angstrom
                   Q00  =   0.074914

H          x = -1.034496  y =  1.633035  z = -2.131554 angstrom
           Maximum rank =  0   Radius =  0.325 angstrom
                   Q00  =   0.064453

H          x =  0.754504  y =  2.301035  z = -0.581554 angstrom
           Maximum rank =  0   Radius =  0.325 angstrom
                   Q00  =   0.070916

H          x =  1.495504  y = -2.858965  z =  0.858446 angstrom
           Maximum rank =  0   Radius =  0.325 angstrom
                   Q00  =   0.219113

H          x =  3.227504  y = -1.233965  z =  2.173446 angstrom
           Maximum rank =  0   Radius =  0.325 angstrom
                   Q00  =   0.104951

H          x =  2.857504  y =  2.292035  z =  0.800446 angstrom
           Maximum rank =  0   Radius =  0.325 angstrom
                   Q00  =   0.105612

H          x =  3.987504  y =  1.286035  z =  1.728446 angstrom
           Maximum rank =  0   Radius =  0.325 angstrom
                   Q00  =   0.102707

H          x =  2.548314  y =  1.891435  z =  2.546756 angstrom
           Maximum rank =  0   Radius =  0.325 angstrom
                   Q00  =   0.103455

C          x = -3.710496  y =  0.884035  z = -0.357554 angstrom
           Maximum rank =  0   Radius =  0.650 angstrom
                   Q00  =  -0.228974

C          x = -5.180496  y =  0.582035  z =  0.063446 angstrom
           Maximum rank =  0   Radius =  0.650 angstrom
                   Q00  =  -0.249017

H          x = -3.060496  y =  0.871035  z =  0.518446 angstrom
           Maximum rank =  0   Radius =  0.325 angstrom
                   Q00  =   0.087820

H          x = -3.365496  y =  0.129035  z = -1.062554 angstrom
           Maximum rank =  0   Radius =  0.325 angstrom
                   Q00  =   0.081139

H          x = -3.650496  y =  1.865035  z = -0.830554 angstrom
           Maximum rank =  0   Radius =  0.325 angstrom
                   Q00  =   0.074466

H          x = -5.240496  y = -0.420965  z =  0.492446 angstrom
           Maximum rank =  0   Radius =  0.325 angstrom
                   Q00  =   0.080858

H          x = -5.564756  y =  1.325635  z =  0.777166 angstrom
           Maximum rank =  0   Radius =  0.325 angstrom
                   Q00  =   0.080438

H          x = -5.818846  y =  0.626835  z = -0.831264 angstrom
           Maximum rank =  0   Radius =  0.325 angstrom
                   Q00  =   0.073946

Total multipoles referred to origin at
           x =   0.000000,  y =    0.000000,  z =    0.000000 angstrom
                   Q00  =  -0.000000

Finished at 22:12:38 on 27 Apr 2020

  DMA results are available in the Python driver through the
	  variable('DMA DISTRIBUTED MULTIPOLES')
  and
	  variable('DMA TOTAL MULTIPOLES')
  commands.

    Psi4 stopped on: Monday, 27 April 2020 10:12PM
    Psi4 wall time for execution: 0:04:07.54

*** Psi4 exiting successfully. Buy a developer a beer!
