                               Psi4 1.3.2 release

  ==> Input File <==

--------------------------------------------------------------------------
import numpy as np
set {scf_type pk
basis cc-pvdz
d_convergence 10
gdma_switch   0
gdma_limit    0
gdma_origin   [ 0.0,  0.0,  0.0 ]
}
molecule test {
    units Angstrom
    1 1
    --
    1 1
    C               -0.335654779203679     1.520101950841448    -1.850697630077137
    C                0.909345220796321     0.883101950841448     0.186302369922863
    N                0.441345220796321     0.580101950841448    -1.032697630077137
    N                0.661345220796321     2.106101950841448     0.697302369922863
    N                1.622345220796321    -0.001898049158552     0.904302369922863
    H                0.614345220796321    -0.342898049158552    -1.414697630077137
    H                0.136345220796321     2.782101950841449     0.145302369922863
    H                1.000345220796321     2.378101950841448     1.597302369922863
    H                1.823345220796321    -0.926898049158552     0.529302369922863
    H                1.972345220796321     0.236101950841448     1.818302369922863
    H                0.161345220796321     2.490101950841449    -1.817697630077137
    H               -1.331654779203679     1.606101950841448    -1.417697630077137
    H               -0.456914779203679     1.243101950841448    -2.908327630077137
    C               -1.380654779203679    -1.836898049158552     0.255302369922863
    C               -1.876654779203679    -3.211898049158552     0.779302369922863
    H               -0.317654779203679    -1.731898049158552     0.451302369922863
    H               -1.553654779203679    -1.763898049158552    -0.820697630077137
    H               -1.918654779203679    -1.032898049158552     0.756302369922863
    H               -1.344654779203679    -4.006898049158552     0.256302369922863
    H               -2.943654779203678    -3.310898049158551     0.566302369922863
    H               -1.750434779203679    -3.415398049158552     1.852912369922863

}
e, wfn = energy('scf', return_wfn=True)
gdma(wfn)
dmavals = variable('DMA DISTRIBUTED MULTIPOLES')
charges = np.array(dmavals)
print(charges)
np.save('SSI-130ARG-244ILE-1-dimer.npy', np.array(charges))--------------------------------------------------------------------------

*** tstart() called on ds3
*** at Mon Apr 27 10:22:53 2020

   => Loading Basis Set <=

    Name: CC-PVDZ
    Role: ORBITAL
    Keyword: BASIS
    atoms 1-2, 14-15  entry C          line   138 file /theoryfs2/ds/metcalf/miniconda2/envs/tf2gpu/share/psi4/basis/cc-pvdz.gbs
    atoms 3-5         entry N          line   168 file /theoryfs2/ds/metcalf/miniconda2/envs/tf2gpu/share/psi4/basis/cc-pvdz.gbs
    atoms 6-13, 16-21 entry H          line    22 file /theoryfs2/ds/metcalf/miniconda2/envs/tf2gpu/share/psi4/basis/cc-pvdz.gbs

         ---------------------------------------------------------
                                   SCF
               by Justin Turney, Rob Parrish, Andy Simmonett
                          and Daniel G. A. Smith
                              RHF Reference
                        1 Threads,    500 MiB Core
         ---------------------------------------------------------

  ==> Geometry <==

    Molecular point group: c1
    Full point group: C1

    Geometry (in Angstrom), charge = 1, multiplicity = 1:

       Center              X                  Y                   Z               Mass
    ------------   -----------------  -----------------  -----------------  -----------------
         C           -0.335654779204     1.520101950841    -1.850697630077    12.000000000000
         C            0.909345220796     0.883101950841     0.186302369923    12.000000000000
         N            0.441345220796     0.580101950841    -1.032697630077    14.003074004430
         N            0.661345220796     2.106101950841     0.697302369923    14.003074004430
         N            1.622345220796    -0.001898049159     0.904302369923    14.003074004430
         H            0.614345220796    -0.342898049159    -1.414697630077     1.007825032230
         H            0.136345220796     2.782101950841     0.145302369923     1.007825032230
         H            1.000345220796     2.378101950841     1.597302369923     1.007825032230
         H            1.823345220796    -0.926898049159     0.529302369923     1.007825032230
         H            1.972345220796     0.236101950841     1.818302369923     1.007825032230
         H            0.161345220796     2.490101950841    -1.817697630077     1.007825032230
         H           -1.331654779204     1.606101950841    -1.417697630077     1.007825032230
         H           -0.456914779204     1.243101950841    -2.908327630077     1.007825032230
         C           -1.380654779204    -1.836898049159     0.255302369923    12.000000000000
         C           -1.876654779204    -3.211898049159     0.779302369923    12.000000000000
         H           -0.317654779204    -1.731898049159     0.451302369923     1.007825032230
         H           -1.553654779204    -1.763898049159    -0.820697630077     1.007825032230
         H           -1.918654779204    -1.032898049159     0.756302369923     1.007825032230
         H           -1.344654779204    -4.006898049159     0.256302369923     1.007825032230
         H           -2.943654779204    -3.310898049159     0.566302369923     1.007825032230
         H           -1.750434779204    -3.415398049159     1.852912369923     1.007825032230

  Running in c1 symmetry.

  Rotational constants: A =      0.10180  B =      0.03569  C =      0.02975 [cm^-1]
  Rotational constants: A =   3051.84471  B =   1069.91709  C =    891.97054 [MHz]
  Nuclear repulsion =  323.265219099485819

  Charge       = 1
  Multiplicity = 1
  Electrons    = 58
  Nalpha       = 29
  Nbeta        = 29

  ==> Algorithm <==

  SCF Algorithm Type is PK.
  DIIS enabled.
  MOM disabled.
  Fractional occupation disabled.
  Guess Type is SAD.
  Energy threshold   = 1.00e-06
  Density threshold  = 1.00e-10
  Integral threshold = 0.00e+00

  ==> Primary Basis <==

  Basis Set: CC-PVDZ
    Blend: CC-PVDZ
    Number of shells: 84
    Number of basis function: 168
    Number of Cartesian functions: 175
    Spherical Harmonics?: true
    Max angular momentum: 2

  ==> Pre-Iterations <==

   -------------------------------------------------------
    Irrep   Nso     Nmo     Nalpha   Nbeta   Ndocc  Nsocc
   -------------------------------------------------------
     A        168     168       0       0       0       0
   -------------------------------------------------------
    Total     168     168      29      29      29       0
   -------------------------------------------------------

  ==> Integral Setup <==

  Using integral reordering PK algorithm.
  Sizing the integral batches needed.
  Building batch lookup table.
   Calculation information:
      Number of atoms:                  21
      Number of AO shells:              84
      Number of primitives:            224
      Number of atomic orbitals:       175
      Number of basis functions:       168

      Integral cutoff                 1.00e-12
      Number of threads:                 1

	Batch   1 pq = [       0,    9405] index = [             0,44231715] size =     44231715
	Batch   2 pq = [    9405,   13301] index = [      44231715,88464951] size =     44233236
	Batch   3 pq = [   13301,   14196] index = [      88464951,100770306] size =     12305355
  Task number: 10
  Buffer size: 11059200
  Buffer per thread: 2
  We computed 5789922 shell quartets total.
  Whereas there are 6374235 unique shell quartets.

  ==> DiskJK: Disk-Based J/K Matrices <==

    J tasked:                  Yes
    K tasked:                  Yes
    wK tasked:                  No
    Memory [MiB]:              375
    Schwarz Cutoff:          1E-12

    OpenMP threads:              1

  Minimum eigenvalue in the overlap matrix is 3.7576650875E-03.
  Using Symmetric Orthogonalization.

  SCF Guess: Superposition of Atomic Densities via on-the-fly atomic UHF.

  ==> Iterations <==

                        Total Energy        Delta E     RMS |[F,P]|

   @RHF iter SAD:  -321.95373735395833   -3.21954e+02   0.00000e+00
   @RHF iter   1:  -322.61180378290385   -6.58066e-01   3.40596e-03 DIIS
   @RHF iter   2:  -322.78194926062883   -1.70145e-01   1.36150e-03 DIIS
   @RHF iter   3:  -322.80778088390662   -2.58316e-02   3.30663e-04 DIIS
   @RHF iter   4:  -322.81027669395831   -2.49581e-03   5.91065e-05 DIIS
   @RHF iter   5:  -322.81035631013702   -7.96162e-05   2.28159e-05 DIIS
   @RHF iter   6:  -322.81036784976106   -1.15396e-05   4.78136e-06 DIIS
   @RHF iter   7:  -322.81036864265207   -7.92891e-07   1.69843e-06 DIIS
   @RHF iter   8:  -322.81036870816479   -6.55127e-08   5.14752e-07 DIIS
   @RHF iter   9:  -322.81036871476124   -6.59645e-09   1.15688e-07 DIIS
   @RHF iter  10:  -322.81036871513203   -3.70790e-10   3.58248e-08 DIIS
   @RHF iter  11:  -322.81036871516704   -3.50155e-11   9.79517e-09 DIIS
   @RHF iter  12:  -322.81036871517091   -3.86535e-12   3.94296e-09 DIIS
   @RHF iter  13:  -322.81036871517193   -1.02318e-12   1.37383e-09 DIIS
   @RHF iter  14:  -322.81036871517097    9.66338e-13   3.57400e-10 DIIS
   @RHF iter  15:  -322.81036871516994    1.02318e-12   7.94768e-11 DIIS
  Energy and wave function converged.

  ==> Post-Iterations <==

    Orbital Energies [Eh]
    ---------------------

    Doubly Occupied:

       1A    -15.790495     2A    -15.790445     3A    -15.789317
       4A    -11.599376     5A    -11.442913     6A    -11.342313
       7A    -11.321742     8A     -1.531505     9A     -1.397241
      10A     -1.383241    11A     -1.140104    12A     -1.125212
      13A     -1.037497    14A     -0.972296    15A     -0.955214
      16A     -0.935587    17A     -0.857835    18A     -0.852518
      19A     -0.820348    20A     -0.796363    21A     -0.741473
      22A     -0.720485    23A     -0.710018    24A     -0.704028
      25A     -0.620374    26A     -0.614553    27A     -0.598020
      28A     -0.590855    29A     -0.583354

    Virtual:

      30A     -0.007459    31A      0.012913    32A      0.027337
      33A      0.033592    34A      0.057242    35A      0.076961
      36A      0.090580    37A      0.108022    38A      0.110297
      39A      0.132977    40A      0.153768    41A      0.159635
      42A      0.178268    43A      0.182863    44A      0.188156
      45A      0.201251    46A      0.258873    47A      0.285847
      48A      0.317139    49A      0.332501    50A      0.438476
      51A      0.451363    52A      0.471306    53A      0.480511
      54A      0.489908    55A      0.516521    56A      0.522362
      57A      0.529800    58A      0.541963    59A      0.559356
      60A      0.576536    61A      0.591916    62A      0.651174
      63A      0.676124    64A      0.693143    65A      0.709938
      66A      0.717754    67A      0.733978    68A      0.755526
      69A      0.765106    70A      0.783092    71A      0.787339
      72A      0.792730    73A      0.797238    74A      0.809049
      75A      0.813781    76A      0.841242    77A      0.846751
      78A      0.866324    79A      0.890902    80A      0.914972
      81A      0.921768    82A      0.952527    83A      1.005851
      84A      1.026960    85A      1.051087    86A      1.068646
      87A      1.094950    88A      1.114195    89A      1.139550
      90A      1.152683    91A      1.198681    92A      1.212012
      93A      1.266308    94A      1.271368    95A      1.332958
      96A      1.361704    97A      1.377722    98A      1.468906
      99A      1.487940   100A      1.491507   101A      1.540908
     102A      1.545304   103A      1.560072   104A      1.587909
     105A      1.603746   106A      1.608612   107A      1.652984
     108A      1.676015   109A      1.713657   110A      1.719049
     111A      1.740431   112A      1.759187   113A      1.762761
     114A      1.769990   115A      1.791941   116A      1.801726
     117A      1.806457   118A      1.825662   119A      1.830087
     120A      1.841217   121A      1.844175   122A      1.865674
     123A      1.871926   124A      1.895935   125A      1.939869
     126A      1.958901   127A      1.985427   128A      2.009027
     129A      2.032280   130A      2.046651   131A      2.107310
     132A      2.128999   133A      2.178989   134A      2.181753
     135A      2.220641   136A      2.250200   137A      2.267891
     138A      2.289918   139A      2.321557   140A      2.331530
     141A      2.339778   142A      2.359210   143A      2.366855
     144A      2.404681   145A      2.423016   146A      2.458214
     147A      2.465577   148A      2.505631   149A      2.583182
     150A      2.602380   151A      2.632702   152A      2.661338
     153A      2.668471   154A      2.701790   155A      2.723343
     156A      2.748317   157A      2.761483   158A      2.763601
     159A      2.798534   160A      2.824394   161A      2.836654
     162A      2.850559   163A      2.890428   164A      3.048419
     165A      3.073498   166A      3.117081   167A      3.520375
     168A      3.603444

    Final Occupation by Irrep:
              A
    DOCC [    29 ]

  @RHF Final Energy:  -322.81036871516994

   => Energetics <=

    Nuclear Repulsion Energy =            323.2652190994858188
    One-Electron Energy =               -1066.6217345344493879
    Two-Electron Energy =                 420.5461467197935690
    Total Energy =                       -322.8103687151699432

Computation Completed

Properties will be evaluated at   0.000000,   0.000000,   0.000000 [a0]

Properties computed using the SCF density matrix

  Nuclear Dipole Moment: [e a0]
     X:    -5.5476      Y:    -5.4414      Z:    -0.3821

  Electronic Dipole Moment: [e a0]
     X:     6.8932      Y:     7.0384      Z:     0.4565

  Dipole Moment: [e a0]
     X:     1.3456      Y:     1.5970      Z:     0.0744     Total:     2.0896

  Dipole Moment: [D]
     X:     3.4201      Y:     4.0591      Z:     0.1892     Total:     5.3112

*** tstop() called on ds3 at Mon Apr 27 10:27:23 2020
Module time:
	user time   =      33.23 seconds =       0.55 minutes
	system time =      12.36 seconds =       0.21 minutes
	total time  =        270 seconds =       4.50 minutes
Total time:
	user time   =      33.23 seconds =       0.55 minutes
	system time =      12.36 seconds =       0.21 minutes
	total time  =        270 seconds =       4.50 minutes
                                     G D M A

                                 by Anthony Stone

                           version 2.2.06, 22 June 2011

               Distributed Multipoles from Gaussian wavefunctions

Starting at 10:27:24 on 27 Apr 2020

Using SCF density matrix from file ./SSI/SSI-130ARG-244ILE-1-dimer.test.2521.fchk

                         Distributed Multipole Analysis

Standard DMA

Positions and radii in angstrom
Multipole moments in atomic units, ea_0^k for rank k

C          x = -0.335655  y =  1.520102  z = -1.850698 angstrom
           Maximum rank =  0   Radius =  0.650 angstrom
                   Q00  =  -0.118293

C          x =  0.909345  y =  0.883102  z =  0.186302 angstrom
           Maximum rank =  0   Radius =  0.650 angstrom
                   Q00  =   1.060805

N          x =  0.441345  y =  0.580102  z = -1.032698 angstrom
           Maximum rank =  0   Radius =  0.650 angstrom
                   Q00  =  -0.480471

N          x =  0.661345  y =  2.106102  z =  0.697302 angstrom
           Maximum rank =  0   Radius =  0.650 angstrom
                   Q00  =  -0.585503

N          x =  1.622345  y = -0.001898  z =  0.904302 angstrom
           Maximum rank =  0   Radius =  0.650 angstrom
                   Q00  =  -0.592502

H          x =  0.614345  y = -0.342898  z = -1.414698 angstrom
           Maximum rank =  0   Radius =  0.325 angstrom
                   Q00  =   0.246702

H          x =  0.136345  y =  2.782102  z =  0.145302 angstrom
           Maximum rank =  0   Radius =  0.325 angstrom
                   Q00  =   0.274747

H          x =  1.000345  y =  2.378102  z =  1.597302 angstrom
           Maximum rank =  0   Radius =  0.325 angstrom
                   Q00  =   0.266483

H          x =  1.823345  y = -0.926898  z =  0.529302 angstrom
           Maximum rank =  0   Radius =  0.325 angstrom
                   Q00  =   0.273698

H          x =  1.972345  y =  0.236102  z =  1.818302 angstrom
           Maximum rank =  0   Radius =  0.325 angstrom
                   Q00  =   0.269191

H          x =  0.161345  y =  2.490102  z = -1.817698 angstrom
           Maximum rank =  0   Radius =  0.325 angstrom
                   Q00  =   0.104937

H          x = -1.331655  y =  1.606102  z = -1.417698 angstrom
           Maximum rank =  0   Radius =  0.325 angstrom
                   Q00  =   0.117842

H          x = -0.456915  y =  1.243102  z = -2.908328 angstrom
           Maximum rank =  0   Radius =  0.325 angstrom
                   Q00  =   0.171110

C          x = -1.380655  y = -1.836898  z =  0.255302 angstrom
           Maximum rank =  0   Radius =  0.650 angstrom
                   Q00  =  -0.262066

C          x = -1.876655  y = -3.211898  z =  0.779302 angstrom
           Maximum rank =  0   Radius =  0.650 angstrom
                   Q00  =  -0.237248

H          x = -0.317655  y = -1.731898  z =  0.451302 angstrom
           Maximum rank =  0   Radius =  0.325 angstrom
                   Q00  =   0.030108

H          x = -1.553655  y = -1.763898  z = -0.820698 angstrom
           Maximum rank =  0   Radius =  0.325 angstrom
                   Q00  =   0.082632

H          x = -1.918655  y = -1.032898  z =  0.756302 angstrom
           Maximum rank =  0   Radius =  0.325 angstrom
                   Q00  =   0.090376

H          x = -1.344655  y = -4.006898  z =  0.256302 angstrom
           Maximum rank =  0   Radius =  0.325 angstrom
                   Q00  =   0.088504

H          x = -2.943655  y = -3.310898  z =  0.566302 angstrom
           Maximum rank =  0   Radius =  0.325 angstrom
                   Q00  =   0.102058

H          x = -1.750435  y = -3.415398  z =  1.852912 angstrom
           Maximum rank =  0   Radius =  0.325 angstrom
                   Q00  =   0.096891

Total multipoles referred to origin at
           x =   0.000000,  y =    0.000000,  z =    0.000000 angstrom
                   Q00  =   1.000000

Finished at 10:27:24 on 27 Apr 2020

  DMA results are available in the Python driver through the
	  variable('DMA DISTRIBUTED MULTIPOLES')
  and
	  variable('DMA TOTAL MULTIPOLES')
  commands.

    Psi4 stopped on: Monday, 27 April 2020 10:27AM
    Psi4 wall time for execution: 0:04:30.85

*** Psi4 exiting successfully. Buy a developer a beer!
