                               Psi4 1.3.2 release

  ==> Input File <==

--------------------------------------------------------------------------
import numpy as np
set {scf_type pk
basis cc-pvdz
d_convergence 10
gdma_switch   0
gdma_limit    0
gdma_origin   [ 0.0,  0.0,  0.0 ]
}
molecule test {
    units Angstrom
    0 1
    --
    0 1
    C                0.946711842296401     1.472392828856065    -1.125033398147175
    C                1.269711842296401     1.483392828856065    -2.616033398147175
    O               -0.456288157703599     1.522392828856065    -0.928033398147175
    H                1.327711842296400     0.548392828856065    -0.691033398147175
    H                1.435711842296401     2.311392828856065    -0.627033398147175
    H                2.261711842296401     1.063392828856065    -2.740033398147175
    H               -0.772288157703599     2.407392828856065    -1.158033398147175
    H                1.277231842296401     2.511842828856064    -3.006212398147175
    H                0.556481842296401     0.835922828856065    -3.147159398147175
    C                0.103711842296401    -2.265607171143935     2.012966601852825
    C               -0.439288157703599    -1.159607171143935     1.124966601852825
    O               -0.454288157703599    -1.269607171143935    -0.099033398147175
    N               -0.905288157703599    -0.085607171143935     1.741966601852825
    H               -0.714288157703599    -2.566607171143936     2.669966601852825
    H                0.907711842296401    -1.872607171143935     2.636966601852825
    H               -1.205288157703599     0.679392828856065     1.152966601852825
    H               -0.887288157703599    -0.011607171143935     2.746966601852825
    H                0.447561842296401    -3.139937171143935     1.440848601852825

}
e, wfn = energy('scf', return_wfn=True)
gdma(wfn)
dmavals = variable('DMA DISTRIBUTED MULTIPOLES')
charges = np.array(dmavals)
print(charges)
np.save('SSI-201SER-209ASN-1-dimer.npy', np.array(charges))--------------------------------------------------------------------------

*** tstart() called on ds3
*** at Tue Apr 28 12:27:05 2020

   => Loading Basis Set <=

    Name: CC-PVDZ
    Role: ORBITAL
    Keyword: BASIS
    atoms 1-2, 10-11 entry C          line   138 file /theoryfs2/ds/metcalf/miniconda2/envs/tf2gpu/share/psi4/basis/cc-pvdz.gbs
    atoms 3, 12      entry O          line   198 file /theoryfs2/ds/metcalf/miniconda2/envs/tf2gpu/share/psi4/basis/cc-pvdz.gbs
    atoms 4-9, 14-18 entry H          line    22 file /theoryfs2/ds/metcalf/miniconda2/envs/tf2gpu/share/psi4/basis/cc-pvdz.gbs
    atoms 13         entry N          line   168 file /theoryfs2/ds/metcalf/miniconda2/envs/tf2gpu/share/psi4/basis/cc-pvdz.gbs

         ---------------------------------------------------------
                                   SCF
               by Justin Turney, Rob Parrish, Andy Simmonett
                          and Daniel G. A. Smith
                              RHF Reference
                        1 Threads,    500 MiB Core
         ---------------------------------------------------------

  ==> Geometry <==

    Molecular point group: c1
    Full point group: C1

    Geometry (in Angstrom), charge = 0, multiplicity = 1:

       Center              X                  Y                   Z               Mass
    ------------   -----------------  -----------------  -----------------  -----------------
         C            0.946711842296     1.472392828856    -1.125033398147    12.000000000000
         C            1.269711842296     1.483392828856    -2.616033398147    12.000000000000
         O           -0.456288157704     1.522392828856    -0.928033398147    15.994914619570
         H            1.327711842296     0.548392828856    -0.691033398147     1.007825032230
         H            1.435711842296     2.311392828856    -0.627033398147     1.007825032230
         H            2.261711842296     1.063392828856    -2.740033398147     1.007825032230
         H           -0.772288157704     2.407392828856    -1.158033398147     1.007825032230
         H            1.277231842296     2.511842828856    -3.006212398147     1.007825032230
         H            0.556481842296     0.835922828856    -3.147159398147     1.007825032230
         C            0.103711842296    -2.265607171144     2.012966601853    12.000000000000
         C           -0.439288157704    -1.159607171144     1.124966601853    12.000000000000
         O           -0.454288157704    -1.269607171144    -0.099033398147    15.994914619570
         N           -0.905288157704    -0.085607171144     1.741966601853    14.003074004430
         H           -0.714288157704    -2.566607171144     2.669966601853     1.007825032230
         H            0.907711842296    -1.872607171144     2.636966601853     1.007825032230
         H           -1.205288157704     0.679392828856     1.152966601853     1.007825032230
         H           -0.887288157704    -0.011607171144     2.746966601853     1.007825032230
         H            0.447561842296    -3.139937171144     1.440848601853     1.007825032230

  Running in c1 symmetry.

  Rotational constants: A =      0.16591  B =      0.03390  C =      0.03103 [cm^-1]
  Rotational constants: A =   4973.96980  B =   1016.16920  C =    930.27336 [MHz]
  Nuclear repulsion =  312.117025730677483

  Charge       = 0
  Multiplicity = 1
  Electrons    = 58
  Nalpha       = 29
  Nbeta        = 29

  ==> Algorithm <==

  SCF Algorithm Type is PK.
  DIIS enabled.
  MOM disabled.
  Fractional occupation disabled.
  Guess Type is SAD.
  Energy threshold   = 1.00e-06
  Density threshold  = 1.00e-10
  Integral threshold = 0.00e+00

  ==> Primary Basis <==

  Basis Set: CC-PVDZ
    Blend: CC-PVDZ
    Number of shells: 75
    Number of basis function: 153
    Number of Cartesian functions: 160
    Spherical Harmonics?: true
    Max angular momentum: 2

  ==> Pre-Iterations <==

   -------------------------------------------------------
    Irrep   Nso     Nmo     Nalpha   Nbeta   Ndocc  Nsocc
   -------------------------------------------------------
     A        153     153       0       0       0       0
   -------------------------------------------------------
    Total     153     153      29      29      29       0
   -------------------------------------------------------

  ==> Integral Setup <==

  Using integral reordering PK algorithm.
  Sizing the integral batches needed.
  Building batch lookup table.
   Calculation information:
      Number of atoms:                  18
      Number of AO shells:              75
      Number of primitives:            209
      Number of atomic orbitals:       160
      Number of basis functions:       153

      Integral cutoff                 1.00e-12
      Number of threads:                 1

	Batch   1 pq = [       0,    9405] index = [             0,44231715] size =     44231715
	Batch   2 pq = [    9405,   11781] index = [      44231715,69401871] size =     25170156
  Task number: 7
  Buffer size: 11059200
  Buffer per thread: 2
  We computed 3475977 shell quartets total.
  Whereas there are 4062675 unique shell quartets.

  ==> DiskJK: Disk-Based J/K Matrices <==

    J tasked:                  Yes
    K tasked:                  Yes
    wK tasked:                  No
    Memory [MiB]:              375
    Schwarz Cutoff:          1E-12

    OpenMP threads:              1

  Minimum eigenvalue in the overlap matrix is 4.6685020252E-03.
  Using Symmetric Orthogonalization.

  SCF Guess: Superposition of Atomic Densities via on-the-fly atomic UHF.

  ==> Iterations <==

                        Total Energy        Delta E     RMS |[F,P]|

   @RHF iter SAD:  -360.68012334149233   -3.60680e+02   0.00000e+00
   @RHF iter   1:  -361.82983168318151   -1.14971e+00   4.52470e-03 DIIS
   @RHF iter   2:  -362.02052534856767   -1.90694e-01   2.59717e-03 DIIS
   @RHF iter   3:  -362.07872801745242   -5.82027e-02   5.15272e-04 DIIS
   @RHF iter   4:  -362.08235580988043   -3.62779e-03   2.04621e-04 DIIS
   @RHF iter   5:  -362.08296790201064   -6.12092e-04   3.83804e-05 DIIS
   @RHF iter   6:  -362.08300284597442   -3.49440e-05   1.79011e-05 DIIS
   @RHF iter   7:  -362.08300992804027   -7.08207e-06   6.42467e-06 DIIS
   @RHF iter   8:  -362.08301127745005   -1.34941e-06   2.39465e-06 DIIS
   @RHF iter   9:  -362.08301146468983   -1.87240e-07   7.37851e-07 DIIS
   @RHF iter  10:  -362.08301148042221   -1.57324e-08   2.36531e-07 DIIS
   @RHF iter  11:  -362.08301148186598   -1.44377e-09   5.45868e-08 DIIS
   @RHF iter  12:  -362.08301148194863   -8.26503e-11   1.80583e-08 DIIS
   @RHF iter  13:  -362.08301148195659   -7.95808e-12   4.88331e-09 DIIS
   @RHF iter  14:  -362.08301148195710   -5.11591e-13   1.66037e-09 DIIS
   @RHF iter  15:  -362.08301148195733   -2.27374e-13   6.71574e-10 DIIS
   @RHF iter  16:  -362.08301148195739   -5.68434e-14   3.37315e-10 DIIS
   @RHF iter  17:  -362.08301148195716    2.27374e-13   1.42380e-10 DIIS
   @RHF iter  18:  -362.08301148195574    1.42109e-12   4.19044e-11 DIIS
  Energy and wave function converged.

  ==> Post-Iterations <==

    Orbital Energies [Eh]
    ---------------------

    Doubly Occupied:

       1A    -20.544322     2A    -20.489815     3A    -15.571147
       4A    -11.334222     5A    -11.263689     6A    -11.234636
       7A    -11.210173     8A     -1.354515     9A     -1.345341
      10A     -1.202514    11A     -0.998336    12A     -0.990272
      13A     -0.830705    14A     -0.784026    15A     -0.715202
      16A     -0.677272    17A     -0.639679    18A     -0.615374
      19A     -0.602779    20A     -0.586457    21A     -0.556713
      22A     -0.550502    23A     -0.531597    24A     -0.513369
      25A     -0.505607    26A     -0.465305    27A     -0.426684
      28A     -0.393956    29A     -0.388713

    Virtual:

      30A      0.171312    31A      0.186780    32A      0.210984
      33A      0.220786    34A      0.234796    35A      0.248263
      36A      0.254966    37A      0.260472    38A      0.283369
      39A      0.287183    40A      0.299215    41A      0.313657
      42A      0.393054    43A      0.398329    44A      0.405856
      45A      0.497641    46A      0.552812    47A      0.615593
      48A      0.624963    49A      0.635433    50A      0.645988
      51A      0.668326    52A      0.710954    53A      0.737956
      54A      0.751643    55A      0.753656    56A      0.764108
      57A      0.799437    58A      0.852225    59A      0.856505
      60A      0.863289    61A      0.869090    62A      0.892510
      63A      0.896529    64A      0.900356    65A      0.910605
      66A      0.918320    67A      0.937700    68A      0.959673
      69A      0.981240    70A      1.023151    71A      1.034800
      72A      1.090232    73A      1.119280    74A      1.134297
      75A      1.145614    76A      1.189077    77A      1.193990
      78A      1.283580    79A      1.313397    80A      1.329038
      81A      1.370881    82A      1.378071    83A      1.405310
      84A      1.431550    85A      1.464275    86A      1.482489
      87A      1.517017    88A      1.560005    89A      1.584325
      90A      1.636634    91A      1.663457    92A      1.671711
      93A      1.684850    94A      1.687435    95A      1.733999
      96A      1.764133    97A      1.820872    98A      1.861799
      99A      1.879381   100A      1.879872   101A      1.893179
     102A      1.902259   103A      1.914368   104A      1.926501
     105A      1.943570   106A      1.959010   107A      1.981022
     108A      1.991148   109A      2.003109   110A      2.007744
     111A      2.058603   112A      2.068473   113A      2.100883
     114A      2.119937   115A      2.144925   116A      2.191691
     117A      2.243632   118A      2.258426   119A      2.274141
     120A      2.306608   121A      2.365598   122A      2.442798
     123A      2.451729   124A      2.464494   125A      2.490645
     126A      2.514347   127A      2.543007   128A      2.577468
     129A      2.587283   130A      2.604026   131A      2.633075
     132A      2.722159   133A      2.745254   134A      2.763866
     135A      2.789260   136A      2.799833   137A      2.817874
     138A      2.894311   139A      2.904191   140A      2.921988
     141A      3.009822   142A      3.105732   143A      3.157140
     144A      3.315439   145A      3.331838   146A      3.402305
     147A      3.481632   148A      3.523100   149A      3.550985
     150A      3.646610   151A      3.877271   152A      3.930216
     153A      4.120785

    Final Occupation by Irrep:
              A
    DOCC [    29 ]

  @RHF Final Energy:  -362.08301148195574

   => Energetics <=

    Nuclear Repulsion Energy =            312.1170257306774829
    One-Electron Energy =               -1113.7542297986344693
    Two-Electron Energy =                 439.5541925860012498
    Total Energy =                       -362.0830114819557366

Computation Completed

Properties will be evaluated at   0.000000,   0.000000,   0.000000 [a0]

Properties computed using the SCF density matrix

  Nuclear Dipole Moment: [e a0]
     X:     4.3434      Y:     2.5954      Z:    -0.6867

  Electronic Dipole Moment: [e a0]
     X:    -4.0671      Y:    -1.6558      Z:     2.0019

  Dipole Moment: [e a0]
     X:     0.2763      Y:     0.9396      Z:     1.3152     Total:     1.6398

  Dipole Moment: [D]
     X:     0.7024      Y:     2.3882      Z:     3.3430     Total:     4.1680

*** tstop() called on ds3 at Tue Apr 28 12:28:30 2020
Module time:
	user time   =      23.90 seconds =       0.40 minutes
	system time =       9.64 seconds =       0.16 minutes
	total time  =         85 seconds =       1.42 minutes
Total time:
	user time   =      23.90 seconds =       0.40 minutes
	system time =       9.64 seconds =       0.16 minutes
	total time  =         85 seconds =       1.42 minutes
                                     G D M A

                                 by Anthony Stone

                           version 2.2.06, 22 June 2011

               Distributed Multipoles from Gaussian wavefunctions

Starting at 12:28:30 on 28 Apr 2020

Using SCF density matrix from file ./SSI/SSI-201SER-209ASN-1-dimer.test.14941.fchk

                         Distributed Multipole Analysis

Standard DMA

Positions and radii in angstrom
Multipole moments in atomic units, ea_0^k for rank k

C          x =  0.946712  y =  1.472393  z = -1.125033 angstrom
           Maximum rank =  0   Radius =  0.650 angstrom
                   Q00  =   0.087534

C          x =  1.269712  y =  1.483393  z = -2.616033 angstrom
           Maximum rank =  0   Radius =  0.650 angstrom
                   Q00  =  -0.247562

O          x = -0.456288  y =  1.522393  z = -0.928033 angstrom
           Maximum rank =  0   Radius =  0.650 angstrom
                   Q00  =  -0.576061

H          x =  1.327712  y =  0.548393  z = -0.691033 angstrom
           Maximum rank =  0   Radius =  0.325 angstrom
                   Q00  =   0.100850

H          x =  1.435712  y =  2.311393  z = -0.627033 angstrom
           Maximum rank =  0   Radius =  0.325 angstrom
                   Q00  =   0.019206

H          x =  2.261712  y =  1.063393  z = -2.740033 angstrom
           Maximum rank =  0   Radius =  0.325 angstrom
                   Q00  =   0.084938

H          x = -0.772288  y =  2.407393  z = -1.158033 angstrom
           Maximum rank =  0   Radius =  0.325 angstrom
                   Q00  =   0.365378

H          x =  1.277232  y =  2.511843  z = -3.006212 angstrom
           Maximum rank =  0   Radius =  0.325 angstrom
                   Q00  =   0.065598

H          x =  0.556482  y =  0.835923  z = -3.147159 angstrom
           Maximum rank =  0   Radius =  0.325 angstrom
                   Q00  =   0.103592

C          x =  0.103712  y = -2.265607  z =  2.012967 angstrom
           Maximum rank =  0   Radius =  0.650 angstrom
                   Q00  =  -0.251634

C          x = -0.439288  y = -1.159607  z =  1.124967 angstrom
           Maximum rank =  0   Radius =  0.650 angstrom
                   Q00  =   0.802965

O          x = -0.454288  y = -1.269607  z = -0.099033 angstrom
           Maximum rank =  0   Radius =  0.650 angstrom
                   Q00  =  -0.781080

N          x = -0.905288  y = -0.085607  z =  1.741967 angstrom
           Maximum rank =  0   Radius =  0.650 angstrom
                   Q00  =  -0.538355

H          x = -0.714288  y = -2.566607  z =  2.669967 angstrom
           Maximum rank =  0   Radius =  0.325 angstrom
                   Q00  =   0.100463

H          x =  0.907712  y = -1.872607  z =  2.636967 angstrom
           Maximum rank =  0   Radius =  0.325 angstrom
                   Q00  =   0.096868

H          x = -1.205288  y =  0.679393  z =  1.152967 angstrom
           Maximum rank =  0   Radius =  0.325 angstrom
                   Q00  =   0.242187

H          x = -0.887288  y = -0.011607  z =  2.746967 angstrom
           Maximum rank =  0   Radius =  0.325 angstrom
                   Q00  =   0.197682

H          x =  0.447562  y = -3.139937  z =  1.440849 angstrom
           Maximum rank =  0   Radius =  0.325 angstrom
                   Q00  =   0.127431

Total multipoles referred to origin at
           x =   0.000000,  y =    0.000000,  z =    0.000000 angstrom
                   Q00  =  -0.000000

Finished at 12:28:30 on 28 Apr 2020

  DMA results are available in the Python driver through the
	  variable('DMA DISTRIBUTED MULTIPOLES')
  and
	  variable('DMA TOTAL MULTIPOLES')
  commands.

    Psi4 stopped on: Tuesday, 28 April 2020 12:28PM
    Psi4 wall time for execution: 0:01:24.62

*** Psi4 exiting successfully. Buy a developer a beer!
